 Gaussian 16, Revision A.03,

 -----------------------------------------------------------
 # opt freq B3LYP/6-31G(d) empiricaldispersion=gd3bj scf=xqc
 -----------------------------------------------------------

 ------------------------------
 CID_141794495_JID_849_neutraal
 ------------------------------
 Symbolic Z-matrix:
 Charge =  0 Multiplicity = 1

 SCF Done:  E(RB3LYP) =  -425.397844970     A.U. after   14 cycles
 SCF Done:  E(RB3LYP) =  -425.401494589     A.U. after   12 cycles
 SCF Done:  E(RB3LYP) =  -425.402889365     A.U. after   12 cycles
 SCF Done:  E(RB3LYP) =  -425.403589782     A.U. after   12 cycles
 SCF Done:  E(RB3LYP) =  -425.403684362     A.U. after   11 cycles
 SCF Done:  E(RB3LYP) =  -425.403696907     A.U. after    9 cycles
 SCF Done:  E(RB3LYP) =  -425.403697819     A.U. after    8 cycles
 SCF Done:  E(RB3LYP) =  -425.403697968     A.U. after    7 cycles
 Optimization completed.
    -- Stationary point found.

 1\1\GINC-NODE103\FOpt\RB3LYP\6-31G(d)\C9H12O1\VSC10255\08-Dec-2020\0\\
 # opt freq B3LYP/6-31G(d) empiricaldispersion=gd3bj scf=xqc\\CID_14179
 4495_JID_849_neutraal\\0,1\C,0.9694829174,0.0354533761,0.1121608756\C,
 0.8308666603,0.0885408145,1.6195564365\C,0.769659512,1.2877794193,2.23
 98643151\C,0.7662083257,1.4425899831,3.7374132268\C,-0.5373394889,0.90
 5579983,4.2521356084\C,-0.8487880918,-0.4086829899,4.1485041274\C,-0.0
 47568755,-1.3732994805,3.4371294217\C,0.7379992043,-1.1877647625,2.332
 882469\C,1.4230956857,-2.3882132832,1.7161879263\O,-1.3331785577,1.842

 Normal termination of Gaussian 16 at Tue Dec  8 12:41:45 2020.

 --------------------------------------------------------------------
 #N Geom=AllCheck Guess=TCheck SCRF=Check GenChk RB3LYP/6-31G(d) Freq
 --------------------------------------------------------------------

 Structure from the checkpoint file:  "JID_849.chk"
 ------------------------------
 CID_141794495_JID_849_neutraal
 ------------------------------
 Charge =  0 Multiplicity = 1

 SCF Done:  E(RB3LYP) =  -425.403697968     A.U. after    1 cycles

  Exact polarizability: 129.422  -2.524 101.296  -1.087  -5.524  60.854
 Approx polarizability: 199.381 -11.681 163.158  -0.485 -13.783  90.786

                      1                      2                      3
                      A                      A                      A
 Frequencies --    114.2225               119.7135               188.8056
 Red. masses --      3.3397                 3.3051                 1.1398
 Frc consts  --      0.0257                 0.0279                 0.0239
 IR Inten    --      1.6210                 0.5640                 0.6800

                      4                      5                      6
                      A                      A                      A
 Frequencies --    206.3237               240.1031               303.1220
 Red. masses --      1.2699                 1.8314                 2.8265
 Frc consts  --      0.0319                 0.0622                 0.1530
 IR Inten    --      0.1298                 0.6384                 3.5218

                      7                      8                      9
                      A                      A                      A
 Frequencies --    322.9440               333.4355               356.3836
 Red. masses --      2.4205                 2.9694                 3.2100
 Frc consts  --      0.1487                 0.1945                 0.2402
 IR Inten    --      1.4025                 1.0497                 1.3397

                     10                     11                     12
                      A                      A                      A
 Frequencies --    404.2696               431.5825               476.6422
 Red. masses --      3.4766                 3.5542                 1.6688
 Frc consts  --      0.3348                 0.3901                 0.2234
 IR Inten    --     18.1261                 6.2986                39.2279

                     13                     14                     15
                      A                      A                      A
 Frequencies --    487.5430               543.6192               622.9978
 Red. masses --      1.7387                 2.8834                 3.3276
 Frc consts  --      0.2435                 0.5021                 0.7609
 IR Inten    --     59.2126                 1.0984                13.9090

                     16                     17                     18
                      A                      A                      A
 Frequencies --    657.8035               708.7152               736.6160
 Red. masses --      3.4395                 3.7774                 3.5577
 Frc consts  --      0.8769                 1.1179                 1.1374
 IR Inten    --      0.3310                 0.5781                13.0239

                     19                     20                     21
                      A                      A                      A
 Frequencies --    814.0409               825.6020               884.9056
 Red. masses --      1.5725                 1.4198                 2.1729
 Frc consts  --      0.6140                 0.5702                 1.0025
 IR Inten    --     25.8364                18.4028                18.3953

                     22                     23                     24
                      A                      A                      A
 Frequencies --    903.7756               942.4698              1010.3243
 Red. masses --      1.6874                 2.0235                 1.7048
 Frc consts  --      0.8120                 1.0590                 1.0253
 IR Inten    --      1.5901                15.3787                 6.3877

                     25                     26                     27
                      A                      A                      A
 Frequencies --   1026.1698              1070.5502              1083.5710
 Red. masses --      1.5068                 1.4445                 1.5849
 Frc consts  --      0.9348                 0.9754                 1.0964
 IR Inten    --      0.9111                 4.0005                 2.8353

                     28                     29                     30
                      A                      A                      A
 Frequencies --   1102.9757              1121.1572              1161.6291
 Red. masses --      2.1005                 1.9215                 2.4370
 Frc consts  --      1.5056                 1.4231                 1.9375
 IR Inten    --      6.9978                18.0288               102.2101

                     31                     32                     33
                      A                      A                      A
 Frequencies --   1198.7220              1234.0433              1251.5686
 Red. masses --      2.6684                 1.2520                 1.6249
 Frc consts  --      2.2591                 1.1233                 1.4996
 IR Inten    --     50.7099                51.4862                 3.3930

                     34                     35                     36
                      A                      A                      A
 Frequencies --   1316.8756              1353.1933              1355.4541
 Red. masses --      1.6267                 1.7565                 1.2868
 Frc consts  --      1.6620                 1.8950                 1.3929
 IR Inten    --     21.0421                39.2126                27.5263

                     37                     38                     39
                      A                      A                      A
 Frequencies --   1438.6747              1443.2682              1447.7548
 Red. masses --      1.2552                 1.9060                 1.2367
 Frc consts  --      1.5308                 2.3392                 1.5272
 IR Inten    --      2.0428                 3.5545                 1.5532

                     40                     41                     42
                      A                      A                      A
 Frequencies --   1465.7234              1497.4866              1508.9012
 Red. masses --      1.9673                 1.1579                 1.0493
 Frc consts  --      2.4901                 1.5298                 1.4075
 IR Inten    --      3.6559                 6.7795                 2.8365

                     43                     44                     45
                      A                      A                      A
 Frequencies --   1511.9964              1526.2749              1534.7947
 Red. masses --      1.0535                 1.0582                 1.1006
 Frc consts  --      1.4190                 1.4524                 1.5274
 IR Inten    --     10.1886                13.3320                 0.4511

                     46                     47                     48
                      A                      A                      A
 Frequencies --   1603.9763              1697.9990              1702.8419
 Red. masses --      5.7845                 6.2467                 6.1796
 Frc consts  --      8.7683                10.6114                10.5575
 IR Inten    --     38.6366               152.0444                 4.7478

                     49                     50                     51
                      A                      A                      A
 Frequencies --   3027.9003              3033.5012              3040.1054
 Red. masses --      1.0685                 1.0390                 1.0377
 Frc consts  --      5.7720                 5.6329                 5.6505
 IR Inten    --     28.2075                22.9670                51.0418

                     52                     53                     54
                      A                      A                      A
 Frequencies --   3079.7100              3088.9416              3123.1967
 Red. masses --      1.1001                 1.1004                 1.0987
 Frc consts  --      6.1474                 6.1862                 6.3146
 IR Inten    --     26.9797                22.3450                22.4939

                     55                     56                     57
                      A                      A                      A
 Frequencies --   3127.2791              3128.4444              3133.9675
 Red. masses --      1.0965                 1.0979                 1.0863
 Frc consts  --      6.3181                 6.3308                 6.2861
 IR Inten    --     23.0247                 3.0087                33.7221

                     58                     59                     60
                      A                      A                      A
 Frequencies --   3148.1907              3170.0957              3723.2201
 Red. masses --      1.0900                 1.0901                 1.0653
 Frc consts  --      6.3648                 6.4546                 8.7004
 IR Inten    --     42.5512                25.9726                34.0928

 - Thermochemistry -
 -------------------
 Temperature   298.150 Kelvin.  Pressure   1.00000 Atm.
 Atom     1 has atomic number  6 and mass  12.00000

 Molecular mass:   136.08882 amu.
 Principal axes and moments of inertia in atomic units:
                           1         2         3
     Eigenvalues --   759.814771818.309872330.24449
           X            0.99999   0.00331   0.00272
           Y           -0.00332   0.99999   0.00357
           Z           -0.00271  -0.00358   0.99999
 This molecule is an asymmetric top.
 Rotational symmetry number  1.
 Warning -- assumption of classical behavior for rotation
           may cause significant error
 Rotational temperatures (Kelvin)      0.11399     0.04763     0.03717
 Rotational constants (GHZ):           2.37524     0.99254     0.77449
 Zero-point vibrational energy     497144.8 (Joules/Mol)
                                  118.82045 (Kcal/Mol)
 Warning -- explicit consideration of  14 degrees of freedom as
           vibrations may cause significant error
 Vibrational temperatures:    164.34   172.24   271.65   296.85   345.45
          (Kelvin)            436.13   464.64   479.74   512.76   581.65
                              620.95   685.78   701.47   782.15   896.35
                              946.43  1019.68  1059.83  1171.22  1187.86
                             1273.18  1300.33  1356.00  1453.63  1476.43
                             1540.28  1559.02  1586.94  1613.10  1671.33
                             1724.69  1775.51  1800.73  1894.69  1946.94
                             1950.20  2069.93  2076.54  2083.00  2108.85
                             2154.55  2170.97  2175.43  2195.97  2208.23
                             2307.76  2443.04  2450.01  4356.47  4364.53
                             4374.03  4431.02  4444.30  4493.58  4499.46
                             4501.13  4509.08  4529.54  4561.06  5356.88

 Zero-point correction=                           0.189352 (Hartree/Particle)
 Thermal correction to Energy=                    0.199125
 Thermal correction to Enthalpy=                  0.200069
 Thermal correction to Gibbs Free Energy=         0.155234
 Sum of electronic and zero-point Energies=           -425.214346
 Sum of electronic and thermal Energies=              -425.204573
 Sum of electronic and thermal Enthalpies=            -425.203629
 Sum of electronic and thermal Free Energies=         -425.248464

                     E (Thermal)             CV                S
                      KCal/Mol        Cal/Mol-Kelvin    Cal/Mol-Kelvin
 Total                  124.953             38.404             94.363
 Electronic               0.000              0.000              0.000
 Translational            0.889              2.981             40.637
 Rotational               0.889              2.981             29.555
 Vibrational            123.175             32.442             24.172
 Vibration     1          0.607              1.938              3.196
 Vibration     2          0.609              1.933              3.105
 Vibration     3          0.633              1.855              2.240
 Vibration     4          0.641              1.831              2.076
 Vibration     5          0.657              1.779              1.802
 Vibration     6          0.695              1.668              1.400
 Vibration     7          0.708              1.630              1.295
 Vibration     8          0.715              1.609              1.243
 Vibration     9          0.732              1.562              1.138
 Vibration    10          0.769              1.461              0.947
 Vibration    11          0.793              1.401              0.853
 Vibration    12          0.833              1.302              0.719
 Vibration    13          0.843              1.278              0.690
 Vibration    14          0.899              1.154              0.558

 Optimization completed.
    -- Stationary point found.

 1\1\GINC-NODE103\Freq\RB3LYP\6-31G(d)\C9H12O1\VSC10255\08-Dec-2020\0\\
 #N Geom=AllCheck Guess=TCheck SCRF=Check GenChk RB3LYP/6-31G(d) Freq\\
 CID_141794495_JID_849_neutraal\\0,1\C,0.9694829174,0.0354533761,0.1121
 608756\C,0.8308666603,0.0885408145,1.6195564365\C,0.769659512,1.287779
 4193,2.2398643151\C,0.7662083257,1.4425899831,3.7374132268\C,-0.537339
 4889,0.905579983,4.2521356084\C,-0.8487880918,-0.4086829899,4.14850412
 74\C,-0.047568755,-1.3732994805,3.4371294217\C,0.7379992043,-1.1877647
 625,2.332882469\C,1.4230956857,-2.3882132832,1.7161879263\O,-1.3331785

 Normal termination of Gaussian 16 at Tue Dec  8 12:51:23 2020.

 ----------------------------------------------------------------------
 # B3LYP/6-311++G(d,p) empiricaldispersion=gd3bj scf=xqc pop=npa geom=c
 heck
 ----------------------------------------------------------------------

 --------------------------------------
 CID_141794495_JID_849_Energie_neutraal
 --------------------------------------
 Structure from the checkpoint file:  "JID_849.chk"
 Charge =  0 Multiplicity = 1

 SCF Done:  E(RB3LYP) =  -425.528444553     A.U. after   15 cycles
 Normal termination of Gaussian 16 at Tue Dec  8 13:04:48 2020.

 ----------------------------------------------------------------------
 # B3LYP/6-311++G(d,p) empiricaldispersion=gd3bj scf=xqc pop=npa geom=c
 heck
 ----------------------------------------------------------------------

 ------------------------------------
 CID_141794495_JID_849_Energie_kation
 ------------------------------------
 Structure from the checkpoint file:  "JID_849.chk"
 Charge =  1 Multiplicity = 2

 SCF Done:  E(UB3LYP) =  -425.254899758     A.U. after   21 cycles
 Normal termination of Gaussian 16 at Tue Dec  8 13:12:48 2020.
 Gaussian 16:  ES64L-G16RevA.03 25-Dec-2016

 -----------------------------------
 CID_141794495_JID_849_Energie_anion
 -----------------------------------
 Structure from the checkpoint file:  "JID_849.chk"
 Charge = -1 Multiplicity = 2

                         Standard orientation:
 ---------------------------------------------------------------------
 Center     Atomic      Atomic             Coordinates (Angstroms)
 Number     Number       Type             X           Y           Z
 ---------------------------------------------------------------------
      1          6           0       -2.243511   -1.499468   -0.661318
      2          6           0       -1.057079   -0.767557   -0.068899
      3          6           0        0.063598   -1.457403    0.239155
      4          6           0        1.239739   -0.844552    0.951712
      5          6           0        1.882838    0.137739    0.016788
      6          6           0        1.236022    1.259197   -0.381947
      7          6           0       -0.140724    1.550306   -0.068393
      8          6           0       -1.181131    0.680949    0.112364
      9          6           0       -2.565692    1.242151    0.354827
     10          8           0        3.153197   -0.191563   -0.351330
     11          1           0       -2.002290   -2.551379   -0.839707
     12          1           0       -2.560626   -1.055821   -1.613579
     13          1           0       -3.111535   -1.467421    0.008999
     14          1           0        0.132660   -2.507823   -0.036332
     15          1           0        0.902251   -0.311654    1.851703
     16          1           0        1.968346   -1.602489    1.248485
     17          1           0        1.785959    2.011656   -0.948079
     18          1           0       -0.392461    2.610882   -0.051285
     19          1           0       -2.530564    2.327573    0.487116
     20          1           0       -3.246427    1.030214   -0.479925
     21          1           0       -3.025988    0.809719    1.252880
     22          1           0        3.450737    0.430872   -1.035372
 ---------------------------------------------------------------------

 SCF Done:  E(UB3LYP) =  -425.512813775     A.U. after   33 cycles
 SCF Done:  E(UB3LYP) =  -425.512813775     a.u. after    1 cycles

 The electronic state is 2-A.
 Alpha  occ. eigenvalues --  -19.04058 -10.12006 -10.06459 -10.06322 -10.05989
 Alpha  occ. eigenvalues --  -10.05705 -10.05541 -10.05492 -10.05457 -10.04210
 Alpha  occ. eigenvalues --   -0.95010  -0.73319  -0.67183  -0.66128  -0.60596
 Alpha  occ. eigenvalues --   -0.57432  -0.52510  -0.50169  -0.45988  -0.40468
 Alpha  occ. eigenvalues --   -0.38277  -0.35802  -0.33560  -0.32067  -0.31764
 Alpha  occ. eigenvalues --   -0.30471  -0.29814  -0.29147  -0.27896  -0.26573
 Alpha  occ. eigenvalues --   -0.25557  -0.24385  -0.23795  -0.22312  -0.18301
 Alpha  occ. eigenvalues --   -0.12936  -0.08865   0.04936
 Alpha virt. eigenvalues --    0.06784   0.07813   0.08146   0.09211   0.09485
 Alpha virt. eigenvalues --    0.10658   0.10915   0.11414   0.12137   0.12970
 Alpha virt. eigenvalues --    0.13456   0.13686   0.15008   0.15644   0.16230

  Beta  occ. eigenvalues --  -19.03998 -10.11962 -10.06450 -10.06323 -10.05947
  Beta  occ. eigenvalues --  -10.05675 -10.05523 -10.05451 -10.05410 -10.04194
  Beta  occ. eigenvalues --   -0.94884  -0.73242  -0.67105  -0.66055  -0.60543
  Beta  occ. eigenvalues --   -0.57345  -0.52443  -0.50037  -0.45861  -0.40398
  Beta  occ. eigenvalues --   -0.38197  -0.35732  -0.33490  -0.31999  -0.31712
  Beta  occ. eigenvalues --   -0.30403  -0.29745  -0.29106  -0.27851  -0.26509
  Beta  occ. eigenvalues --   -0.25498  -0.24322  -0.23740  -0.22251  -0.18134
  Beta  occ. eigenvalues --   -0.12775  -0.08672
  Beta virt. eigenvalues --    0.07203   0.08224   0.08460   0.08635   0.09588
  Beta virt. eigenvalues --    0.10132   0.10959   0.11203   0.11753   0.12490
  Beta virt. eigenvalues --    0.13180   0.13649   0.13998   0.15345   0.15824

 Mulliken charges and spin densities:
               1          2
     1  C    1.109866  -1.816913
     2  C   -0.324601   0.756137
     3  C   -0.878994   0.750682
     4  C    1.267682  -1.752861
     5  C    1.502227  -1.543521
     6  C   -0.729874   0.451546
     7  C    1.439978  -2.070964
     8  C   -2.800620   3.557204
     9  C    1.045063  -1.662698
    10  O   -0.274567   0.078578
    11  H   -0.306142   0.444804
    12  H   -0.005044   0.151374
    13  H   -0.192350   0.351246
    14  H   -0.183373   0.328133
    15  H   -0.085040   0.209697
    16  H    0.212192  -0.051689
    17  H   -0.990741   1.155169
    18  H    0.048978   0.067937
    19  H   -0.298223   0.449303
    20  H    0.017297   0.124133
    21  H   -0.103590   0.263429
    22  H   -0.470124   0.759274
 Sum of Mulliken charges =  -1.00000   1.00000

 Dipole moment (field-independent basis, Debye):
    X=             -2.6701    Y=             -1.8774    Z=              1.8332  Tot=              3.7436
 Quadrupole moment (field-independent basis, Debye-Ang):
   XX=           -124.8494   YY=            -97.4489   ZZ=            -88.3469
   XY=            -11.0764   XZ=             11.7814   YZ=              2.6130

 Summary of Natural Population Analysis:

                                       Natural Population
                Natural  -----------------------------------------------
    Atom  No    Charge         Core      Valence    Rydberg      Total
 -----------------------------------------------------------------------
      C    1   -0.29092      0.99964     2.28533    0.00595     3.29092
      C    2   -0.02677      0.99945     2.01586    0.01147     3.02677
      C    3   -0.07514      0.99948     2.06681    0.00885     3.07514
      C    4   -0.22988      0.99957     2.22125    0.00906     3.22988
      C    5    0.19985      0.99940     1.78594    0.01481     2.80015
      C    6   -0.17658      0.99946     2.16486    0.01226     3.17658
      C    7   -0.08809      0.99950     2.07754    0.01105     3.08809
      C    8   -0.02734      0.99947     2.01770    0.01018     3.02734
      C    9   -0.28989      0.99964     2.28520    0.00505     3.28989
      O   10   -0.34156      0.99987     3.33424    0.00744     4.34156
      H   11    0.10078      0.00000     0.39806    0.00115     0.39922
      H   12    0.09855      0.00000     0.40028    0.00116     0.40145
      H   13    0.10302      0.00000     0.39542    0.00156     0.39698
      H   14    0.09175      0.00000     0.40722    0.00104     0.40825
      H   15    0.10749      0.00000     0.39110    0.00141     0.39251
      H   16    0.10762      0.00000     0.39112    0.00126     0.39238
      H   17    0.10438      0.00000     0.39147    0.00416     0.39562
      H   18    0.09297      0.00000     0.40587    0.00116     0.40703
      H   19    0.09959      0.00000     0.39922    0.00120     0.40041
      H   20    0.09809      0.00000     0.40042    0.00149     0.40191
      H   21    0.09988      0.00000     0.39826    0.00186     0.40012
      H   22    0.24221      0.00000     0.24026    0.01754     0.25779
 =======================================================================
   * Total *   -0.00000      9.99547    26.87341    0.13112    37.00000

 Normal termination of Gaussian 16 at Tue Dec  8 13:23:57 2020.
