 Gaussian 16, Revision A.03,

 -----------------------------------------------------------
 # opt freq B3LYP/6-31G(d) empiricaldispersion=gd3bj scf=xqc
 -----------------------------------------------------------

 -------------------------------
 CID_150174762_JID_1157_neutraal
 -------------------------------
 Symbolic Z-matrix:
 Charge =  0 Multiplicity = 1

 SCF Done:  E(RB3LYP) =  -549.913150556     A.U. after   15 cycles
 SCF Done:  E(RB3LYP) =  -549.919432881     A.U. after   14 cycles
 SCF Done:  E(RB3LYP) =  -549.920282135     A.U. after   14 cycles
 SCF Done:  E(RB3LYP) =  -549.921083580     A.U. after   12 cycles
 SCF Done:  E(RB3LYP) =  -549.921162034     A.U. after   11 cycles
 SCF Done:  E(RB3LYP) =  -549.921175122     A.U. after   11 cycles
 SCF Done:  E(RB3LYP) =  -549.921201209     A.U. after   11 cycles
 SCF Done:  E(RB3LYP) =  -549.921205769     A.U. after   10 cycles
 SCF Done:  E(RB3LYP) =  -549.921207995     A.U. after   10 cycles
 SCF Done:  E(RB3LYP) =  -549.921212604     A.U. after   11 cycles
 SCF Done:  E(RB3LYP) =  -549.921748326     A.U. after   12 cycles
 SCF Done:  E(RB3LYP) =  -549.921761479     A.U. after   11 cycles
 SCF Done:  E(RB3LYP) =  -549.921783353     A.U. after   12 cycles
 SCF Done:  E(RB3LYP) =  -549.921786611     A.U. after   11 cycles
 SCF Done:  E(RB3LYP) =  -549.921787263     A.U. after    9 cycles
 SCF Done:  E(RB3LYP) =  -549.921787317     A.U. after    9 cycles
 Optimization completed.
    -- Stationary point found.
 Normal termination of Gaussian 16 at Tue Dec  8 19:23:41 2020.

 --------------------------------------------------------------------
 #N Geom=AllCheck Guess=TCheck SCRF=Check GenChk RB3LYP/6-31G(d) Freq
 --------------------------------------------------------------------

 Structure from the checkpoint file:  "JID_1157.chk"
 -------------------------------
 CID_150174762_JID_1157_neutraal
 -------------------------------
 Charge =  0 Multiplicity = 1

 SCF Done:  E(RB3LYP) =  -549.921787317     A.U. after    1 cycles

  Exact polarizability:  92.629   7.631  83.681   6.938   9.106  79.365
 Approx polarizability: 114.890  17.846 138.716  17.184  39.575 145.297

                      1                      2                      3
                      A                      A                      A
 Frequencies --     17.7554                54.8035                91.3423
 Red. masses --      4.6504                 5.9005                 3.9974
 Frc consts  --      0.0009                 0.0104                 0.0197
 IR Inten    --      0.1613                 0.0495                 0.2205

                      4                      5                      6
                      A                      A                      A
 Frequencies --    101.6400               171.9036               228.3934
 Red. masses --      4.1859                 5.7990                 2.6486
 Frc consts  --      0.0255                 0.1010                 0.0814
 IR Inten    --      0.5905                 0.5232                 2.1659

                      7                      8                      9
                      A                      A                      A
 Frequencies --    310.6922               335.1898               338.2464
 Red. masses --      3.8707                 1.5576                 2.8083
 Frc consts  --      0.2201                 0.1031                 0.1893
 IR Inten    --      3.7799                46.6108                11.4990

                     10                     11                     12
                      A                      A                      A
 Frequencies --    388.8814               422.3256               458.4025
 Red. masses --      1.7550                 1.8643                 2.3562
 Frc consts  --      0.1564                 0.1959                 0.2917
 IR Inten    --     79.6195                40.8273                25.6394

                     13                     14                     15
                      A                      A                      A
 Frequencies --    488.6070               516.3196               577.8273
 Red. masses --      2.9292                 3.3714                13.5517
 Frc consts  --      0.4120                 0.5295                 2.6659
 IR Inten    --      3.1232                16.5820                 9.2954

                     16                     17                     18
                      A                      A                      A
 Frequencies --    592.7002               666.7467               742.0805
 Red. masses --      3.3251                 2.5298                 8.1133
 Frc consts  --      0.6882                 0.6626                 2.6324
 IR Inten    --     74.9176                 3.4872                17.0386

                     19                     20                     21
                      A                      A                      A
 Frequencies --    803.6052               851.0164               886.7535
 Red. masses --      1.7163                 2.2193                 2.8209
 Frc consts  --      0.6530                 0.9470                 1.3069
 IR Inten    --      8.6903                 5.8609                 9.3075

                     22                     23                     24
                      A                      A                      A
 Frequencies --    949.3017               984.9857               987.6988
 Red. masses --      2.2144                 2.0921                 2.4468
 Frc consts  --      1.1757                 1.1959                 1.4064
 IR Inten    --      9.2696                 5.0423                18.5132

                     25                     26                     27
                      A                      A                      A
 Frequencies --   1001.4587              1042.3920              1069.7400
 Red. masses --      2.1334                 1.7940                 3.1317
 Frc consts  --      1.2606                 1.1485                 2.1115
 IR Inten    --     17.7979                24.0533               162.6675

                     28                     29                     30
                      A                      A                      A
 Frequencies --   1078.1037              1111.9608              1122.2647
 Red. masses --      4.0558                 3.5759                 2.1740
 Frc consts  --      2.7775                 2.6051                 1.6132
 IR Inten    --     65.0135                15.0482                70.7532

                     31                     32                     33
                      A                      A                      A
 Frequencies --   1154.4495              1231.9509              1252.6541
 Red. masses --      1.3574                 1.3114                 1.5116
 Frc consts  --      1.0659                 1.1727                 1.3975
 IR Inten    --     18.2445                 5.0463                 1.2618

                     34                     35                     36
                      A                      A                      A
 Frequencies --   1272.4994              1289.5594              1304.4676
 Red. masses --      1.4111                 1.2275                 1.5529
 Frc consts  --      1.3463                 1.2027                 1.5569
 IR Inten    --     18.0807                24.5364                11.9434

                     37                     38                     39
                      A                      A                      A
 Frequencies --   1311.6470              1341.0178              1353.1042
 Red. masses --      1.9279                 1.4609                 1.5970
 Frc consts  --      1.9542                 1.5478                 1.7228
 IR Inten    --     56.0972                12.9887                55.4578

                     40                     41                     42
                      A                      A                      A
 Frequencies --   1359.0702              1366.8943              1383.2633
 Red. masses --      1.2851                 1.3265                 1.4009
 Frc consts  --      1.3985                 1.4602                 1.5793
 IR Inten    --      0.8684                 2.5421                 3.3439

                     43                     44                     45
                      A                      A                      A
 Frequencies --   1418.1589              1443.2344              1474.7099
 Red. masses --      1.4220                 1.2420                 1.5558
 Frc consts  --      1.6850                 1.5242                 1.9935
 IR Inten    --      4.7788                30.4726                60.5445

                     46                     47                     48
                      A                      A                      A
 Frequencies --   1516.2377              1524.8625              1538.9019
 Red. masses --      1.0910                 1.0814                 1.1019
 Frc consts  --      1.4778                 1.4815                 1.5375
 IR Inten    --      1.8285                 7.2192                 3.9040

                     49                     50                     51
                      A                      A                      A
 Frequencies --   2252.3026              3025.9967              3044.3426
 Red. masses --     13.8938                 1.0836                 1.0709
 Frc consts  --     41.5264                 5.8461                 5.8478
 IR Inten    --    440.8787                18.5719                28.4890

                     52                     53                     54
                      A                      A                      A
 Frequencies --   3047.7353              3056.1495              3078.3114
 Red. masses --      1.0831                 1.0705                 1.0661
 Frc consts  --      5.9276                 5.8911                 5.9522
 IR Inten    --     17.8148                19.2352                31.2555

                     55                     56                     57
                      A                      A                      A
 Frequencies --   3096.7040              3119.0790              3126.7375
 Red. masses --      1.0847                 1.0951                 1.1002
 Frc consts  --      6.1286                 6.2771                 6.3376
 IR Inten    --     15.2668                29.4107                 9.9970

                     58                     59                     60
                      A                      A                      A
 Frequencies --   3130.7885              3706.8453              3734.9542
 Red. masses --      1.1000                 1.0651                 1.0656
 Frc consts  --      6.3528                 8.6226                 8.7584
 IR Inten    --     47.3729                13.9290                21.4846

 - Thermochemistry -
 -------------------
 Temperature   298.150 Kelvin.  Pressure   1.00000 Atm.
 Atom     1 has atomic number  6 and mass  12.00000

 Molecular mass:   157.08513 amu.
 Principal axes and moments of inertia in atomic units:
                           1         2         3
     Eigenvalues --   885.561882917.037233301.41166
           X            0.99993  -0.01131  -0.00266
           Y            0.01124   0.99954  -0.02801
           Z            0.00298   0.02798   0.99960
 This molecule is an asymmetric top.
 Rotational symmetry number  1.
 Warning -- assumption of classical behavior for rotation
           may cause significant error
 Rotational temperatures (Kelvin)      0.09781     0.02969     0.02624
 Rotational constants (GHZ):           2.03796     0.61869     0.54666
 Zero-point vibrational energy     480598.3 (Joules/Mol)
                                  114.86576 (Kcal/Mol)
 Warning -- explicit consideration of  16 degrees of freedom as
           vibrations may cause significant error
 Vibrational temperatures:     25.55    78.85   131.42   146.24   247.33
          (Kelvin)            328.61   447.02   482.26   486.66   559.51
                              607.63   659.54   703.00   742.87   831.36
                              852.76   959.30  1067.69  1156.21  1224.42
                             1275.84  1365.83  1417.17  1421.08  1440.88
                             1499.77  1539.12  1551.15  1599.86  1614.69
                             1661.00  1772.50  1802.29  1830.84  1855.39
                             1876.84  1887.17  1929.43  1946.82  1955.40
                             1966.66  1990.21  2040.41  2076.49  2121.78
                             2181.53  2193.94  2214.14  3240.56  4353.73
                             4380.13  4385.01  4397.12  4429.00  4455.47
                             4487.66  4498.68  4504.51  5333.32  5373.77

 Zero-point correction=                           0.183050 (Hartree/Particle)
 Thermal correction to Energy=                    0.193910
 Thermal correction to Enthalpy=                  0.194854
 Thermal correction to Gibbs Free Energy=         0.144743
 Sum of electronic and zero-point Energies=           -549.738737
 Sum of electronic and thermal Energies=              -549.727878
 Sum of electronic and thermal Enthalpies=            -549.726934
 Sum of electronic and thermal Free Energies=         -549.777044

                     E (Thermal)             CV                S
                      KCal/Mol        Cal/Mol-Kelvin    Cal/Mol-Kelvin
 Total                  121.680             39.964            105.467
 Electronic               0.000              0.000              0.000
 Translational            0.889              2.981             41.064
 Rotational               0.889              2.981             30.523
 Vibrational            119.903             34.003             33.880
 Vibration     1          0.593              1.986              6.871
 Vibration     2          0.596              1.976              4.636
 Vibration     3          0.602              1.955              3.631
 Vibration     4          0.604              1.948              3.423
 Vibration     5          0.626              1.877              2.415
 Vibration     6          0.651              1.798              1.892
 Vibration     7          0.700              1.653              1.359
 Vibration     8          0.716              1.605              1.235
 Vibration     9          0.719              1.599              1.220
 Vibration    10          0.757              1.494              1.004
 Vibration    11          0.785              1.422              0.884
 Vibration    12          0.816              1.342              0.771
 Vibration    13          0.845              1.275              0.687
 Vibration    14          0.871              1.214              0.619
 Vibration    15          0.934              1.079              0.489
 Vibration    16          0.950              1.047              0.462

                           ! Non-Optimized Parameters !
 Normal termination of Gaussian 16 at Tue Dec  8 19:28:11 2020.

 ----------------------------------------------------------------------
 # B3LYP/6-311++G(d,p) empiricaldispersion=gd3bj scf=xqc pop=npa geom=c
 heck
 ----------------------------------------------------------------------

 ---------------------------------------
 CID_150174762_JID_1157_Energie_neutraal
 ---------------------------------------
 Structure from the checkpoint file:  "JID_1157.chk"
 Charge =  0 Multiplicity = 1

 SCF Done:  E(RB3LYP) =  -550.096513258     A.U. after   15 cycles
 Normal termination of Gaussian 16 at Tue Dec  8 19:30:09 2020.

 ----------------------------------------------------------------------
 # B3LYP/6-311++G(d,p) empiricaldispersion=gd3bj scf=xqc pop=npa geom=c
 heck
 ----------------------------------------------------------------------

 -------------------------------------
 CID_150174762_JID_1157_Energie_kation
 -------------------------------------
 Structure from the checkpoint file:  "JID_1157.chk"
 Charge =  1 Multiplicity = 2

 SCF Done:  E(UB3LYP) =  -549.758395174     A.U. after   26 cycles
 Normal termination of Gaussian 16 at Tue Dec  8 19:34:59 2020.
 Gaussian 16:  ES64L-G16RevA.03 25-Dec-2016

 ----------------------------------------------------------------------
 # B3LYP/6-311++G(d,p) empiricaldispersion=gd3bj scf=xqc pop=npa geom=c
 heck
 ----------------------------------------------------------------------

 ------------------------------------
 CID_150174762_JID_1157_Energie_anion
 ------------------------------------
 Structure from the checkpoint file:  "JID_1157.chk"
 Charge = -1 Multiplicity = 2

                         Standard orientation:
 ---------------------------------------------------------------------
 Center     Atomic      Atomic             Coordinates (Angstroms)
 Number     Number       Type             X           Y           Z
 ---------------------------------------------------------------------
      1          6           0        0.657808    1.663115   -0.275761
      2          6           0       -0.853023    1.490701   -0.501250
      3          6           0       -1.295761    0.683373    0.728613
      4          6           0       -0.178590   -0.362817    0.884783
      5          6           0        1.118213    0.385193    0.493413
      6          6           0        2.050365   -0.495682   -0.331295
      7          8           0        3.225190    0.250265   -0.568699
      8          8           0        2.341946   -1.726442    0.296275
      9          7           0       -2.666683    0.127962    0.663683
     10          7           0       -2.877377   -0.657625   -0.264300
     11          7           0       -3.191664   -1.395625   -1.079500
     12          1           0        0.848958    2.551818    0.334338
     13          1           0        1.214495    1.796377   -1.207018
     14          1           0       -1.393783    2.435467   -0.606385
     15          1           0       -1.043506    0.896042   -1.404976
     16          1           0       -1.320228    1.337625    1.604648
     17          1           0       -0.358569   -1.189092    0.184920
     18          1           0       -0.144435   -0.797857    1.886491
     19          1           0        1.680439    0.678033    1.389384
     20          1           0        1.564826   -0.784575   -1.275046
     21          1           0        3.809983   -0.309694   -1.104502
     22          1           0        2.760741   -1.511012    1.147347
 ---------------------------------------------------------------------

 SCF Done:  E(UB3LYP) =  -550.086786407     A.U. after   30 cycles

 The electronic state is 2-A.
 Alpha  occ. eigenvalues --  -19.02476 -19.02472 -14.34568 -14.24722 -14.23352
 Alpha  occ. eigenvalues --  -10.16413 -10.10318 -10.06944 -10.06432 -10.06242
 Alpha  occ. eigenvalues --  -10.06073  -1.01224  -0.96364  -0.89417  -0.85567
 Alpha  occ. eigenvalues --   -0.73888  -0.64057  -0.61431  -0.55268  -0.51077
 Alpha  occ. eigenvalues --   -0.47433  -0.43557  -0.42148  -0.40140  -0.38723
 Alpha  occ. eigenvalues --   -0.38076  -0.35443  -0.33855  -0.32730  -0.31881
 Alpha  occ. eigenvalues --   -0.31290  -0.29297  -0.26528  -0.25297  -0.24111
 Alpha  occ. eigenvalues --   -0.23615  -0.23287  -0.21678  -0.20900  -0.17863
 Alpha  occ. eigenvalues --   -0.17784  -0.13180   0.04709
 Alpha virt. eigenvalues --    0.06629   0.07616   0.08092   0.09686   0.10358
 Alpha virt. eigenvalues --    0.10775   0.11621   0.12225   0.12992   0.13244
 Alpha virt. eigenvalues --    0.13877   0.15052   0.16186   0.16909   0.18127

  Beta  occ. eigenvalues --  -19.02437 -19.02436 -14.34364 -14.24450 -14.23394
  Beta  occ. eigenvalues --  -10.16404 -10.10248 -10.06923 -10.06424 -10.06226
  Beta  occ. eigenvalues --  -10.06062  -1.00831  -0.96297  -0.89332  -0.85377
  Beta  occ. eigenvalues --   -0.73830  -0.63955  -0.61368  -0.55162  -0.50963
  Beta  occ. eigenvalues --   -0.47373  -0.43456  -0.41926  -0.39947  -0.38294
  Beta  occ. eigenvalues --   -0.37900  -0.35134  -0.33674  -0.32462  -0.31823
  Beta  occ. eigenvalues --   -0.31058  -0.29107  -0.26481  -0.25229  -0.24063
  Beta  occ. eigenvalues --   -0.23554  -0.23233  -0.21627  -0.20843  -0.17741
  Beta  occ. eigenvalues --   -0.17389  -0.13107
  Beta virt. eigenvalues --    0.07488   0.08163   0.08662   0.09433   0.10062
  Beta virt. eigenvalues --    0.10818   0.11271   0.11884   0.12527   0.13371
  Beta virt. eigenvalues --    0.13590   0.14106   0.15155   0.16271   0.17102

 Mulliken charges and spin densities:
               1          2
     1  C   -0.383170  -0.115388
     2  C    0.550919  -0.908808
     3  C   -0.685904   0.418405
     4  C    0.303003  -0.805842
     5  C   -0.223307   0.595010
     6  C    1.176969  -1.813738
     7  O   -0.290407   0.060084
     8  O   -0.220619   0.024782
     9  N   -0.317316   0.191141
    10  N    0.543589  -0.066589
    11  N   -0.307833   0.054236
    12  H   -0.141970   0.289604
    13  H    0.001299   0.180059
    14  H   -0.003051   0.157896
    15  H    0.120492   0.017663
    16  H   -0.561144   0.805854
    17  H    0.112338   0.105445
    18  H   -0.011824   0.183142
    19  H   -0.394922   0.627878
    20  H    0.094357   0.107814
    21  H   -0.231720   0.496051
    22  H   -0.129779   0.395301
 Sum of Mulliken charges =  -1.00000   1.00000

 Dipole moment (field-independent basis, Debye):
    X=             -1.6888    Y=              0.2045    Z=             -2.2190  Tot=              2.7960
 Quadrupole moment (field-independent basis, Debye-Ang):
   XX=           -129.7710   YY=            -98.2136   ZZ=            -94.0858
   XY=             -0.7284   XZ=             -0.1016   YZ=             -5.2471

 Summary of Natural Population Analysis:

                                       Natural Population
                Natural  -----------------------------------------------
    Atom  No    Charge         Core      Valence    Rydberg      Total
 -----------------------------------------------------------------------
      C    1   -0.18937      0.99962     2.18087    0.00888     3.18937
      C    2   -0.19700      0.99961     2.18835    0.00904     3.19700
      C    3   -0.01255      0.99953     1.99902    0.01400     3.01255
      C    4   -0.19564      0.99960     2.18510    0.01094     3.19564
      C    5   -0.12855      0.99957     2.11544    0.01354     3.12855
      C    6    0.21908      0.99957     1.76279    0.01856     2.78092
      O    7   -0.37252      0.99989     3.36634    0.00629     4.37252
      O    8   -0.37229      0.99990     3.36589    0.00651     4.37229
      N    9   -0.19406      0.99969     2.68010    0.01426     3.69406
      N   10    0.12925      0.99970     2.35491    0.01614     3.37075
      N   11   -0.03451      0.99982     2.52095    0.01374     3.53451
      H   12    0.10141      0.00000     0.39741    0.00118     0.39859
      H   13    0.10509      0.00000     0.39381    0.00110     0.39491
      H   14    0.10294      0.00000     0.39606    0.00100     0.39706
      H   15    0.09404      0.00000     0.40462    0.00134     0.40596
      H   16    0.10003      0.00000     0.39718    0.00280     0.39997
      H   17    0.10000      0.00000     0.39856    0.00144     0.40000
      H   18    0.10769      0.00000     0.39117    0.00113     0.39231
      H   19    0.10499      0.00000     0.39230    0.00271     0.39501
      H   20    0.06761      0.00000     0.43069    0.00170     0.43239
      H   21    0.23390      0.00000     0.25885    0.00724     0.26610
      H   22    0.23048      0.00000     0.26432    0.00519     0.26952
 =======================================================================
   * Total *    0.00000     10.99651    30.84474    0.15875    42.00000

 Normal termination of Gaussian 16 at Tue Dec  8 19:40:36 2020.
