 Gaussian 16, Revision A.03,

 -----------------------------------------------------------
 # opt freq B3LYP/6-31G(d) empiricaldispersion=gd3bj scf=xqc
 -----------------------------------------------------------

 -------------------------------
 CID_153395770_JID_1238_neutraal
 -------------------------------
 Symbolic Z-matrix:
 Charge =  0 Multiplicity = 1

 SCF Done:  E(RB3LYP) =  -531.449231991     A.U. after   16 cycles
 SCF Done:  E(RB3LYP) =  -531.456569497     A.U. after   12 cycles
 SCF Done:  E(RB3LYP) =  -531.458839677     A.U. after   12 cycles
 SCF Done:  E(RB3LYP) =  -531.459839914     A.U. after   13 cycles
 SCF Done:  E(RB3LYP) =  -531.460725423     A.U. after   13 cycles
 SCF Done:  E(RB3LYP) =  -531.461589949     A.U. after   12 cycles
 SCF Done:  E(RB3LYP) =  -531.462861654     A.U. after   13 cycles
 SCF Done:  E(RB3LYP) =  -531.462179476     A.U. after   13 cycles
 SCF Done:  E(RB3LYP) =  -531.463562814     A.U. after   12 cycles
 SCF Done:  E(RB3LYP) =  -531.463617871     A.U. after   11 cycles
 SCF Done:  E(RB3LYP) =  -531.463632455     A.U. after    9 cycles
 SCF Done:  E(RB3LYP) =  -531.463633637     A.U. after    9 cycles
 SCF Done:  E(RB3LYP) =  -531.463633788     A.U. after    7 cycles
 Optimization completed.
    -- Stationary point found.
 Normal termination of Gaussian 16 at Tue Dec  8 19:31:11 2020.

 --------------------------------------------------------------------
 #N Geom=AllCheck Guess=TCheck SCRF=Check GenChk RB3LYP/6-31G(d) Freq
 --------------------------------------------------------------------

 Structure from the checkpoint file:  "JID_1238.chk"
 -------------------------------
 CID_153395770_JID_1238_neutraal
 -------------------------------
 Charge =  0 Multiplicity = 1

 SCF Done:  E(RB3LYP) =  -531.463633788     A.U. after    1 cycles

  Exact polarizability:  93.148  -6.397 106.738  -2.481   2.171  55.646
 Approx polarizability: 125.293 -22.591 193.004  -2.702  11.624  92.109

                      1                      2                      3
                      A                      A                      A
 Frequencies --     61.1538                94.4352               191.8552
 Red. masses --      8.7957                 3.8908                 3.9868
 Frc consts  --      0.0194                 0.0204                 0.0865
 IR Inten    --      0.6504                 0.3304                 1.3115

                      4                      5                      6
                      A                      A                      A
 Frequencies --    199.5031               245.8870               347.6946
 Red. masses --      4.4381                 3.4960                 2.6291
 Frc consts  --      0.1041                 0.1245                 0.1873
 IR Inten    --      0.7552                 7.5826                 1.8507

                      7                      8                      9
                      A                      A                      A
 Frequencies --    402.0640               445.3952               495.1043
 Red. masses --      4.8335                 3.5222                 2.4597
 Frc consts  --      0.4604                 0.4117                 0.3552
 IR Inten    --      3.9724                 9.3518                 3.8052

                     10                     11                     12
                      A                      A                      A
 Frequencies --    516.0105               614.1158               647.1517
 Red. masses --      4.3350                 1.4251                 4.0696
 Frc consts  --      0.6801                 0.3167                 1.0042
 IR Inten    --      0.8633                84.2316                61.9809

                     13                     14                     15
                      A                      A                      A
 Frequencies --    668.5088               713.0702               730.4926
 Red. masses --      1.7805                 4.0959                 2.2076
 Frc consts  --      0.4688                 1.2271                 0.6941
 IR Inten    --     15.8931                29.2932                69.7076

                     16                     17                     18
                      A                      A                      A
 Frequencies --    756.7538               765.1662               807.3910
 Red. masses --      3.1139                 2.6611                 3.2072
 Frc consts  --      1.0507                 0.9180                 1.2318
 IR Inten    --     13.6424                14.1196                 6.6159

                     19                     20                     21
                      A                      A                      A
 Frequencies --    844.0824               872.3850               902.4581
 Red. masses --      4.6625                 4.2396                 1.3060
 Frc consts  --      1.9572                 1.9010                 0.6267
 IR Inten    --      5.5971                 5.3667                 5.7052

                     22                     23                     24
                      A                      A                      A
 Frequencies --    967.9858               974.2060               990.6381
 Red. masses --      2.1239                 2.1345                 2.2003
 Frc consts  --      1.1725                 1.1936                 1.2722
 IR Inten    --     12.3934                11.2648                 0.8678

                     25                     26                     27
                      A                      A                      A
 Frequencies --   1034.4323              1051.7735              1119.1370
 Red. masses --      2.1848                 2.2449                 3.2435
 Frc consts  --      1.3774                 1.4631                 2.3935
 IR Inten    --      5.6862                 3.5439                31.7377

                     28                     29                     30
                      A                      A                      A
 Frequencies --   1134.3436              1145.9396              1157.3508
 Red. masses --      1.6296                 2.6415                 1.9566
 Frc consts  --      1.2354                 2.0438                 1.5441
 IR Inten    --      6.7069               226.7086                36.8718

                     31                     32                     33
                      A                      A                      A
 Frequencies --   1215.0791              1242.6074              1289.4502
 Red. masses --      1.7423                 1.2737                 1.4295
 Frc consts  --      1.5156                 1.1587                 1.4004
 IR Inten    --    143.3151                16.5310                10.4124

                     34                     35                     36
                      A                      A                      A
 Frequencies --   1336.7088              1347.8052              1352.7707
 Red. masses --      1.3689                 1.7219                 1.9244
 Frc consts  --      1.4411                 1.8430                 2.0749
 IR Inten    --     22.9652                22.4814                 3.7708

                     37                     38                     39
                      A                      A                      A
 Frequencies --   1375.1053              1431.5929              1525.3697
 Red. masses --      1.9177                 3.8313                 1.0974
 Frc consts  --      2.1365                 4.6263                 1.5044
 IR Inten    --      3.8954                56.7735                 1.5974

                     40                     41                     42
                      A                      A                      A
 Frequencies --   1542.0497              1676.7726              1691.4409
 Red. masses --      1.0947                 6.8687                 6.5843
 Frc consts  --      1.5337                11.3781                11.0988
 IR Inten    --      1.6626                64.7492                15.1953

                     43                     44                     45
                      A                      A                      A
 Frequencies --   1820.1262              3018.9045              3032.0918
 Red. masses --      9.7273                 1.0695                 1.0738
 Frc consts  --     18.9865                 5.7428                 5.8166
 IR Inten    --    292.8898                62.6948                56.7466

                     46                     47                     48
                      A                      A                      A
 Frequencies --   3083.7675              3154.5684              3237.3798
 Red. masses --      1.0947                 1.0912                 1.0900
 Frc consts  --      6.1336                 6.3980                 6.7305
 IR Inten    --     23.3560                 3.5803                 3.4579

                     49                     50                     51
                      A                      A                      A
 Frequencies --   3268.2656              3280.6383              3695.8717
 Red. masses --      1.1034                 1.0958                 1.0641
 Frc consts  --      6.9442                 6.9485                 8.5640
 IR Inten    --      5.4559                 0.1874                69.5662

 - Thermochemistry -
 -------------------
 Temperature   298.150 Kelvin.  Pressure   1.00000 Atm.
 Atom     1 has atomic number  6 and mass  12.00000

 Molecular mass:   152.05858 amu.
 Principal axes and moments of inertia in atomic units:
                           1         2         3
     Eigenvalues --   880.755861796.512072387.75430
           X            0.99998   0.00524  -0.00445
           Y           -0.00527   0.99997  -0.00538
           Z            0.00442   0.00541   0.99998
 This molecule is an asymmetric top.
 Rotational symmetry number  1.
 Warning -- assumption of classical behavior for rotation
           may cause significant error
 Rotational temperatures (Kelvin)      0.09834     0.04821     0.03627
 Rotational constants (GHZ):           2.04908     1.00458     0.75583
 Zero-point vibrational energy     391865.8 (Joules/Mol)
                                   93.65818 (Kcal/Mol)
 Warning -- explicit consideration of  11 degrees of freedom as
           vibrations may cause significant error
 Vibrational temperatures:     87.99   135.87   276.04   287.04   353.78
          (Kelvin)            500.25   578.48   640.82   712.34   742.42
                              883.58   931.11   961.84  1025.95  1051.02
                             1088.80  1100.90  1161.66  1214.45  1255.17
                             1298.44  1392.72  1401.67  1425.31  1488.32
                             1513.27  1610.19  1632.07  1648.75  1665.17
                             1748.23  1787.83  1855.23  1923.23  1939.19
                             1946.34  1978.47  2059.74  2194.67  2218.67
                             2412.50  2433.61  2618.76  4343.53  4362.50
                             4436.85  4538.72  4657.87  4702.31  4720.11
                             5317.54

 Zero-point correction=                           0.149254 (Hartree/Particle)
 Thermal correction to Energy=                    0.158077
 Thermal correction to Enthalpy=                  0.159021
 Thermal correction to Gibbs Free Energy=         0.114936
 Sum of electronic and zero-point Energies=           -531.314380
 Sum of electronic and thermal Energies=              -531.305557
 Sum of electronic and thermal Enthalpies=            -531.304613
 Sum of electronic and thermal Free Energies=         -531.348698

                     E (Thermal)             CV                S
                      KCal/Mol        Cal/Mol-Kelvin    Cal/Mol-Kelvin
 Total                   99.195             34.553             92.786
 Electronic               0.000              0.000              0.000
 Translational            0.889              2.981             40.967
 Rotational               0.889              2.981             29.714
 Vibrational             97.417             28.591             22.104
 Vibration     1          0.597              1.973              4.420
 Vibration     2          0.603              1.953              3.566
 Vibration     3          0.634              1.851              2.210
 Vibration     4          0.638              1.841              2.138
 Vibration     5          0.660              1.770              1.760
 Vibration     6          0.725              1.580              1.177
 Vibration     7          0.768              1.466              0.955
 Vibration     8          0.805              1.371              0.810
 Vibration     9          0.851              1.261              0.670
 Vibration    10          0.871              1.215              0.619
 Vibration    11          0.974              1.002              0.426

                           ! Non-Optimized Parameters !
 Normal termination of Gaussian 16 at Tue Dec  8 19:35:04 2020.

 ----------------------------------------------------------------------
 # B3LYP/6-311++G(d,p) empiricaldispersion=gd3bj scf=xqc pop=npa geom=c
 heck
 ----------------------------------------------------------------------

 ---------------------------------------
 CID_153395770_JID_1238_Energie_neutraal
 ---------------------------------------
 Structure from the checkpoint file:  "JID_1238.chk"
 Charge =  0 Multiplicity = 1

 SCF Done:  E(RB3LYP) =  -531.620807801     A.U. after   15 cycles
 Normal termination of Gaussian 16 at Tue Dec  8 19:36:26 2020.

 ----------------------------------------------------------------------
 # B3LYP/6-311++G(d,p) empiricaldispersion=gd3bj scf=xqc pop=npa geom=c
 heck
 ----------------------------------------------------------------------

 -------------------------------------
 CID_153395770_JID_1238_Energie_kation
 -------------------------------------
 Structure from the checkpoint file:  "JID_1238.chk"
 Charge =  1 Multiplicity = 2

 SCF Done:  E(UB3LYP) =  -531.344437626     A.U. after   23 cycles
 Normal termination of Gaussian 16 at Tue Dec  8 19:39:50 2020.
 Gaussian 16:  ES64L-G16RevA.03 25-Dec-2016

 ----------------------------------------------------------------------
 # B3LYP/6-311++G(d,p) empiricaldispersion=gd3bj scf=xqc pop=npa geom=c
 heck
 ----------------------------------------------------------------------

 ------------------------------------
 CID_153395770_JID_1238_Energie_anion
 ------------------------------------
 Structure from the checkpoint file:  "JID_1238.chk"
 Charge = -1 Multiplicity = 2

                         Standard orientation:
 ---------------------------------------------------------------------
 Center     Atomic      Atomic             Coordinates (Angstroms)
 Number     Number       Type             X           Y           Z
 ---------------------------------------------------------------------
      1          6           0       -0.805626   -1.668830   -0.251395
      2          6           0       -1.879123   -1.379654    0.770596
      3          6           0       -2.316034   -0.134896    0.567398
      4          7           0       -1.663598    0.511076   -0.514097
      5          7           0       -0.464483   -0.317063   -0.769621
      6          6           0        0.588166    0.394422   -0.134877
      7          6           0        0.254742    1.660255    0.167303
      8          6           0       -1.166932    1.883628   -0.270965
      9          6           0        1.922400   -0.220003   -0.001725
     10          8           0        2.230327   -1.331677   -0.383268
     11          8           0        2.802934    0.605247    0.618559
     12          1           0        0.092141   -2.159282    0.125794
     13          1           0       -1.188629   -2.268813   -1.088450
     14          1           0       -2.286158   -2.099665    1.467224
     15          1           0       -3.126637    0.394191    1.054575
     16          1           0        0.923947    2.414639    0.554679
     17          1           0       -1.212238    2.459147   -1.207142
     18          1           0       -1.799866    2.393311    0.464062
     19          1           0        3.642366    0.110291    0.654947
 ---------------------------------------------------------------------

 SCF Done:  E(UB3LYP) =  -531.615877352     A.U. after   33 cycles
 SCF Done:  E(UB3LYP) =  -531.615877352     a.u. after    1 cycles

 The electronic state is 2-A.
 Alpha  occ. eigenvalues --  -19.01719 -18.94334 -14.21693 -14.20654 -10.12578
 Alpha  occ. eigenvalues --  -10.07235 -10.07114 -10.06879 -10.04468 -10.03464
 Alpha  occ. eigenvalues --  -10.00635  -0.95358  -0.88315  -0.85903  -0.70257
 Alpha  occ. eigenvalues --   -0.68752  -0.60588  -0.56303  -0.50547  -0.46300
 Alpha  occ. eigenvalues --   -0.44881  -0.42108  -0.37539  -0.35554  -0.33455
 Alpha  occ. eigenvalues --   -0.32608  -0.30488  -0.29551  -0.28922  -0.27953
 Alpha  occ. eigenvalues --   -0.26229  -0.25552  -0.25049  -0.23701  -0.19779
 Alpha  occ. eigenvalues --   -0.18071  -0.16137  -0.12808  -0.09840  -0.05806
 Alpha  occ. eigenvalues --    0.05754
 Alpha virt. eigenvalues --    0.07932   0.09258   0.09592   0.10688   0.11433
 Alpha virt. eigenvalues --    0.12112   0.13116   0.13567   0.14635   0.16463
 Alpha virt. eigenvalues --    0.16859   0.17700   0.17979   0.19317   0.19919

  Beta  occ. eigenvalues --  -19.01663 -18.94003 -14.21691 -14.20636 -10.12224
  Beta  occ. eigenvalues --  -10.07255 -10.07098 -10.06876 -10.04394 -10.03460
  Beta  occ. eigenvalues --  -10.00247  -0.95023  -0.88268  -0.85422  -0.70170
  Beta  occ. eigenvalues --   -0.68557  -0.60234  -0.56061  -0.50131  -0.45934
  Beta  occ. eigenvalues --   -0.44781  -0.41941  -0.37349  -0.35346  -0.33121
  Beta  occ. eigenvalues --   -0.32351  -0.29945  -0.29002  -0.28345  -0.27788
  Beta  occ. eigenvalues --   -0.26129  -0.25416  -0.24915  -0.23440  -0.19664
  Beta  occ. eigenvalues --   -0.17107  -0.15236  -0.12498  -0.09172  -0.05059
  Beta virt. eigenvalues --    0.08591   0.09474   0.09665   0.10969   0.11553
  Beta virt. eigenvalues --    0.12034   0.12332   0.13122   0.13471   0.14745
  Beta virt. eigenvalues --    0.16416   0.16857   0.17698   0.17908   0.19417

 Mulliken charges and spin densities:
               1          2
     1  C   -0.419694  -0.062974
     2  C    0.477590  -0.663529
     3  C    0.206862  -0.329220
     4  N   -0.025677   0.059112
     5  N    0.128405   0.047333
     6  C   -0.197269  -0.201380
     7  C   -0.215864   0.718931
     8  C    0.066648  -0.616637
     9  C    0.055638   0.244519
    10  O   -0.429914   0.113648
    11  O   -0.222479   0.011607
    12  H    0.208398  -0.029129
    13  H    0.114948   0.019968
    14  H   -0.227066   0.367116
    15  H   -0.846603   0.998072
    16  H    0.120493   0.018947
    17  H    0.023377   0.128883
    18  H   -0.061789   0.170231
    19  H    0.243998   0.004501
 Sum of Mulliken charges =  -1.00000   1.00000

 Dipole moment (field-independent basis, Debye):
    X=              2.1352    Y=              0.1894    Z=             -0.7566  Tot=              2.2732
 Quadrupole moment (field-independent basis, Debye-Ang):
   XX=            -99.1040   YY=            -82.4903   ZZ=            -84.8822
   XY=              4.3167   XZ=              8.1853   YZ=             -2.4353

 Summary of Natural Population Analysis:

                                       Natural Population
                Natural  -----------------------------------------------
    Atom  No    Charge         Core      Valence    Rydberg      Total
 -----------------------------------------------------------------------
      C    1   -0.10113      0.99962     2.08967    0.01184     3.10113
      C    2   -0.15041      0.99953     2.14114    0.00974     3.15041
      C    3    0.00180      0.99950     1.98532    0.01338     2.99820
      N    4   -0.17154      0.99972     2.65759    0.01423     3.67154
      N    5   -0.15990      0.99971     2.64776    0.01243     3.65990
      C    6    0.02585      0.99940     1.96109    0.01366     2.97415
      C    7   -0.03753      0.99949     2.02814    0.00990     3.03753
      C    8   -0.10092      0.99962     2.08885    0.01245     3.10092
      C    9    0.42865      0.99964     1.54752    0.02419     2.57135
      O   10   -0.30122      0.99987     3.29544    0.00590     4.30122
      O   11   -0.35133      0.99988     3.34509    0.00636     4.35133
      H   12    0.11343      0.00000     0.38527    0.00131     0.38657
      H   13    0.08632      0.00000     0.41233    0.00136     0.41368
      H   14    0.10141      0.00000     0.39756    0.00103     0.39859
      H   15    0.09883      0.00000     0.39829    0.00288     0.40117
      H   16    0.10172      0.00000     0.39727    0.00101     0.39828
      H   17    0.09255      0.00000     0.40610    0.00136     0.40745
      H   18    0.09529      0.00000     0.40325    0.00146     0.40471
      H   19    0.22815      0.00000     0.26747    0.00438     0.27185
 =======================================================================
   * Total *    0.00000     10.99598    28.85516    0.14886    40.00000

 Normal termination of Gaussian 16 at Tue Dec  8 19:44:48 2020.
