 Gaussian 16, Revision A.03,

 -----------------------------------------------------------
 # opt freq B3LYP/6-31G(d) empiricaldispersion=gd3bj scf=xqc
 -----------------------------------------------------------

 -------------------------------
 CID_103033872_JID_2253_neutraal
 -------------------------------
 Symbolic Z-matrix:
 Charge =  0 Multiplicity = 1

 SCF Done:  E(RB3LYP) =  -575.687176274     A.U. after   14 cycles
 SCF Done:  E(RB3LYP) =  -575.684258051     A.U. after   13 cycles
 SCF Done:  E(RB3LYP) =  -575.689646459     A.U. after   12 cycles
 SCF Done:  E(RB3LYP) =  -575.690699721     A.U. after   12 cycles
 SCF Done:  E(RB3LYP) =  -575.690600828     A.U. after   12 cycles
 SCF Done:  E(RB3LYP) =  -575.691238717     A.U. after   12 cycles
 SCF Done:  E(RB3LYP) =  -575.691110278     A.U. after   12 cycles
 SCF Done:  E(RB3LYP) =  -575.691367643     A.U. after   11 cycles
 SCF Done:  E(RB3LYP) =  -575.691412092     A.U. after   11 cycles
 SCF Done:  E(RB3LYP) =  -575.691438272     A.U. after   11 cycles
 SCF Done:  E(RB3LYP) =  -575.692281996     A.U. after   11 cycles
 SCF Done:  E(RB3LYP) =  -575.692296836     A.U. after   11 cycles
 SCF Done:  E(RB3LYP) =  -575.692291643     A.U. after   10 cycles
 SCF Done:  E(RB3LYP) =  -575.692297470     A.U. after   10 cycles
 SCF Done:  E(RB3LYP) =  -575.692296819     A.U. after    8 cycles
 SCF Done:  E(RB3LYP) =  -575.692297500     A.U. after    8 cycles
 Optimization completed.
    -- Stationary point found.
 Normal termination of Gaussian 16 at Wed Dec  9 17:14:10 2020.

 --------------------------------------------------------------------
 #N Geom=AllCheck Guess=TCheck SCRF=Check GenChk RB3LYP/6-31G(d) Freq
 --------------------------------------------------------------------

 Structure from the checkpoint file:  "JID_2253.chk"
 -------------------------------
 CID_103033872_JID_2253_neutraal
 -------------------------------
 Charge =  0 Multiplicity = 1

 SCF Done:  E(RB3LYP) =  -575.692297500     A.U. after    2 cycles

  Exact polarizability: 114.593  -3.499 104.964   3.010  -1.341  87.075
 Approx polarizability: 147.539  -5.064 144.989  12.112  -3.388 136.295

                      1                      2                      3
                      A                      A                      A
 Frequencies --     47.4992                55.6486                99.2777
 Red. masses --      4.9537                 4.8004                 3.4255
 Frc consts  --      0.0066                 0.0088                 0.0199
 IR Inten    --      2.4805                 3.3236                 1.2787

                      4                      5                      6
                      A                      A                      A
 Frequencies --    133.7073               157.3061               173.0946
 Red. masses --      3.6398                 3.8585                 2.2137
 Frc consts  --      0.0383                 0.0563                 0.0391
 IR Inten    --      0.7829                 7.2574                 4.0930

                      7                      8                      9
                      A                      A                      A
 Frequencies --    224.0395               257.5491               265.5604
 Red. masses --      1.4211                 1.0614                 2.1345
 Frc consts  --      0.0420                 0.0415                 0.0887
 IR Inten    --      1.8749                 0.5644                20.8840

                     10                     11                     12
                      A                      A                      A
 Frequencies --    270.4352               285.9788               304.3609
 Red. masses --      1.7081                 2.9264                 1.9010
 Frc consts  --      0.0736                 0.1410                 0.1038
 IR Inten    --     13.9577                10.0342                 2.0540

                     13                     14                     15
                      A                      A                      A
 Frequencies --    319.0946               329.5721               346.1462
 Red. masses --      1.7548                 1.6602                 1.5296
 Frc consts  --      0.1053                 0.1062                 0.1080
 IR Inten    --      9.6375                14.8879                 1.1759

                     16                     17                     18
                      A                      A                      A
 Frequencies --    357.8457               407.4800               430.9739
 Red. masses --      2.2853                 2.4689                 3.0055
 Frc consts  --      0.1724                 0.2415                 0.3289
 IR Inten    --      5.5872                 0.1377                19.4947

                     19                     20                     21
                      A                      A                      A
 Frequencies --    482.0298               496.0707               503.7953
 Red. masses --      2.4280                 1.6271                 1.9518
 Frc consts  --      0.3324                 0.2359                 0.2919
 IR Inten    --     19.2883               127.2793               117.6128

                     22                     23                     24
                      A                      A                      A
 Frequencies --    584.9971               638.3846               678.1170
 Red. masses --      2.6900                 2.9749                 1.2783
 Frc consts  --      0.5424                 0.7143                 0.3463
 IR Inten    --      2.4191                 6.5905                25.2918

                     25                     26                     27
                      A                      A                      A
 Frequencies --    706.3425               752.4588               777.1600
 Red. masses --      3.3245                 2.4760                 3.2230
 Frc consts  --      0.9772                 0.8260                 1.1469
 IR Inten    --      8.9438                 6.3048                 2.7928

                     28                     29                     30
                      A                      A                      A
 Frequencies --    835.3990               857.1810               934.4659
 Red. masses --      2.5961                 2.0737                 1.8046
 Frc consts  --      1.0675                 0.8977                 0.9285
 IR Inten    --     19.8371                12.8570                33.5004

                     31                     32                     33
                      A                      A                      A
 Frequencies --    948.9195               972.3690               994.1730
 Red. masses --      1.4892                 1.9123                 1.9386
 Frc consts  --      0.7900                 1.0653                 1.1289
 IR Inten    --      7.8288                88.4444                29.1317

                     34                     35                     36
                      A                      A                      A
 Frequencies --   1025.5279              1063.2319              1085.2761
 Red. masses --      1.3725                 1.8086                 2.3997
 Frc consts  --      0.8505                 1.2046                 1.6653
 IR Inten    --     15.5225                 7.6343                 0.8418

                     37                     38                     39
                      A                      A                      A
 Frequencies --   1107.4387              1138.7416              1159.0070
 Red. masses --      4.4680                 1.7970                 1.7090
 Frc consts  --      3.2285                 1.3729                 1.3526
 IR Inten    --    115.1650                10.1840                11.7368

                     40                     41                     42
                      A                      A                      A
 Frequencies --   1171.3924              1173.4707              1188.9115
 Red. masses --      1.7659                 1.7453                 1.2925
 Frc consts  --      1.4277                 1.4160                 1.0764
 IR Inten    --      6.5023                22.6437                 2.4690

                     43                     44                     45
                      A                      A                      A
 Frequencies --   1221.3152              1245.4368              1259.2103
 Red. masses --      1.4516                 2.0286                 1.6499
 Frc consts  --      1.2758                 1.8539                 1.5414
 IR Inten    --      7.0489                17.2381                15.7057

                     46                     47                     48
                      A                      A                      A
 Frequencies --   1294.9044              1304.0212              1344.1349
 Red. masses --      2.4103                 1.7011                 1.2943
 Frc consts  --      2.3812                 1.7043                 1.3778
 IR Inten    --     13.2836                91.8616                 8.1579

                     49                     50                     51
                      A                      A                      A
 Frequencies --   1391.6528              1396.5366              1415.9624
 Red. masses --      1.6969                 1.4169                 1.4006
 Frc consts  --      1.9363                 1.6281                 1.6545
 IR Inten    --     20.2216                 8.8185                 0.6881

                     52                     53                     54
                      A                      A                      A
 Frequencies --   1428.8550              1448.5211              1451.0815
 Red. masses --      1.2874                 1.2810                 1.5025
 Frc consts  --      1.5486                 1.5836                 1.8640
 IR Inten    --      9.4830                16.0321                 2.6560

                     55                     56                     57
                      A                      A                      A
 Frequencies --   1500.6619              1506.7164              1509.4378
 Red. masses --      1.1251                 1.0694                 1.0817
 Frc consts  --      1.4928                 1.4304                 1.4521
 IR Inten    --      1.3787                 0.7711                 4.3417

                     58                     59                     60
                      A                      A                      A
 Frequencies --   1515.1787              1524.2289              1525.2935
 Red. masses --      1.0516                 1.0746                 1.0564
 Frc consts  --      1.4224                 1.4710                 1.4481
 IR Inten    --      1.0337                12.8334                 0.9714

                     61                     62                     63
                      A                      A                      A
 Frequencies --   1535.7526              1541.6137              1550.9870
 Red. masses --      1.0548                 1.0575                 1.0512
 Frc consts  --      1.4658                 1.4807                 1.4898
 IR Inten    --      6.3975                 6.3116                 1.3860

                     64                     65                     66
                      A                      A                      A
 Frequencies --   1669.8399              1709.7583              1801.9038
 Red. masses --      1.2051                 1.0851                 8.9320
 Frc consts  --      1.9798                 1.8689                17.0868
 IR Inten    --     57.0493                26.9863               282.8152

                     67                     68                     69
                      A                      A                      A
 Frequencies --   3020.8353              3041.8093              3052.3778
 Red. masses --      1.0388                 1.0630                 1.0619
 Frc consts  --      5.5854                 5.7950                 5.8295
 IR Inten    --     32.1885                15.7622                18.5030

                     70                     71                     72
                      A                      A                      A
 Frequencies --   3057.9776              3069.0117              3076.5691
 Red. masses --      1.0379                 1.0381                 1.1006
 Frc consts  --      5.7185                 5.7607                 6.1379
 IR Inten    --     23.1954                 7.5144                16.0143

                     73                     74                     75
                      A                      A                      A
 Frequencies --   3088.2521              3090.1693              3108.0674
 Red. masses --      1.0853                 1.0961                 1.0974
 Frc consts  --      6.0987                 6.1669                 6.2456
 IR Inten    --     48.0375                32.8105                37.5442

                     76                     77                     78
                      A                      A                      A
 Frequencies --   3123.4810              3128.8151              3130.4650
 Red. masses --      1.1026                 1.1034                 1.1021
 Frc consts  --      6.3378                 6.3642                 6.3635
 IR Inten    --     36.4745                10.2754                16.3207

                     79                     80                     81
                      A                      A                      A
 Frequencies --   3137.3460              3156.3291              3441.4262
 Red. masses --      1.1023                 1.1002                 1.0504
 Frc consts  --      6.3928                 6.4580                 7.3296
 IR Inten    --     43.8349                21.1174                 2.3896

                     82                     83                     84
                      A                      A                      A
 Frequencies --   3522.2296              3531.1438              3670.3784
 Red. masses --      1.0899                 1.0473                 1.1032
 Frc consts  --      7.9669                 7.6941                 8.7564
 IR Inten    --      0.5491               128.0685                86.1915

 - Thermochemistry -
 -------------------
 Temperature   298.150 Kelvin.  Pressure   1.00000 Atm.
 Atom     1 has atomic number  6 and mass  12.00000

 Molecular mass:   174.13683 amu.
 Principal axes and moments of inertia in atomic units:
                           1         2         3
     Eigenvalues --  1296.685732889.373673515.83340
           X            0.99983  -0.01371  -0.01243
           Y            0.01371   0.99991  -0.00023
           Z            0.01243   0.00006   0.99992
 This molecule is an asymmetric top.
 Rotational symmetry number  1.
 Warning -- assumption of classical behavior for rotation
           may cause significant error
 Rotational temperatures (Kelvin)      0.06680     0.02998     0.02464
 Rotational constants (GHZ):           1.39181     0.62461     0.51332
 Zero-point vibrational energy     707472.2 (Joules/Mol)
                                  169.08992 (Kcal/Mol)
 Warning -- explicit consideration of  22 degrees of freedom as
           vibrations may cause significant error
 Vibrational temperatures:     68.34    80.07   142.84   192.37   226.33
          (Kelvin)            249.04   322.34   370.56   382.08   389.10
                              411.46   437.91   459.11   474.18   498.03
                              514.86   586.27   620.08   693.53   713.74
                              724.85   841.68   918.49   975.66  1016.27
                             1082.62  1118.16  1201.95  1233.29  1344.49
                             1365.28  1399.02  1430.39  1475.51  1529.75
                             1561.47  1593.36  1638.40  1667.55  1685.37
                             1688.36  1710.58  1757.20  1791.91  1811.72
                             1863.08  1876.20  1933.91  2002.28  2009.30
                             2037.25  2055.80  2084.10  2087.78  2159.12
                             2167.83  2171.74  2180.00  2193.03  2194.56
                             2209.61  2218.04  2231.52  2402.53  2459.96
                             2592.54  4346.31  4376.49  4391.69  4399.75
                             4415.62  4426.50  4443.31  4446.06  4471.82
                             4493.99  4501.67  4504.04  4513.94  4541.25
                             4951.44  5067.70  5080.53  5280.86

 Zero-point correction=                           0.269462 (Hartree/Particle)
 Thermal correction to Energy=                    0.283537
 Thermal correction to Enthalpy=                  0.284481
 Thermal correction to Gibbs Free Energy=         0.229708
 Sum of electronic and zero-point Energies=           -575.422836
 Sum of electronic and thermal Energies=              -575.408760
 Sum of electronic and thermal Enthalpies=            -575.407816
 Sum of electronic and thermal Free Energies=         -575.462590

                     E (Thermal)             CV                S
                      KCal/Mol        Cal/Mol-Kelvin    Cal/Mol-Kelvin
 Total                  177.922             53.594            115.280
 Electronic               0.000              0.000              0.000
 Translational            0.889              2.981             41.371
 Rotational               0.889              2.981             30.955
 Vibrational            176.145             47.632             42.954
 Vibration     1          0.595              1.979              4.919
 Vibration     2          0.596              1.975              4.606
 Vibration     3          0.604              1.950              3.468
 Vibration     4          0.613              1.920              2.892
 Vibration     5          0.621              1.894              2.582
 Vibration     6          0.627              1.876              2.402
 Vibration     7          0.649              1.804              1.926
 Vibration     8          0.667              1.750              1.678
 Vibration     9          0.671              1.736              1.625
 Vibration    10          0.674              1.728              1.593
 Vibration    11          0.684              1.700              1.498
 Vibration    12          0.695              1.665              1.393
 Vibration    13          0.705              1.637              1.315
 Vibration    14          0.712              1.616              1.262
 Vibration    15          0.724              1.583              1.184
 Vibration    16          0.733              1.559              1.131
 Vibration    17          0.772              1.454              0.936
 Vibration    18          0.792              1.403              0.855
 Vibration    19          0.838              1.290              0.705
 Vibration    20          0.852              1.259              0.668
 Vibration    21          0.859              1.242              0.649
 Vibration    22          0.942              1.064              0.476

 Optimization completed.
    -- Stationary point found.
 Normal termination of Gaussian 16 at Wed Dec  9 17:22:38 2020.

 ----------------------------------------------------------------------
 # B3LYP/6-311++G(d,p) empiricaldispersion=gd3bj scf=xqc pop=npa geom=c
 heck
 ----------------------------------------------------------------------

 ---------------------------------------
 CID_103033872_JID_2253_Energie_neutraal
 ---------------------------------------
 Structure from the checkpoint file:  "JID_2253.chk"
 Charge =  0 Multiplicity = 1

 SCF Done:  E(RB3LYP) =  -575.877313414     A.U. after   14 cycles
 Normal termination of Gaussian 16 at Wed Dec  9 17:26:50 2020.

 ----------------------------------------------------------------------
 # B3LYP/6-311++G(d,p) empiricaldispersion=gd3bj scf=xqc pop=npa geom=c
 heck
 ----------------------------------------------------------------------

 -------------------------------------
 CID_103033872_JID_2253_Energie_kation
 -------------------------------------
 Structure from the checkpoint file:  "JID_2253.chk"
 Charge =  1 Multiplicity = 2

 SCF Done:  E(UB3LYP) =  -575.557314660     A.U. after   25 cycles
 Normal termination of Gaussian 16 at Wed Dec  9 17:36:36 2020.
 Gaussian 16:  ES64L-G16RevA.03 25-Dec-2016

 ----------------------------------------------------------------------
 # B3LYP/6-311++G(d,p) empiricaldispersion=gd3bj scf=xqc pop=npa geom=c
 heck
 ----------------------------------------------------------------------

 ------------------------------------
 CID_103033872_JID_2253_Energie_anion
 ------------------------------------
 Structure from the checkpoint file:  "JID_2253.chk"
 Charge = -1 Multiplicity = 2

                         Standard orientation:
 ---------------------------------------------------------------------
 Center     Atomic      Atomic             Coordinates (Angstroms)
 Number     Number       Type             X           Y           Z
 ---------------------------------------------------------------------
      1          6           0       -1.730557   -1.580560   -0.981587
      2          6           0       -1.716784   -0.440420    0.037574
      3          6           0       -3.083838   -0.384690    0.735782
      4          6           0       -0.600823   -0.590575    1.104340
      5          6           0        0.711546   -1.280541    0.699208
      6          6           0        1.582793   -0.618035   -0.383003
      7          6           0        2.030650    0.778547    0.077009
      8          8           0        2.988702    0.929620    0.826787
      9          7           0        1.296542    1.806378   -0.433968
     10          7           0        2.729923   -1.492651   -0.641759
     11          8           0       -1.491015    0.756068   -0.767307
     12          6           0       -1.933015    1.987672   -0.219992
     13          1           0       -1.815644   -2.547732   -0.475748
     14          1           0       -0.820802   -1.589650   -1.585517
     15          1           0       -2.584330   -1.463560   -1.655936
     16          1           0       -3.303170   -1.362276    1.175924
     17          1           0       -3.108838    0.352724    1.544593
     18          1           0       -3.879136   -0.150502    0.020384
     19          1           0       -0.392390    0.402256    1.522403
     20          1           0       -1.016266   -1.174588    1.935241
     21          1           0        1.332670   -1.368096    1.600322
     22          1           0        0.514660   -2.303081    0.362079
     23          1           0        1.011377   -0.524676   -1.311720
     24          1           0        0.396145    1.589564   -0.847611
     25          1           0        1.454268    2.732414   -0.059196
     26          1           0        3.241714   -1.129610   -1.446353
     27          1           0        3.369722   -1.371219    0.146259
     28          1           0       -3.024994    2.038284   -0.142719
     29          1           0       -1.497966    2.192174    0.768789
     30          1           0       -1.603601    2.767600   -0.912933
 ---------------------------------------------------------------------

 SCF Done:  E(UB3LYP) =  -575.865565337     A.U. after   31 cycles

 The electronic state is 2-A.
 Alpha  occ. eigenvalues --  -19.02788 -18.99616 -14.23083 -14.20660 -10.17418
 Alpha  occ. eigenvalues --  -10.13578 -10.11238 -10.10587 -10.07591 -10.07162
 Alpha  occ. eigenvalues --  -10.06268 -10.05869  -0.94391  -0.93385  -0.81014
 Alpha  occ. eigenvalues --   -0.79975  -0.71464  -0.66176  -0.60484  -0.59059
 Alpha  occ. eigenvalues --   -0.57698  -0.53057  -0.47580  -0.45577  -0.43478
 Alpha  occ. eigenvalues --   -0.41590  -0.39608  -0.38017  -0.36910  -0.35833
 Alpha  occ. eigenvalues --   -0.35108  -0.34581  -0.32616  -0.31591  -0.30459
 Alpha  occ. eigenvalues --   -0.29990  -0.28899  -0.28112  -0.27510  -0.26675
 Alpha  occ. eigenvalues --   -0.24750  -0.24204  -0.24054  -0.21177  -0.18635
 Alpha  occ. eigenvalues --   -0.17467  -0.16321  -0.15415   0.04440
 Alpha virt. eigenvalues --    0.06820   0.07264   0.08078   0.08607   0.09790
 Alpha virt. eigenvalues --    0.09990   0.10267   0.10586   0.10949   0.12143
 Alpha virt. eigenvalues --    0.12499   0.13286   0.13645   0.13782   0.14202

  Beta  occ. eigenvalues --  -19.02778 -18.99611 -14.23053 -14.20654 -10.17418
  Beta  occ. eigenvalues --  -10.13576 -10.11231 -10.10523 -10.07585 -10.07142
  Beta  occ. eigenvalues --  -10.06248 -10.05822  -0.94382  -0.93368  -0.80982
  Beta  occ. eigenvalues --   -0.79957  -0.71440  -0.66150  -0.60416  -0.59008
  Beta  occ. eigenvalues --   -0.57613  -0.53004  -0.47542  -0.45517  -0.43450
  Beta  occ. eigenvalues --   -0.41558  -0.39571  -0.37989  -0.36865  -0.35785
  Beta  occ. eigenvalues --   -0.35081  -0.34548  -0.32593  -0.31562  -0.30425
  Beta  occ. eigenvalues --   -0.29957  -0.28860  -0.28072  -0.27486  -0.26636
  Beta  occ. eigenvalues --   -0.24718  -0.24176  -0.24026  -0.21136  -0.18618
  Beta  occ. eigenvalues --   -0.17450  -0.16295  -0.15402
  Beta virt. eigenvalues --    0.06817   0.07624   0.08022   0.08591   0.09316
  Beta virt. eigenvalues --    0.10238   0.10436   0.10822   0.10994   0.11313
  Beta virt. eigenvalues --    0.12628   0.12804   0.13625   0.14117   0.14211

 Mulliken charges and spin densities:
               1          2
     1  C    0.482571  -1.156467
     2  C   -2.476238   2.630408
     3  C    1.908228  -2.423659
     4  C    0.643949  -1.067844
     5  C   -0.326835   0.206795
     6  C    0.147087  -0.580085
     7  C   -0.096475  -0.042685
     8  O   -0.368235   0.018146
     9  N   -0.286152  -0.000589
    10  N   -0.294467   0.053616
    11  O   -0.138267   0.045655
    12  C    1.501939  -1.761013
    13  H   -0.027034   0.172020
    14  H    0.098589   0.037432
    15  H   -0.104576   0.276480
    16  H   -0.229428   0.379757
    17  H   -0.484286   0.657460
    18  H   -0.263395   0.434053
    19  H    0.231681  -0.087910
    20  H   -0.283309   0.472346
    21  H    0.099779   0.092352
    22  H    0.170793   0.023030
    23  H   -0.109982   0.325272
    24  H    0.536099  -0.269033
    25  H   -0.104676   0.396202
    26  H    0.178775   0.039174
    27  H    0.214712   0.024810
    28  H   -0.503287   0.657539
    29  H   -0.367395   0.541624
    30  H   -0.750166   0.905112
 Sum of Mulliken charges =  -1.00000   1.00000

 Dipole moment (field-independent basis, Debye):
    X=              5.3361    Y=             -4.2962    Z=             -1.8353  Tot=              7.0922
 Quadrupole moment (field-independent basis, Debye-Ang):
   XX=           -144.2329   YY=           -127.6062   ZZ=           -109.0910
   XY=              4.1499   XZ=             -0.1630   YZ=             -0.4408

 Summary of Natural Population Analysis:

                                       Natural Population
                Natural  -----------------------------------------------
    Atom  No    Charge         Core      Valence    Rydberg      Total
 -----------------------------------------------------------------------
      C    1   -0.29112      0.99960     2.28437    0.00715     3.29112
      C    2    0.13886      0.99952     1.84527    0.01635     2.86114
      C    3   -0.30183      0.99961     2.29512    0.00710     3.30183
      C    4   -0.20499      0.99956     2.19531    0.01012     3.20499
      C    5   -0.19163      0.99960     2.18225    0.00978     3.19163
      C    6   -0.05330      0.99955     2.04259    0.01116     3.05330
      C    7    0.33127      0.99967     1.64313    0.02593     2.66873
      O    8   -0.33312      0.99988     3.32699    0.00626     4.33312
      N    9   -0.40251      0.99969     2.89439    0.00842     3.90251
      N   10   -0.41538      0.99978     2.90681    0.00880     3.91538
      O   11   -0.32271      0.99988     3.31136    0.01147     4.32271
      C   12   -0.10698      0.99959     2.09688    0.01051     3.10698
      H   13    0.10017      0.00000     0.39896    0.00087     0.39983
      H   14    0.10135      0.00000     0.39742    0.00123     0.39865
      H   15    0.10538      0.00000     0.39349    0.00113     0.39462
      H   16    0.10580      0.00000     0.39263    0.00156     0.39420
      H   17    0.10643      0.00000     0.39168    0.00189     0.39357
      H   18    0.10540      0.00000     0.39314    0.00146     0.39460
      H   19    0.10446      0.00000     0.39384    0.00170     0.39554
      H   20    0.10422      0.00000     0.39466    0.00112     0.39578
      H   21    0.10206      0.00000     0.39683    0.00111     0.39794
      H   22    0.10413      0.00000     0.39448    0.00139     0.39587
      H   23    0.09792      0.00000     0.39994    0.00214     0.40208
      H   24    0.20517      0.00000     0.29080    0.00403     0.29483
      H   25    0.19489      0.00000     0.30257    0.00254     0.30511
      H   26    0.17211      0.00000     0.32642    0.00147     0.32789
      H   27    0.17922      0.00000     0.31882    0.00196     0.32078
      H   28    0.08984      0.00000     0.40779    0.00237     0.41016
      H   29    0.08228      0.00000     0.41508    0.00264     0.41772
      H   30    0.09262      0.00000     0.40517    0.00221     0.40738
 =======================================================================
   * Total *   -0.00000     11.99593    35.83821    0.16586    48.00000

 Normal termination of Gaussian 16 at Wed Dec  9 17:49:06 2020.
