 Gaussian 16, Revision A.03,

 -----------------------------------------------------------
 # opt freq B3LYP/6-31G(d) empiricaldispersion=gd3bj scf=xqc
 -----------------------------------------------------------

 -------------------------------
 CID_116848396_JID_4124_neutraal
 -------------------------------
 Symbolic Z-matrix:
 Charge =  0 Multiplicity = 1

 SCF Done:  E(RB3LYP) =  -629.606358630     A.U. after   15 cycles
 SCF Done:  E(RB3LYP) =  -629.609320708     A.U. after   13 cycles
 SCF Done:  E(RB3LYP) =  -629.608773012     A.U. after   13 cycles
 SCF Done:  E(RB3LYP) =  -629.609920911     A.U. after   12 cycles
 SCF Done:  E(RB3LYP) =  -629.610104900     A.U. after   11 cycles
 SCF Done:  E(RB3LYP) =  -629.610165866     A.U. after   12 cycles
 SCF Done:  E(RB3LYP) =  -629.610201540     A.U. after   10 cycles
 SCF Done:  E(RB3LYP) =  -629.610238391     A.U. after   10 cycles
 SCF Done:  E(RB3LYP) =  -629.610250317     A.U. after   10 cycles
 SCF Done:  E(RB3LYP) =  -629.610253733     A.U. after    9 cycles
 SCF Done:  E(RB3LYP) =  -629.610255546     A.U. after    9 cycles
 SCF Done:  E(RB3LYP) =  -629.610256744     A.U. after    8 cycles
 SCF Done:  E(RB3LYP) =  -629.610256822     A.U. after    8 cycles
 SCF Done:  E(RB3LYP) =  -629.610256794     A.U. after    7 cycles
 SCF Done:  E(RB3LYP) =  -629.610256760     A.U. after    6 cycles
 Optimization completed.
    -- Stationary point found.
 Normal termination of Gaussian 16 at Thu Dec 10 09:18:28 2020.

 --------------------------------------------------------------------
 #N Geom=AllCheck Guess=TCheck SCRF=Check GenChk RB3LYP/6-31G(d) Freq
 --------------------------------------------------------------------

 Structure from the checkpoint file:  "JID_4124.chk"
 -------------------------------
 CID_116848396_JID_4124_neutraal
 -------------------------------
 Charge =  0 Multiplicity = 1

 SCF Done:  E(RB3LYP) =  -629.610256760     A.U. after    1 cycles

  Exact polarizability: 155.253  -1.425 127.997   9.921   0.922  90.164
 Approx polarizability: 214.379  -6.192 216.778  18.362  -1.043 133.535

                      1                      2                      3
                      A                      A                      A
 Frequencies --     26.5774                53.5025                78.1701
 Red. masses --      4.1694                 4.8889                 4.2515
 Frc consts  --      0.0017                 0.0082                 0.0153
 IR Inten    --      0.7061                 3.5221                 6.3882

                      4                      5                      6
                      A                      A                      A
 Frequencies --    129.5690               137.8351               146.3042
 Red. masses --      2.7990                 1.1023                 3.9877
 Frc consts  --      0.0277                 0.0123                 0.0503
 IR Inten    --      1.4136                 0.3480                 1.5932

                      7                      8                      9
                      A                      A                      A
 Frequencies --    157.0993               171.5438               193.2060
 Red. masses --      1.6140                 1.2116                 1.8529
 Frc consts  --      0.0235                 0.0210                 0.0408
 IR Inten    --     16.6584                 0.9952                37.0340

                     10                     11                     12
                      A                      A                      A
 Frequencies --    211.0655               264.0081               269.8224
 Red. masses --      3.0843                 3.6397                 3.2369
 Frc consts  --      0.0810                 0.1495                 0.1388
 IR Inten    --      4.6548                 3.0203                 4.7285

                     13                     14                     15
                      A                      A                      A
 Frequencies --    304.9711               316.4719               333.2151
 Red. masses --      2.2446                 1.3012                 3.8291
 Frc consts  --      0.1230                 0.0768                 0.2505
 IR Inten    --      0.1002                 1.4031                21.9789

                     16                     17                     18
                      A                      A                      A
 Frequencies --    392.7625               442.2961               457.8139
 Red. masses --      4.2626                 2.9398                 3.0214
 Frc consts  --      0.3874                 0.3388                 0.3731
 IR Inten    --      4.1335                 1.1159                 2.5878

                     19                     20                     21
                      A                      A                      A
 Frequencies --    480.5219               551.1240               569.8266
 Red. masses --      3.6559                 2.9920                 3.9163
 Frc consts  --      0.4974                 0.5354                 0.7492
 IR Inten    --      2.5337                28.4959                12.6054

                     22                     23                     24
                      A                      A                      A
 Frequencies --    593.3543               616.0078               649.5603
 Red. masses --      4.9366                 1.7168                 2.5355
 Frc consts  --      1.0240                 0.3838                 0.6303
 IR Inten    --      5.9038               110.7078                32.0807

                     25                     26                     27
                      A                      A                      A
 Frequencies --    683.9452               740.6626               765.8822
 Red. masses --      5.8174                 3.1454                 4.5469
 Frc consts  --      1.6033                 1.0166                 1.5714
 IR Inten    --      6.8392                 3.2306                 0.3880

                     28                     29                     30
                      A                      A                      A
 Frequencies --    805.8041               834.1386               855.7376
 Red. masses --      3.9734                 1.5328                 2.7086
 Frc consts  --      1.5201                 0.6284                 1.1686
 IR Inten    --      1.0722                12.8452                22.6394

                     31                     32                     33
                      A                      A                      A
 Frequencies --    929.1112               938.0853               952.2718
 Red. masses --      1.3345                 1.5868                 1.3048
 Frc consts  --      0.6787                 0.8227                 0.6972
 IR Inten    --      4.7001               278.0493                 0.5724

                     34                     35                     36
                      A                      A                      A
 Frequencies --    957.6527              1003.0937              1028.6288
 Red. masses --      3.0847                 2.0318                 1.5140
 Frc consts  --      1.6668                 1.2045                 0.9438
 IR Inten    --      6.7229                83.8362                 7.5157

                     37                     38                     39
                      A                      A                      A
 Frequencies --   1032.1936              1061.3189              1086.3973
 Red. masses --      1.5380                 1.4358                 1.6010
 Frc consts  --      0.9654                 0.9529                 1.1133
 IR Inten    --      5.4793                 6.4477                 0.0203

                     40                     41                     42
                      A                      A                      A
 Frequencies --   1127.5130              1162.1924              1192.5311
 Red. masses --      1.8822                 1.9917                 1.5936
 Frc consts  --      1.4098                 1.5850                 1.3353
 IR Inten    --      8.9256                 7.1188                 2.2936

                     43                     44                     45
                      A                      A                      A
 Frequencies --   1213.0360              1219.7996              1240.2773
 Red. masses --      2.3862                 1.6192                 2.1530
 Frc consts  --      2.0687                 1.4195                 1.9513
 IR Inten    --      5.1933                 0.2714                 2.9426

                     46                     47                     48
                      A                      A                      A
 Frequencies --   1272.2908              1301.7031              1336.6587
 Red. masses --      2.5540                 2.0136                 1.4160
 Frc consts  --      2.4358                 2.0102                 1.4905
 IR Inten    --      7.8818                45.9467                 8.9993

                     49                     50                     51
                      A                      A                      A
 Frequencies --   1351.1776              1358.8387              1388.5288
 Red. masses --      1.8911                 1.8956                 2.9117
 Frc consts  --      2.0341                 2.0622                 3.3076
 IR Inten    --     11.8251                 7.0829                62.5451

                     52                     53                     54
                      A                      A                      A
 Frequencies --   1429.1442              1440.0155              1451.3354
 Red. masses --      1.3879                 1.2568                 1.2435
 Frc consts  --      1.6702                 1.5355                 1.5433
 IR Inten    --      9.5385                 0.1124                 1.7381

                     55                     56                     57
                      A                      A                      A
 Frequencies --   1452.2460              1462.2293              1507.0413
 Red. masses --      1.5079                 2.4410                 1.0452
 Frc consts  --      1.8737                 3.0750                 1.3986
 IR Inten    --     16.3935                 3.2696                 0.0032

                     58                     59                     60
                      A                      A                      A
 Frequencies --   1521.3972              1522.5401              1524.4522
 Red. masses --      1.1853                 1.0449                 1.1383
 Frc consts  --      1.6164                 1.4271                 1.5586
 IR Inten    --     17.5721                14.6790                 1.3017

                     61                     62                     63
                      A                      A                      A
 Frequencies --   1555.0120              1632.9969              1674.7701
 Red. masses --      2.3442                 5.9304                 5.5248
 Frc consts  --      3.3398                 9.3176                 9.1302
 IR Inten    --     15.9317                 2.8202                 2.9357

                     64                     65                     66
                      A                      A                      A
 Frequencies --   1705.3400              1726.8459              1780.5094
 Red. masses --      1.0957                 1.0675                 8.7204
 Frc consts  --      1.8774                 1.8756                16.2883
 IR Inten    --     19.0663                22.4738               247.9532

                     67                     68                     69
                      A                      A                      A
 Frequencies --   3039.3310              3040.2223              3050.8038
 Red. masses --      1.0389                 1.0382                 1.0836
 Frc consts  --      5.6545                 5.6538                 5.9424
 IR Inten    --      9.8598                50.3699                24.8668

                     70                     71                     72
                      A                      A                      A
 Frequencies --   3086.4507              3088.2892              3129.0979
 Red. masses --      1.1002                 1.1001                 1.1001
 Frc consts  --      6.1748                 6.1819                 6.3461
 IR Inten    --     37.7561                 0.3590                24.7110

                     73                     74                     75
                      A                      A                      A
 Frequencies --   3132.2861              3176.8952              3181.8575
 Red. masses --      1.0998                 1.0869                 1.0899
 Frc consts  --      6.3575                 6.4634                 6.5015
 IR Inten    --     10.2363                13.2676                 4.8238

                     76                     77                     78
                      A                      A                      A
 Frequencies --   3194.4565              3453.2485              3454.1301
 Red. masses --      1.0945                 1.0508                 1.0458
 Frc consts  --      6.5806                 7.3828                 7.3516
 IR Inten    --     20.8736                 0.7197                 8.7761

                     79                     80                     81
                      A                      A                      A
 Frequencies --   3532.4029              3542.5529              3589.0904
 Red. masses --      1.0899                 1.0977                 1.0772
 Frc consts  --      8.0128                 8.1164                 8.1758
 IR Inten    --      0.8010                10.9808                22.0759

 - Thermochemistry -
 -------------------
 Temperature   298.150 Kelvin.  Pressure   1.00000 Atm.
 Atom     1 has atomic number  6 and mass  12.00000

 Molecular mass:   193.12151 amu.
 Principal axes and moments of inertia in atomic units:
                           1         2         3
     Eigenvalues --  1585.620024279.374364419.42274
           X            0.99979   0.01840   0.00888
           Y           -0.01853   0.99971   0.01514
           Z           -0.00860  -0.01530   0.99985
 This molecule is an asymmetric top.
 Rotational symmetry number  1.
 Warning -- assumption of classical behavior for rotation
           may cause significant error
 Rotational temperatures (Kelvin)      0.05462     0.02024     0.01960
 Rotational constants (GHZ):           1.13819     0.42173     0.40837
 Zero-point vibrational energy     648753.3 (Joules/Mol)
                                  155.05577 (Kcal/Mol)
 Warning -- explicit consideration of  23 degrees of freedom as
           vibrations may cause significant error
 Vibrational temperatures:     38.24    76.98   112.47   186.42   198.31
          (Kelvin)            210.50   226.03   246.81   277.98   303.68
                              379.85   388.21   438.79   455.33   479.42
                              565.10   636.37   658.69   691.36   792.94
                              819.85   853.70   886.30   934.57   984.04
                             1065.65  1101.93  1159.37  1200.14  1231.22
                             1336.78  1349.70  1370.11  1377.85  1443.23
                             1479.97  1485.10  1527.00  1563.08  1622.24
                             1672.14  1715.79  1745.29  1755.02  1784.48
                             1830.54  1872.86  1923.15  1944.04  1955.07
                             1997.78  2056.22  2071.86  2088.15  2089.46
                             2103.82  2168.30  2188.95  2190.60  2193.35
                             2237.32  2349.52  2409.62  2453.60  2484.55
                             2561.76  4372.92  4374.20  4389.43  4440.71
                             4443.36  4502.07  4506.66  4570.84  4577.98
                             4596.11  4968.45  4969.72  5082.34  5096.94
                             5163.90

 Zero-point correction=                           0.247097 (Hartree/Particle)
 Thermal correction to Energy=                    0.261868
 Thermal correction to Enthalpy=                  0.262812
 Thermal correction to Gibbs Free Energy=         0.205101
 Sum of electronic and zero-point Energies=           -629.363160
 Sum of electronic and thermal Energies=              -629.348389
 Sum of electronic and thermal Enthalpies=            -629.347445
 Sum of electronic and thermal Free Energies=         -629.405156

                     E (Thermal)             CV                S
                      KCal/Mol        Cal/Mol-Kelvin    Cal/Mol-Kelvin
 Total                  164.325             54.772            121.463
 Electronic               0.000              0.000              0.000
 Translational            0.889              2.981             41.680
 Rotational               0.889              2.981             31.773
 Vibrational            162.547             48.811             48.011
 Vibration     1          0.593              1.984              6.070
 Vibration     2          0.596              1.976              4.684
 Vibration     3          0.599              1.964              3.936
 Vibration     4          0.612              1.924              2.952
 Vibration     5          0.614              1.916              2.834
 Vibration     6          0.617              1.907              2.720
 Vibration     7          0.621              1.895              2.584
 Vibration     8          0.626              1.878              2.419
 Vibration     9          0.635              1.849              2.197
 Vibration    10          0.643              1.824              2.034
 Vibration    11          0.671              1.739              1.635
 Vibration    12          0.674              1.729              1.597
 Vibration    13          0.696              1.664              1.389
 Vibration    14          0.703              1.642              1.328
 Vibration    15          0.715              1.609              1.244
 Vibration    16          0.760              1.486              0.990
 Vibration    17          0.802              1.378              0.819
 Vibration    18          0.816              1.344              0.772
 Vibration    19          0.837              1.293              0.709
 Vibration    20          0.906              1.137              0.542
 Vibration    21          0.926              1.097              0.505
 Vibration    22          0.951              1.046              0.461
 Vibration    23          0.976              0.998              0.423

 Optimization completed.
    -- Stationary point found.
 Normal termination of Gaussian 16 at Thu Dec 10 09:26:20 2020.

 ----------------------------------------------------------------------
 # B3LYP/6-311++G(d,p) empiricaldispersion=gd3bj scf=xqc pop=npa geom=c
 heck
 ----------------------------------------------------------------------

 ---------------------------------------
 CID_116848396_JID_4124_Energie_neutraal
 ---------------------------------------
 Structure from the checkpoint file:  "JID_4124.chk"
 Charge =  0 Multiplicity = 1

 SCF Done:  E(RB3LYP) =  -629.801128100     A.U. after   16 cycles
 Normal termination of Gaussian 16 at Thu Dec 10 09:29:31 2020.

 ----------------------------------------------------------------------
 # B3LYP/6-311++G(d,p) empiricaldispersion=gd3bj scf=xqc pop=npa geom=c
 heck
 ----------------------------------------------------------------------

 -------------------------------------
 CID_116848396_JID_4124_Energie_kation
 -------------------------------------
 Structure from the checkpoint file:  "JID_4124.chk"
 Charge =  1 Multiplicity = 2

 SCF Done:  E(UB3LYP) =  -629.494786795     A.U. after   28 cycles
 Normal termination of Gaussian 16 at Thu Dec 10 09:36:53 2020.
 Gaussian 16:  ES64L-G16RevA.03 25-Dec-2016

 ----------------------------------------------------------------------
 # B3LYP/6-311++G(d,p) empiricaldispersion=gd3bj scf=xqc pop=npa geom=c
 heck
 ----------------------------------------------------------------------

 ------------------------------------
 CID_116848396_JID_4124_Energie_anion
 ------------------------------------
 Structure from the checkpoint file:  "JID_4124.chk"
 Charge = -1 Multiplicity = 2

                         Standard orientation:
 ---------------------------------------------------------------------
 Center     Atomic      Atomic             Coordinates (Angstroms)
 Number     Number       Type             X           Y           Z
 ---------------------------------------------------------------------
      1          6           0        4.061213   -0.316476    0.276581
      2          6           0        2.578181   -0.353845    0.006619
      3          6           0        1.810743    0.828896    0.034783
      4          6           0        0.438421    0.756563   -0.214782
      5          6           0       -0.197701   -0.457872   -0.498307
      6          6           0        0.569803   -1.623604   -0.526202
      7          6           0        1.939448   -1.565056   -0.274335
      8          6           0       -1.688110   -0.492511   -0.799930
      9          6           0       -2.438151    0.446322    0.169168
     10          8           0       -2.895999    1.522086   -0.198792
     11          7           0       -2.560338    0.024037    1.465036
     12          7           0       -1.925602   -1.084620    2.052621
     13          7           0       -1.926232   -0.155576   -2.202416
     14          6           0        2.456357    2.158344    0.335168
     15          1           0        4.585940    0.325187   -0.442623
     16          1           0        4.281016    0.084989    1.274120
     17          1           0        4.499172   -1.316827    0.214147
     18          1           0       -0.152153    1.669380   -0.186068
     19          1           0        0.097562   -2.575228   -0.756539
     20          1           0        2.527551   -2.479211   -0.298273
     21          1           0       -2.046398   -1.517085   -0.640315
     22          1           0       -2.951841    0.691541    2.118372
     23          1           0       -2.356741   -1.942512    1.712916
     24          1           0       -0.942332   -1.097165    1.784198
     25          1           0       -2.935345   -0.130421   -2.355110
     26          1           0       -1.629529    0.811215   -2.338664
     27          1           0        1.719733    2.966484    0.320181
     28          1           0        2.938048    2.160135    1.321299
     29          1           0        3.237276    2.401383   -0.396563
 ---------------------------------------------------------------------

 SCF Done:  E(UB3LYP) =  -629.790645653     A.U. after   33 cycles
 SCF Done:  E(UB3LYP) =  -629.790645653     a.u. after    1 cycles

 The electronic state is 2-A.
 Alpha  occ. eigenvalues --  -19.00023 -14.26749 -14.24107 -14.19983 -10.17752
 Alpha  occ. eigenvalues --  -10.11616 -10.08482 -10.08354 -10.08256 -10.07393
 Alpha  occ. eigenvalues --  -10.07371 -10.07304 -10.07283 -10.06950  -0.95376
 Alpha  occ. eigenvalues --   -0.88656  -0.80058  -0.76329  -0.70463  -0.68930
 Alpha  occ. eigenvalues --   -0.66931  -0.62079  -0.59614  -0.56633  -0.50994
 Alpha  occ. eigenvalues --   -0.49693  -0.46934  -0.43097  -0.42039  -0.40791
 Alpha  occ. eigenvalues --   -0.39952  -0.37639  -0.37033  -0.34945  -0.34206
 Alpha  occ. eigenvalues --   -0.33865  -0.31918  -0.31140  -0.30679  -0.30473
 Alpha  occ. eigenvalues --   -0.29352  -0.28593  -0.27730  -0.25321  -0.24412
 Alpha  occ. eigenvalues --   -0.23799  -0.20054  -0.17470  -0.17113  -0.15719
 Alpha  occ. eigenvalues --   -0.14971  -0.14030   0.04256
 Alpha virt. eigenvalues --    0.06035   0.07208   0.07794   0.07974   0.08633
 Alpha virt. eigenvalues --    0.08917   0.08983   0.09867   0.10503   0.10938
 Alpha virt. eigenvalues --    0.11003   0.11692   0.12299   0.12670   0.13298

  Beta  occ. eigenvalues --  -19.00019 -14.26740 -14.24056 -14.19969 -10.17753
  Beta  occ. eigenvalues --  -10.11595 -10.08474 -10.08321 -10.08228 -10.07386
  Beta  occ. eigenvalues --  -10.07362 -10.07286 -10.07255 -10.06916  -0.95364
  Beta  occ. eigenvalues --   -0.88618  -0.80017  -0.76288  -0.70386  -0.68869
  Beta  occ. eigenvalues --   -0.66889  -0.62022  -0.59564  -0.56573  -0.50955
  Beta  occ. eigenvalues --   -0.49651  -0.46868  -0.43034  -0.41978  -0.40728
  Beta  occ. eigenvalues --   -0.39918  -0.37585  -0.37006  -0.34891  -0.34166
  Beta  occ. eigenvalues --   -0.33810  -0.31884  -0.31096  -0.30641  -0.30424
  Beta  occ. eigenvalues --   -0.29319  -0.28559  -0.27673  -0.25243  -0.24375
  Beta  occ. eigenvalues --   -0.23755  -0.20015  -0.17439  -0.17086  -0.15667
  Beta  occ. eigenvalues --   -0.14931  -0.13892
  Beta virt. eigenvalues --    0.06501   0.07255   0.07737   0.08056   0.08205
  Beta virt. eigenvalues --    0.08823   0.09214   0.09516   0.10324   0.10889
  Beta virt. eigenvalues --    0.11024   0.11387   0.12116   0.12584   0.13053

 Mulliken charges and spin densities:
               1          2
     1  C    2.192256  -2.842122
     2  C   -0.905523   1.566267
     3  C   -2.238393   2.334096
     4  C   -1.523960   0.841532
     5  C    1.219387   0.083641
     6  C    0.371319  -0.854021
     7  C    0.631349  -1.263813
     8  C    1.073481  -1.584616
     9  C    0.503719  -0.844717
    10  O   -0.323345   0.017216
    11  N   -0.415090   0.306335
    12  N    0.012879  -0.525145
    13  N   -0.351740   0.013140
    14  C    0.219075  -0.736483
    15  H   -0.030128   0.176560
    16  H   -0.214236   0.371908
    17  H   -0.476248   0.627791
    18  H    0.248680  -0.074306
    19  H   -0.603761   0.780871
    20  H   -0.265642   0.410568
    21  H   -0.467573   0.737454
    22  H    0.205395   0.096818
    23  H   -0.227887   0.507607
    24  H    0.392037  -0.107378
    25  H    0.145648   0.084055
    26  H    0.217296   0.029961
    27  H   -0.171115   0.320118
    28  H   -0.095310   0.253953
    29  H   -0.122568   0.272710
 Sum of Mulliken charges =  -1.00000   1.00000

 Dipole moment (field-independent basis, Debye):
    X=             -1.3299    Y=              3.3777    Z=             -0.7145  Tot=              3.6997
 Quadrupole moment (field-independent basis, Debye-Ang):
   XX=           -155.7701   YY=           -130.4148   ZZ=           -117.0416
   XY=             -4.3021   XZ=             -3.8218   YZ=              1.1601

 Summary of Natural Population Analysis:

                                       Natural Population
                Natural  -----------------------------------------------
    Atom  No    Charge         Core      Valence    Rydberg      Total
 -----------------------------------------------------------------------
      C    1   -0.29477      0.99964     2.28958    0.00555     3.29477
      C    2   -0.00960      0.99947     2.00015    0.00997     3.00960
      C    3   -0.01087      0.99948     2.00164    0.00975     3.01087
      C    4   -0.10367      0.99946     2.09525    0.00896     3.10367
      C    5   -0.02228      0.99949     2.01031    0.01248     3.02228
      C    6   -0.09489      0.99950     2.08450    0.01090     3.09489
      C    7   -0.09515      0.99951     2.08574    0.00989     3.09515
      C    8   -0.06169      0.99952     2.04620    0.01598     3.06169
      C    9    0.33436      0.99964     1.64039    0.02560     2.66564
      O   10   -0.32990      0.99988     3.32386    0.00617     4.32990
      N   11   -0.23330      0.99965     2.71935    0.01430     3.73330
      N   12   -0.31811      0.99977     2.80707    0.01127     3.81811
      N   13   -0.40806      0.99978     2.89842    0.00987     3.90806
      C   14   -0.29457      0.99964     2.28932    0.00562     3.29457
      H   15    0.10333      0.00000     0.39559    0.00108     0.39667
      H   16    0.10641      0.00000     0.39186    0.00173     0.39359
      H   17    0.10341      0.00000     0.39535    0.00124     0.39659
      H   18    0.10346      0.00000     0.39491    0.00163     0.39654
      H   19    0.10492      0.00000     0.39354    0.00154     0.39508
      H   20    0.10026      0.00000     0.39867    0.00107     0.39974
      H   21    0.10860      0.00000     0.38753    0.00386     0.39140
      H   22    0.18719      0.00000     0.31050    0.00232     0.31281
      H   23    0.17947      0.00000     0.31514    0.00540     0.32053
      H   24    0.18210      0.00000     0.31512    0.00278     0.31790
      H   25    0.17516      0.00000     0.32331    0.00153     0.32484
      H   26    0.17617      0.00000     0.32196    0.00187     0.32383
      H   27    0.10186      0.00000     0.39733    0.00080     0.39814
      H   28    0.10546      0.00000     0.39350    0.00103     0.39454
      H   29    0.10469      0.00000     0.39419    0.00111     0.39531
 =======================================================================
   * Total *    0.00000     13.99442    37.82027    0.18530    52.00000

 Normal termination of Gaussian 16 at Thu Dec 10 09:46:08 2020.
