 Gaussian 16, Revision A.03,

 -----------------------------------------------------------
 # opt freq B3LYP/6-31G(d) empiricaldispersion=gd3bj scf=xqc
 -----------------------------------------------------------

 --------------------------------
 CID_105940807_JID_10601_neutraal
 --------------------------------
 Symbolic Z-matrix:
 Charge =  0 Multiplicity = 1

 SCF Done:  E(RB3LYP) =  -1270.18561486     A.U. after   18 cycles
 SCF Done:  E(RB3LYP) =  -1270.19156377     A.U. after   15 cycles
 SCF Done:  E(RB3LYP) =  -1270.18856925     A.U. after   17 cycles
 SCF Done:  E(RB3LYP) =  -1270.19213519     A.U. after   16 cycles
 SCF Done:  E(RB3LYP) =  -1270.19447734     A.U. after   14 cycles
 SCF Done:  E(RB3LYP) =  -1270.19586438     A.U. after   15 cycles
 SCF Done:  E(RB3LYP) =  -1270.19693675     A.U. after   17 cycles
 SCF Done:  E(RB3LYP) =  -1270.19784501     A.U. after   15 cycles
 SCF Done:  E(RB3LYP) =  -1270.19806244     A.U. after   15 cycles
 SCF Done:  E(RB3LYP) =  -1270.19837427     A.U. after   14 cycles
 SCF Done:  E(RB3LYP) =  -1270.19861423     A.U. after   12 cycles
 SCF Done:  E(RB3LYP) =  -1270.19862041     A.U. after   11 cycles
 SCF Done:  E(RB3LYP) =  -1270.19862292     A.U. after   10 cycles
 SCF Done:  E(RB3LYP) =  -1270.19862331     A.U. after    9 cycles
 SCF Done:  E(RB3LYP) =  -1270.19862349     A.U. after    9 cycles
 SCF Done:  E(RB3LYP) =  -1270.19862356     A.U. after    8 cycles
 Optimization completed.
    -- Stationary point found.
 Normal termination of Gaussian 16 at Mon Dec 14 14:01:18 2020.

 --------------------------------------------------------------------
 #N Geom=AllCheck Guess=TCheck SCRF=Check GenChk RB3LYP/6-31G(d) Freq
 --------------------------------------------------------------------

 Structure from the checkpoint file:  "JID_10601.chk"
 --------------------------------
 CID_105940807_JID_10601_neutraal
 --------------------------------
 Charge =  0 Multiplicity = 1

 SCF Done:  E(RB3LYP) =  -1270.19862356     A.U. after    1 cycles

  Exact polarizability: 271.463  -4.403 198.750 -13.896   2.983  96.472
 Approx polarizability: 415.814 -31.066 367.407 -39.218  13.578 162.826

                      1                      2                      3
                      A                      A                      A
 Frequencies --     23.7272                34.4917                44.0126
 Red. masses --      7.9554                 9.1115                 6.4832
 Frc consts  --      0.0026                 0.0064                 0.0074
 IR Inten    --      1.2057                 0.4621                 0.4526

                      4                      5                      6
                      A                      A                      A
 Frequencies --     51.4853                75.7815                90.1965
 Red. masses --      5.7415                 9.0233                 5.9072
 Frc consts  --      0.0090                 0.0305                 0.0283
 IR Inten    --      1.9272                 0.6577                 2.9831

                      7                      8                      9
                      A                      A                      A
 Frequencies --    156.0429               163.7026               168.8448
 Red. masses --      3.9028                 6.7045                 1.5651
 Frc consts  --      0.0560                 0.1059                 0.0263
 IR Inten    --      0.9223                 0.9928                 0.4211

                     10                     11                     12
                      A                      A                      A
 Frequencies --    192.4084               218.3571               219.6916
 Red. masses --      7.6757                 3.0147                 2.7972
 Frc consts  --      0.1674                 0.0847                 0.0795
 IR Inten    --      1.0517                 2.8942                 3.3697

                     13                     14                     15
                      A                      A                      A
 Frequencies --    229.6910               269.4064               293.3671
 Red. masses --      1.3199                 3.2380                 3.6839
 Frc consts  --      0.0410                 0.1385                 0.1868
 IR Inten    --      0.1156                 0.4250                 3.1181

                     16                     17                     18
                      A                      A                      A
 Frequencies --    314.0379               325.5273               343.7367
 Red. masses --      8.5355                 3.2177                 4.0676
 Frc consts  --      0.4960                 0.2009                 0.2832
 IR Inten    --      5.6241                 1.1225                 2.3535

                     19                     20                     21
                      A                      A                      A
 Frequencies --    389.1806               409.6077               433.8451
 Red. masses --      9.6809                 7.5681                 4.0815
 Frc consts  --      0.8639                 0.7481                 0.4526
 IR Inten    --      0.4117                 2.5608                11.6603

                     22                     23                     24
                      A                      A                      A
 Frequencies --    452.6882               479.3964               499.9610
 Red. masses --      8.3220                 4.2498                 4.3322
 Frc consts  --      1.0048                 0.5755                 0.6380
 IR Inten    --      4.6773                 6.8630                 4.9543

                     25                     26                     27
                      A                      A                      A
 Frequencies --    537.2818               555.6594               586.2690
 Red. masses --      6.9070                 4.1073                 5.0858
 Frc consts  --      1.1747                 0.7472                 1.0299
 IR Inten    --      9.1261                20.1448                 1.3351

                     28                     29                     30
                      A                      A                      A
 Frequencies --    614.1599               628.0187               642.1040
 Red. masses --      5.4414                 1.6920                 2.5730
 Frc consts  --      1.2093                 0.3932                 0.6250
 IR Inten    --      6.8793                43.3374                49.0444

                     31                     32                     33
                      A                      A                      A
 Frequencies --    658.8889               673.4355               698.2617
 Red. masses --      4.6519                 6.0999                 3.9234
 Frc consts  --      1.1899                 1.6299                 1.1271
 IR Inten    --     15.0381                 1.6989                 6.3926

                     34                     35                     36
                      A                      A                      A
 Frequencies --    724.2931               741.7525               763.1978
 Red. masses --      4.3919                 1.3201                 7.0428
 Frc consts  --      1.3575                 0.4279                 2.4170
 IR Inten    --     10.0572                30.4718                 5.0085

                     37                     38                     39
                      A                      A                      A
 Frequencies --    771.6929               787.3561               804.6430
 Red. masses --      6.0978                 5.5035                 1.6018
 Frc consts  --      2.1395                 2.0102                 0.6110
 IR Inten    --      1.2705                 1.0434                43.4630

                     40                     41                     42
                      A                      A                      A
 Frequencies --    836.7349               870.2867               890.6929
 Red. masses --      3.6107                 8.2928                 3.9322
 Frc consts  --      1.4894                 3.7006                 1.8380
 IR Inten    --      8.0554                21.9975                 1.5583

                     43                     44                     45
                      A                      A                      A
 Frequencies --    893.8899               897.0538               947.7469
 Red. masses --      1.4503                 1.3218                 1.5715
 Frc consts  --      0.6828                 0.6267                 0.8317
 IR Inten    --      0.0133                 1.4318                 0.0754

                     46                     47                     48
                      A                      A                      A
 Frequencies --    969.6765               989.1512              1038.6178
 Red. masses --      3.2201                 1.2906                 1.3003
 Frc consts  --      1.7839                 0.7440                 0.8264
 IR Inten    --      5.5581                 0.5727                 4.4440

                     49                     50                     51
                      A                      A                      A
 Frequencies --   1074.5770              1082.5628              1094.0077
 Red. masses --      2.9510                 2.5114                 1.5255
 Frc consts  --      2.0077                 1.7341                 1.0757
 IR Inten    --     19.9828                30.7827                 7.3808

                     52                     53                     54
                      A                      A                      A
 Frequencies --   1101.7074              1164.3132              1181.2279
 Red. masses --      3.7050                 2.1767                 2.1545
 Frc consts  --      2.6495                 1.7386                 1.7712
 IR Inten    --     51.4983                22.6647                 7.8272

                     55                     56                     57
                      A                      A                      A
 Frequencies --   1196.9469              1219.6120              1240.5586
 Red. masses --      2.5271                 1.2910                 2.8918
 Frc consts  --      2.1332                 1.1314                 2.6221
 IR Inten    --     23.2277                30.0849               106.5945

                     58                     59                     60
                      A                      A                      A
 Frequencies --   1259.0047              1288.6919              1317.7495
 Red. masses --      2.3966                 2.5694                 5.5300
 Frc consts  --      2.2382                 2.5141                 5.6577
 IR Inten    --      7.3699                 2.0275               266.4993

                     61                     62                     63
                      A                      A                      A
 Frequencies --   1354.8413              1358.1207              1412.5409
 Red. masses --      4.2699                 2.1189                 2.8516
 Frc consts  --      4.6179                 2.3027                 3.3523
 IR Inten    --     74.0479                 5.6533               108.5512

                     64                     65                     66
                      A                      A                      A
 Frequencies --   1429.0005              1442.6499              1449.8695
 Red. masses --      1.2081                 2.9376                 1.3117
 Frc consts  --      1.4535                 3.6022                 1.6245
 IR Inten    --     10.2892                 0.4296                26.6658

                     67                     68                     69
                      A                      A                      A
 Frequencies --   1495.7009              1509.9983              1514.7106
 Red. masses --      4.8460                 1.0580                 1.0626
 Frc consts  --      6.3874                 1.4213                 1.4365
 IR Inten    --      2.6174                 2.7198                 3.7393

                     70                     71                     72
                      A                      A                      A
 Frequencies --   1515.8342              1528.9936              1534.2854
 Red. masses --      2.7206                 1.0841                 1.1533
 Frc consts  --      3.6831                 1.4933                 1.5995
 IR Inten    --     41.2212                 2.3232                 8.7784

                     73                     74                     75
                      A                      A                      A
 Frequencies --   1566.4014              1574.8343              1617.9830
 Red. masses --      3.1783                 5.6117                 5.8283
 Frc consts  --      4.5946                 8.2000                 8.9896
 IR Inten    --    357.8808                53.7176                80.3423

                     76                     77                     78
                      A                      A                      A
 Frequencies --   1644.2355              1663.8704              2349.5398
 Red. masses --      2.4407                 6.7761                12.6806
 Frc consts  --      3.8876                11.0528                41.2435
 IR Inten    --     16.5300               481.5664                 7.0163

                     79                     80                     81
                      A                      A                      A
 Frequencies --   3078.7871              3083.8044              3152.6259
 Red. masses --      1.0350                 1.0353                 1.1039
 Frc consts  --      5.7805                 5.8009                 6.4641
 IR Inten    --     11.9328                11.1607                 9.9267

                     82                     83                     84
                      A                      A                      A
 Frequencies --   3154.6216              3162.3942              3170.2000
 Red. masses --      1.1034                 1.1012                 1.1027
 Frc consts  --      6.4696                 6.4884                 6.5297
 IR Inten    --     16.9379                29.5486                19.6313

                     85                     86                     87
                      A                      A                      A
 Frequencies --   3208.9611              3239.1951              3242.1721
 Red. masses --      1.0900                 1.0915                 1.0939
 Frc consts  --      6.6130                 6.7475                 6.7751
 IR Inten    --      7.5615                 9.6482                 0.5566

                     88                     89                     90
                      A                      A                      A
 Frequencies --   3282.8637              3287.0833              3512.8966
 Red. masses --      1.0983                 1.0896                 1.0765
 Frc consts  --      6.9740                 6.9366                 7.8267
 IR Inten    --      1.6416                 4.0202                81.2380

 - Thermochemistry -
 -------------------
 Temperature   298.150 Kelvin.  Pressure   1.00000 Atm.
 Atom     1 has atomic number  6 and mass  12.00000

 Molecular mass:   288.06810 amu.
 Principal axes and moments of inertia in atomic units:
                           1         2         3
     Eigenvalues --  2720.400459287.04341**********
           X            0.99998   0.00620  -0.00201
           Y           -0.00621   0.99998  -0.00138
           Z            0.00201   0.00139   1.00000
 This molecule is an asymmetric top.
 Rotational symmetry number  1.
 Warning -- assumption of classical behavior for rotation
           may cause significant error
 Rotational temperatures (Kelvin)      0.03184     0.00933     0.00763
 Rotational constants (GHZ):           0.66341     0.19433     0.15901
 Zero-point vibrational energy     628996.6 (Joules/Mol)
                                  150.33381 (Kcal/Mol)
 Warning -- explicit consideration of  28 degrees of freedom as
           vibrations may cause significant error
 Vibrational temperatures:     34.14    49.63    63.32    74.08   109.03
          (Kelvin)            129.77   224.51   235.53   242.93   276.83
                              314.17   316.09   330.47   387.62   422.09
                              451.83   468.36   494.56   559.94   589.33
                              624.21   651.32   689.74   719.33   773.03
                              799.47   843.51   883.64   903.58   923.84
                              947.99   968.92  1004.64  1042.10  1067.22
                             1098.07  1110.29  1132.83  1157.70  1203.87
                             1252.15  1281.51  1286.11  1290.66  1363.60
                             1395.15  1423.17  1494.34  1546.08  1557.57
                             1574.03  1585.11  1675.19  1699.52  1722.14
                             1754.75  1784.89  1811.43  1854.14  1895.95
                             1949.31  1954.03  2032.33  2056.01  2075.65
                             2086.04  2151.98  2172.55  2179.33  2180.95
                             2199.88  2207.49  2253.70  2265.84  2327.92
                             2365.69  2393.94  3380.46  4429.69  4436.91
                             4535.93  4538.80  4549.98  4561.21  4616.98
                             4660.48  4664.76  4723.31  4729.38  5054.27

 Zero-point correction=                           0.239572 (Hartree/Particle)
 Thermal correction to Energy=                    0.257719
 Thermal correction to Enthalpy=                  0.258663
 Thermal correction to Gibbs Free Energy=         0.191787
 Sum of electronic and zero-point Energies=          -1269.959051
 Sum of electronic and thermal Energies=             -1269.940904
 Sum of electronic and thermal Enthalpies=           -1269.939960
 Sum of electronic and thermal Free Energies=        -1270.006837

                     E (Thermal)             CV                S
                      KCal/Mol        Cal/Mol-Kelvin    Cal/Mol-Kelvin
 Total                  161.721             68.605            140.754
 Electronic               0.000              0.000              0.000
 Translational            0.889              2.981             42.872
 Rotational               0.889              2.981             34.016
 Vibrational            159.944             62.644             63.866
 Vibration     1          0.593              1.985              6.295
 Vibration     2          0.594              1.983              5.553
 Vibration     3          0.595              1.980              5.070
 Vibration     4          0.596              1.977              4.760
 Vibration     5          0.599              1.965              3.997
 Vibration     6          0.602              1.956              3.656
 Vibration     7          0.620              1.896              2.597
 Vibration     8          0.623              1.887              2.507
 Vibration     9          0.625              1.881              2.448
 Vibration    10          0.634              1.850              2.204
 Vibration    11          0.646              1.813              1.973
 Vibration    12          0.647              1.811              1.962
 Vibration    13          0.652              1.796              1.881
 Vibration    14          0.674              1.729              1.600
 Vibration    15          0.688              1.686              1.454
 Vibration    16          0.702              1.647              1.341
 Vibration    17          0.710              1.624              1.282
 Vibration    18          0.722              1.588              1.195
 Vibration    19          0.757              1.493              1.003
 Vibration    20          0.774              1.449              0.928
 Vibration    21          0.795              1.396              0.846
 Vibration    22          0.811              1.355              0.788
 Vibration    23          0.836              1.296              0.712
 Vibration    24          0.855              1.250              0.658
 Vibration    25          0.892              1.168              0.571
 Vibration    26          0.911              1.127              0.533
 Vibration    27          0.943              1.061              0.474
 Vibration    28          0.974              1.002              0.426

 Optimization completed.
    -- Stationary point found.
 Normal termination of Gaussian 16 at Mon Dec 14 14:17:06 2020.

 ----------------------------------------------------------------------
 # B3LYP/6-311++G(d,p) empiricaldispersion=gd3bj scf=xqc pop=npa geom=c
 heck
 ----------------------------------------------------------------------

 ----------------------------------------
 CID_105940807_JID_10601_Energie_neutraal
 ----------------------------------------
 Structure from the checkpoint file:  "JID_10601.chk"
 Charge =  0 Multiplicity = 1

 SCF Done:  E(RB3LYP) =  -1270.46211005     A.U. after   19 cycles
 Normal termination of Gaussian 16 at Mon Dec 14 14:24:23 2020.

 ----------------------------------------------------------------------
 # B3LYP/6-311++G(d,p) empiricaldispersion=gd3bj scf=xqc pop=npa geom=c
 heck
 ----------------------------------------------------------------------

 --------------------------------------
 CID_105940807_JID_10601_Energie_kation
 --------------------------------------
 Structure from the checkpoint file:  "JID_10601.chk"
 Charge =  1 Multiplicity = 2

 SCF Done:  E(UB3LYP) =  -1270.15820638     A.U. after   29 cycles
 Normal termination of Gaussian 16 at Mon Dec 14 14:39:43 2020.
 Gaussian 16:  ES64L-G16RevA.03 25-Dec-2016

 ----------------------------------------------------------------------
 # B3LYP/6-311++G(d,p) empiricaldispersion=gd3bj scf=xqc pop=npa geom=c
 heck
 ----------------------------------------------------------------------

 -------------------------------------
 CID_105940807_JID_10601_Energie_anion
 -------------------------------------
 Structure from the checkpoint file:  "JID_10601.chk"
 Charge = -1 Multiplicity = 2

                         Standard orientation:
 ---------------------------------------------------------------------
 Center     Atomic      Atomic             Coordinates (Angstroms)
 Number     Number       Type             X           Y           Z
 ---------------------------------------------------------------------
      1          6           0       -1.668799    1.922909   -1.274852
      2          6           0       -1.580011    1.184026    0.081554
      3          6           0       -1.735798    2.153264    1.267971
      4          6           0       -2.738808    0.195484    0.103273
      5          7           0       -3.908504    0.465483    0.603060
      6          6           0       -4.796814   -0.564556    0.388405
      7          6           0       -4.303376   -1.639241   -0.292345
      8         16           0       -2.639246   -1.373090   -0.697241
      9          7           0       -0.358008    0.368402    0.192133
     10          6           0        0.945411    0.733896    0.059496
     11          6           0        1.344033    2.082127   -0.137572
     12          6           0        2.668772    2.440356   -0.281185
     13          6           0        3.687298    1.485445   -0.231111
     14          6           0        3.353478    0.146059   -0.047511
     15          6           0        1.996854   -0.238910    0.091364
     16          7           0        1.709755   -1.651768    0.237591
     17          8           0        0.611066   -1.998048    0.713700
     18          8           0        2.563601   -2.460546   -0.115376
     19          6           0        4.458971   -0.764761    0.037882
     20          7           0        5.462536   -1.347382    0.112651
     21          1           0       -2.671443    2.346472   -1.376683
     22          1           0       -1.500192    1.222952   -2.097824
     23          1           0       -0.949157    2.738771   -1.361931
     24          1           0       -2.698552    2.663980    1.207836
     25          1           0       -1.700970    1.600832    2.210410
     26          1           0       -0.936679    2.898312    1.272621
     27          1           0       -5.808349   -0.475709    0.766486
     28          1           0       -4.804178   -2.560330   -0.555473
     29          1           0       -0.469996   -0.564466    0.576036
     30          1           0        0.591248    2.854164   -0.146944
     31          1           0        2.921591    3.487372   -0.417070
     32          1           0        4.729559    1.766092   -0.318444
 ---------------------------------------------------------------------

 SCF Done:  E(UB3LYP) =  -1270.51985592     A.U. after   23 cycles

 The electronic state is 2-A.
 Alpha  occ. eigenvalues --  -88.80390 -18.96704 -18.96582 -14.34728 -14.23822
 Alpha  occ. eigenvalues --  -14.21221 -14.16162 -10.16021 -10.15256 -10.13065
 Alpha  occ. eigenvalues --  -10.12873 -10.11424 -10.09036 -10.08409 -10.07699
 Alpha  occ. eigenvalues --  -10.07619 -10.06948 -10.05684 -10.05528 -10.05344
 Alpha  occ. eigenvalues --   -7.88969  -5.85236  -5.84871  -5.84595  -1.04698
 Alpha  occ. eigenvalues --   -0.89316  -0.87505  -0.83965  -0.76744  -0.74548
 Alpha  occ. eigenvalues --   -0.72452  -0.70860  -0.66495  -0.65342  -0.63499
 Alpha  occ. eigenvalues --   -0.61266  -0.56783  -0.54026  -0.52244  -0.50536
 Alpha  occ. eigenvalues --   -0.47590  -0.45928  -0.43646  -0.41872  -0.39588
 Alpha  occ. eigenvalues --   -0.39049  -0.37559  -0.37103  -0.36639  -0.35748
 Alpha  occ. eigenvalues --   -0.34682  -0.34211  -0.33317  -0.32897  -0.32192
 Alpha  occ. eigenvalues --   -0.30870  -0.29857  -0.29010  -0.28123  -0.27494
 Alpha  occ. eigenvalues --   -0.26904  -0.26348  -0.25090  -0.23052  -0.22489
 Alpha  occ. eigenvalues --   -0.20850  -0.20222  -0.19635  -0.18972  -0.17115
 Alpha  occ. eigenvalues --   -0.15558  -0.14462  -0.14180  -0.12024  -0.09837
 Alpha  occ. eigenvalues --    0.00421
 Alpha virt. eigenvalues --    0.04456   0.05905   0.07070   0.07943   0.08344
 Alpha virt. eigenvalues --    0.08619   0.09604   0.09953   0.10312   0.10726
 Alpha virt. eigenvalues --    0.11123   0.11785   0.12078   0.12384   0.12760

  Beta  occ. eigenvalues --  -88.80390 -18.96262 -18.96101 -14.34160 -14.23822
  Beta  occ. eigenvalues --  -14.21198 -14.15964 -10.16018 -10.15257 -10.13064
  Beta  occ. eigenvalues --  -10.12871 -10.11376 -10.08993 -10.08408 -10.07617
  Beta  occ. eigenvalues --  -10.07417 -10.07005 -10.05766 -10.05331 -10.05258
  Beta  occ. eigenvalues --   -7.88969  -5.85236  -5.84871  -5.84596  -1.03724
  Beta  occ. eigenvalues --   -0.89309  -0.86688  -0.83851  -0.76445  -0.74317
  Beta  occ. eigenvalues --   -0.72439  -0.70750  -0.65995  -0.65256  -0.63183
  Beta  occ. eigenvalues --   -0.61257  -0.56153  -0.53828  -0.52186  -0.50350
  Beta  occ. eigenvalues --   -0.47298  -0.45868  -0.43627  -0.41640  -0.39356
  Beta  occ. eigenvalues --   -0.38633  -0.37456  -0.36588  -0.35948  -0.34682
  Beta  occ. eigenvalues --   -0.34217  -0.33986  -0.33225  -0.32648  -0.31814
  Beta  occ. eigenvalues --   -0.30838  -0.29773  -0.28992  -0.27943  -0.27426
  Beta  occ. eigenvalues --   -0.26450  -0.25995  -0.24982  -0.22463  -0.22171
  Beta  occ. eigenvalues --   -0.20842  -0.20210  -0.19441  -0.18364  -0.17067
  Beta  occ. eigenvalues --   -0.13966  -0.13226  -0.12333  -0.11436  -0.09185
  Beta virt. eigenvalues --    0.04465   0.05898   0.06884   0.07066   0.07942
  Beta virt. eigenvalues --    0.08584   0.08733   0.09895   0.10302   0.10504
  Beta virt. eigenvalues --    0.10734   0.11118   0.11930   0.12229   0.12473

 Mulliken charges and spin densities:
               1          2
     1  C   -0.549557   0.000331
     2  C    0.275005   0.000528
     3  C   -0.498532   0.000052
     4  C   -0.473542   0.003681
     5  N    0.095316  -0.001149
     6  C   -0.051941  -0.002962
     7  C   -0.222010   0.004017
     8  S   -0.032725   0.000883
     9  N    0.162278   0.013926
    10  C   -0.333735   0.020927
    11  C    0.370641   0.049155
    12  C   -0.766433   0.183760
    13  C   -0.180015  -0.064898
    14  C    1.769199   0.232168
    15  C   -0.656271   0.016606
    16  N   -0.301889   0.185483
    17  O   -0.155894   0.161925
    18  O   -0.119383   0.180090
    19  C   -0.992220  -0.070274
    20  N   -0.297168   0.098223
    21  H    0.169719   0.000169
    22  H    0.158410   0.000338
    23  H    0.132910  -0.000204
    24  H    0.170026  -0.000421
    25  H    0.184291  -0.000299
    26  H    0.128269   0.000373
    27  H    0.157598  -0.000189
    28  H    0.219203   0.000840
    29  H    0.291221  -0.001377
    30  H    0.069781  -0.004457
    31  H    0.131383  -0.012873
    32  H    0.146064   0.005628
 Sum of Mulliken charges =  -1.00000   1.00000

 Dipole moment (field-independent basis, Debye):
    X=            -13.0175    Y=              6.6227    Z=             -1.4687  Tot=             14.6790
 Quadrupole moment (field-independent basis, Debye-Ang):
   XX=           -196.7655   YY=           -149.2546   ZZ=           -132.2533
   XY=             28.9286   XZ=              1.6662   YZ=              1.9880

 Summary of Natural Population Analysis:

                                       Natural Population
                Natural  -----------------------------------------------
    Atom  No    Charge         Core      Valence    Rydberg      Total
 -----------------------------------------------------------------------
      C    1   -0.28267      0.99959     2.27728    0.00579     3.28267
      C    2    0.04182      0.99951     1.94425    0.01442     2.95818
      C    3   -0.28402      0.99960     2.27800    0.00643     3.28402
      C    4    0.04809      0.99955     1.93253    0.01984     2.95191
      N    5   -0.24829      0.99964     2.73790    0.01075     3.74829
      C    6   -0.02281      0.99954     2.00905    0.01421     3.02281
      C    7   -0.21670      0.99955     2.20725    0.00991     3.21670
      S    8    0.22036      4.99942     2.75983    0.02039     7.77964
      N    9   -0.32917      0.99962     2.81689    0.01265     3.82917
      C   10    0.10938      0.99950     1.88066    0.01046     2.89062
      C   11   -0.12400      0.99955     2.11699    0.00746     3.12400
      C   12   -0.05226      0.99957     2.04378    0.00891     3.05226
      C   13   -0.12014      0.99954     2.11267    0.00793     3.12014
      C   14   -0.02993      0.99939     2.01977    0.01076     3.02993
      C   15    0.04779      0.99937     1.94024    0.01261     2.95221
      N   16    0.30068      0.99970     2.17479    0.02484     3.19932
      O   17   -0.21395      0.99989     3.20616    0.00789     4.21395
      O   18   -0.16262      0.99990     3.15373    0.00900     4.16262
      C   19    0.15019      0.99962     1.83150    0.01869     2.84981
      N   20   -0.16228      0.99978     2.65147    0.01103     3.66228
      H   21    0.10087      0.00000     0.39849    0.00064     0.39913
      H   22    0.10685      0.00000     0.39247    0.00069     0.39315
      H   23    0.10304      0.00000     0.39582    0.00114     0.39696
      H   24    0.10375      0.00000     0.39515    0.00110     0.39625
      H   25    0.10555      0.00000     0.39349    0.00097     0.39445
      H   26    0.10123      0.00000     0.39775    0.00102     0.39877
      H   27    0.09714      0.00000     0.40184    0.00103     0.40286
      H   28    0.11141      0.00000     0.38756    0.00103     0.38859
      H   29    0.21683      0.00000     0.28042    0.00275     0.28317
      H   30    0.09095      0.00000     0.40759    0.00146     0.40905
      H   31    0.09122      0.00000     0.40779    0.00099     0.40878
      H   32    0.10183      0.00000     0.39723    0.00095     0.39817
 =======================================================================
   * Total *    0.00011     23.99184    50.75031    0.25774    74.99989

 Normal termination of Gaussian 16 at Mon Dec 14 14:51:46 2020.
