 Gaussian 16, Revision A.03,

 -----------------------------------------------------------
 # opt freq B3LYP/6-31G(d) empiricaldispersion=gd3bj scf=xqc
 -----------------------------------------------------------

 -------------------------------
 CID_151211200_JID_9261_neutraal
 -------------------------------
 Symbolic Z-matrix:
 Charge =  0 Multiplicity = 1

 SCF Done:  E(RB3LYP) =  -788.068429763     A.U. after   15 cycles
 SCF Done:  E(RB3LYP) =  -788.071015952     A.U. after   13 cycles
 SCF Done:  E(RB3LYP) =  -788.071330788     A.U. after   14 cycles
 SCF Done:  E(RB3LYP) =  -788.072403082     A.U. after   14 cycles
 SCF Done:  E(RB3LYP) =  -788.073397000     A.U. after   14 cycles
 SCF Done:  E(RB3LYP) =  -788.073504262     A.U. after   11 cycles
 SCF Done:  E(RB3LYP) =  -788.073532902     A.U. after   10 cycles
 SCF Done:  E(RB3LYP) =  -788.073545341     A.U. after   11 cycles
 SCF Done:  E(RB3LYP) =  -788.073549740     A.U. after    9 cycles
 SCF Done:  E(RB3LYP) =  -788.073550682     A.U. after    8 cycles
 SCF Done:  E(RB3LYP) =  -788.073550754     A.U. after    7 cycles
 SCF Done:  E(RB3LYP) =  -788.073550743     A.U. after    7 cycles
 SCF Done:  E(RB3LYP) =  -788.073550767     A.U. after    7 cycles
 Optimization completed.
    -- Stationary point found.
 Normal termination of Gaussian 16 at Sun Dec 13 20:20:15 2020.

 --------------------------------------------------------------------
 #N Geom=AllCheck Guess=TCheck SCRF=Check GenChk RB3LYP/6-31G(d) Freq
 --------------------------------------------------------------------

 Structure from the checkpoint file:  "JID_9261.chk"
 -------------------------------
 CID_151211200_JID_9261_neutraal
 -------------------------------
 Charge =  0 Multiplicity = 1

 SCF Done:  E(RB3LYP) =  -788.073550767     A.U. after    1 cycles

  Exact polarizability: 184.337  18.318 194.732  24.263 -25.027 130.127
 Approx polarizability: 289.275  24.754 324.440  60.714 -68.029 229.642

                      1                      2                      3
                      A                      A                      A
 Frequencies --     36.2034                54.3952                63.1666
 Red. masses --      5.6080                 4.7958                 3.8456
 Frc consts  --      0.0043                 0.0084                 0.0090
 IR Inten    --      0.5274                 1.2596                 0.0515

                      4                      5                      6
                      A                      A                      A
 Frequencies --     89.5772                95.2436               121.6628
 Red. masses --      3.1787                 3.9744                 3.4345
 Frc consts  --      0.0150                 0.0212                 0.0300
 IR Inten    --      0.1898                 0.0240                 0.6422

                      7                      8                      9
                      A                      A                      A
 Frequencies --    136.7415               206.6327               214.0648
 Red. masses --      2.3265                 3.4475                 2.1853
 Frc consts  --      0.0256                 0.0867                 0.0590
 IR Inten    --      0.5108                 0.2538                 0.3769

                     10                     11                     12
                      A                      A                      A
 Frequencies --    227.6166               249.6044               270.9399
 Red. masses --      5.9319                 1.9497                 3.3563
 Frc consts  --      0.1811                 0.0716                 0.1452
 IR Inten    --      0.5204                 0.8863                 1.0455

                     13                     14                     15
                      A                      A                      A
 Frequencies --    332.3058               368.2417               411.0138
 Red. masses --      3.0805                 2.4984                 3.2002
 Frc consts  --      0.2004                 0.1996                 0.3185
 IR Inten    --      1.1165                 0.9286                 0.2741

                     16                     17                     18
                      A                      A                      A
 Frequencies --    420.3942               439.5296               453.4530
 Red. masses --      2.9696                 3.5591                 4.3471
 Frc consts  --      0.3092                 0.4051                 0.5266
 IR Inten    --      0.1060                 2.0831                 0.8162

                     19                     20                     21
                      A                      A                      A
 Frequencies --    492.9810               516.6651               544.4178
 Red. masses --      3.9970                 5.4284                 5.1818
 Frc consts  --      0.5723                 0.8538                 0.9049
 IR Inten    --      3.1797                 0.6896                 4.8694

                     22                     23                     24
                      A                      A                      A
 Frequencies --    571.4843               597.5746               638.2946
 Red. masses --      4.3054                 4.0554                 6.1547
 Frc consts  --      0.8285                 0.8532                 1.4774
 IR Inten    --      2.1526                11.9857                 0.0339

                     25                     26                     27
                      A                      A                      A
 Frequencies --    647.6737               692.5905               716.1039
 Red. masses --      4.8654                 5.1367                 2.1363
 Frc consts  --      1.2025                 1.4517                 0.6454
 IR Inten    --      1.0573                 1.5015                30.0870

                     28                     29                     30
                      A                      A                      A
 Frequencies --    722.8948               765.6116               767.2098
 Red. masses --      2.2914                 2.0238                 1.3555
 Frc consts  --      0.7055                 0.6989                 0.4701
 IR Inten    --      5.0040                17.7646                55.4530

                     31                     32                     33
                      A                      A                      A
 Frequencies --    781.3793               792.8710               802.4901
 Red. masses --      3.7160                 5.1732                 1.9275
 Frc consts  --      1.3368                 1.9161                 0.7314
 IR Inten    --      0.2043                 5.7571                 3.4236

                     34                     35                     36
                      A                      A                      A
 Frequencies --    832.3551               863.7141               870.0175
 Red. masses --      2.6664                 1.2611                 1.5089
 Frc consts  --      1.0884                 0.5543                 0.6729
 IR Inten    --      7.5375                 0.6861                 1.0021

                     37                     38                     39
                      A                      A                      A
 Frequencies --    875.1985               898.0066               920.3215
 Red. masses --      2.3228                 4.3723                 3.9306
 Frc consts  --      1.0483                 2.0774                 1.9615
 IR Inten    --      9.5963                 8.6075                34.0704

                     40                     41                     42
                      A                      A                      A
 Frequencies --    932.6491               953.9135               967.1621
 Red. masses --      1.6181                 1.3378                 1.6071
 Frc consts  --      0.8293                 0.7172                 0.8857
 IR Inten    --      9.7047                 2.4100                 0.2550

                     43                     44                     45
                      A                      A                      A
 Frequencies --    969.8416               983.8452               984.4866
 Red. masses --      1.8374                 1.2573                 1.9125
 Frc consts  --      1.0183                 0.7171                 1.0921
 IR Inten    --      1.6468                 0.2756                 3.2257

                     46                     47                     48
                      A                      A                      A
 Frequencies --    994.7882              1023.4576              1043.5340
 Red. masses --      1.2535                 6.1820                 2.0722
 Frc consts  --      0.7309                 3.8152                 1.3295
 IR Inten    --      0.4636                 0.1973                 3.7716

                     49                     50                     51
                      A                      A                      A
 Frequencies --   1060.7032              1065.8628              1097.1532
 Red. masses --      2.3714                 2.4276                 2.8238
 Frc consts  --      1.5720                 1.6249                 2.0027
 IR Inten    --      0.7830                 1.6228                 5.5068

                     52                     53                     54
                      A                      A                      A
 Frequencies --   1105.5562              1134.0154              1137.1838
 Red. masses --      1.6191                 1.9331                 1.7031
 Frc consts  --      1.1660                 1.4647                 1.2977
 IR Inten    --      1.6615                 6.4660                 0.5927

                     55                     56                     57
                      A                      A                      A
 Frequencies --   1161.7262              1193.2906              1194.2434
 Red. masses --      1.4151                 1.1925                 1.1284
 Frc consts  --      1.1253                 1.0005                 0.9482
 IR Inten    --      4.6418                 1.3614                 0.7985

                     58                     59                     60
                      A                      A                      A
 Frequencies --   1217.4791              1236.8047              1239.5538
 Red. masses --      1.1484                 1.3763                 2.5448
 Frc consts  --      1.0029                 1.2404                 2.3037
 IR Inten    --      0.7555                 7.3180                 1.0419

                     61                     62                     63
                      A                      A                      A
 Frequencies --   1278.4031              1283.6165              1314.2804
 Red. masses --      2.3227                 1.7092                 1.5253
 Frc consts  --      2.2365                 1.6592                 1.5523
 IR Inten    --     15.0521                 2.4542                 1.5119

                     64                     65                     66
                      A                      A                      A
 Frequencies --   1322.9624              1354.0941              1366.1397
 Red. masses --      1.5949                 1.2385                 4.3116
 Frc consts  --      1.6447                 1.3380                 4.7411
 IR Inten    --      0.3144                 1.2512                 0.6955

                     67                     68                     69
                      A                      A                      A
 Frequencies --   1373.4440              1390.0851              1404.5296
 Red. masses --      1.2663                 1.9041                 3.5857
 Frc consts  --      1.4074                 2.1679                 4.1676
 IR Inten    --      1.4552                 5.4637                14.8593

                     70                     71                     72
                      A                      A                      A
 Frequencies --   1409.3770              1419.1173              1443.7054
 Red. masses --      1.9312                 2.0346                 1.2730
 Frc consts  --      2.2601                 2.4141                 1.5632
 IR Inten    --     17.7561                 5.6756                 6.2175

                     73                     74                     75
                      A                      A                      A
 Frequencies --   1482.0992              1503.9169              1517.3811
 Red. masses --      2.5713                 2.1491                 1.0914
 Frc consts  --      3.3278                 2.8639                 1.4805
 IR Inten    --     12.8314                 5.4070                 3.8664

                     76                     77                     78
                      A                      A                      A
 Frequencies --   1521.6183              1528.9784              1532.7095
 Red. masses --      1.0780                 2.7790                 1.0885
 Frc consts  --      1.4705                 3.8277                 1.5066
 IR Inten    --      4.7740                 0.7125                11.2911

                     79                     80                     81
                      A                      A                      A
 Frequencies --   1538.9095              1549.5725              1575.1387
 Red. masses --      1.0695                 2.2098                 5.7138
 Frc consts  --      1.4923                 3.1263                 8.3524
 IR Inten    --      1.6562                 8.4101                17.8055

                     82                     83                     84
                      A                      A                      A
 Frequencies --   1645.5890              1650.0892              1668.5075
 Red. masses --      5.4569                 7.0142                 5.6377
 Frc consts  --      8.7064                11.2524                 9.2472
 IR Inten    --      0.6927                 3.7554                 2.6950

                     85                     86                     87
                      A                      A                      A
 Frequencies --   1669.8363              3048.8477              3050.8225
 Red. masses --      6.8582                 1.0372                 1.0788
 Frc consts  --     11.2671                 5.6806                 5.9160
 IR Inten    --     22.9512                18.1222                 4.1951

                     88                     89                     90
                      A                      A                      A
 Frequencies --   3058.5600              3066.1257              3095.4543
 Red. masses --      1.0654                 1.0634                 1.0979
 Frc consts  --      5.8721                 5.8903                 6.1983
 IR Inten    --     21.6520                41.4802                 4.1729

                     91                     92                     93
                      A                      A                      A
 Frequencies --   3103.1535              3118.6774              3120.3145
 Red. masses --      1.1040                 1.1015                 1.1019
 Frc consts  --      6.2636                 6.3123                 6.3208
 IR Inten    --     25.6828                42.2634                45.9059

                     94                     95                     96
                      A                      A                      A
 Frequencies --   3179.6954              3184.6609              3193.1864
 Red. masses --      1.0849                 1.0872                 1.0901
 Frc consts  --      6.4626                 6.4965                 6.5491
 IR Inten    --      3.6321                 1.0961                14.4117

                     97                     98                     99
                      A                      A                      A
 Frequencies --   3193.3829              3201.0274              3209.0236
 Red. masses --      1.0874                 1.0943                 1.0918
 Frc consts  --      6.5337                 6.6062                 6.6243
 IR Inten    --      4.5689                37.5457                14.6663

                    100                    101                    102
                      A                      A                      A
 Frequencies --   3211.7096              3229.6160              3239.6657
 Red. masses --      1.0980                 1.0943                 1.0933
 Frc consts  --      6.6731                 6.7249                 6.7610
 IR Inten    --     17.0500                 8.7462                 4.4268

 - Thermochemistry -
 -------------------
 Temperature   298.150 Kelvin.  Pressure   1.00000 Atm.
 Atom     1 has atomic number  6 and mass  12.00000

 Molecular mass:   251.13101 amu.
 Principal axes and moments of inertia in atomic units:
                           1         2         3
     Eigenvalues --  3637.281764842.170226773.65400
           X            0.99520   0.09751   0.00845
           Y           -0.09762   0.99513   0.01377
           Z           -0.00707  -0.01453   0.99987
 This molecule is an asymmetric top.
 Rotational symmetry number  1.
 Warning -- assumption of classical behavior for rotation
           may cause significant error
 Rotational temperatures (Kelvin)      0.02381     0.01789     0.01279
 Rotational constants (GHZ):           0.49618     0.37271     0.26644
 Zero-point vibrational energy     792202.5 (Joules/Mol)
                                  189.34094 (Kcal/Mol)
 Warning -- explicit consideration of  23 degrees of freedom as
           vibrations may cause significant error
 Vibrational temperatures:     52.09    78.26    90.88   128.88   137.03
          (Kelvin)            175.05   196.74   297.30   307.99   327.49
                              359.13   389.82   478.11   529.82   591.36
                              604.85   632.39   652.42   709.29   743.37
                              783.30   822.24   859.78   918.36   931.86
                              996.48  1030.31  1040.08  1101.54  1103.84
                             1124.23  1140.76  1154.60  1197.57  1242.69
                             1251.76  1259.22  1292.03  1324.14  1341.87
                             1372.47  1391.53  1395.39  1415.53  1416.46
                             1431.28  1472.53  1501.41  1526.12  1533.54
                             1578.56  1590.65  1631.60  1636.15  1671.46
                             1716.88  1718.25  1751.68  1779.49  1783.44
                             1839.34  1846.84  1890.96  1903.45  1948.24
                             1965.57  1976.08  2000.02  2020.80  2027.78
                             2041.79  2077.17  2132.41  2163.80  2183.17
                             2189.27  2199.86  2205.23  2214.15  2229.49
                             2266.27  2367.64  2374.11  2400.61  2402.52
                             4386.61  4389.45  4400.59  4411.47  4453.67
                             4464.75  4487.08  4489.44  4574.87  4582.02
                             4594.28  4594.57  4605.56  4617.07  4620.93
                             4646.70  4661.16

 Zero-point correction=                           0.301734 (Hartree/Particle)
 Thermal correction to Energy=                    0.317430
 Thermal correction to Enthalpy=                  0.318375
 Thermal correction to Gibbs Free Energy=         0.258190
 Sum of electronic and zero-point Energies=           -787.771817
 Sum of electronic and thermal Energies=              -787.756120
 Sum of electronic and thermal Enthalpies=            -787.755176
 Sum of electronic and thermal Free Energies=         -787.815361

                     E (Thermal)             CV                S
                      KCal/Mol        Cal/Mol-Kelvin    Cal/Mol-Kelvin
 Total                  199.191             62.733            126.669
 Electronic               0.000              0.000              0.000
 Translational            0.889              2.981             42.463
 Rotational               0.889              2.981             33.145
 Vibrational            197.413             56.772             51.061
 Vibration     1          0.594              1.982              5.457
 Vibration     2          0.596              1.976              4.651
 Vibration     3          0.597              1.972              4.356
 Vibration     4          0.602              1.957              3.669
 Vibration     5          0.603              1.953              3.549
 Vibration     6          0.609              1.931              3.074
 Vibration     7          0.614              1.917              2.849
 Vibration     8          0.641              1.830              2.073
 Vibration     9          0.644              1.820              2.009
 Vibration    10          0.651              1.799              1.898
 Vibration    11          0.662              1.763              1.733
 Vibration    12          0.675              1.727              1.590
 Vibration    13          0.714              1.611              1.249
 Vibration    14          0.741              1.538              1.087
 Vibration    15          0.775              1.446              0.923
 Vibration    16          0.783              1.426              0.891
 Vibration    17          0.800              1.384              0.828
 Vibration    18          0.812              1.353              0.785
 Vibration    19          0.849              1.266              0.676
 Vibration    20          0.872              1.213              0.618
 Vibration    21          0.900              1.152              0.556
 Vibration    22          0.928              1.093              0.501
 Vibration    23          0.955              1.037              0.454

 Optimization completed.
    -- Stationary point found.
 Normal termination of Gaussian 16 at Sun Dec 13 20:42:53 2020.

 ----------------------------------------------------------------------
 # B3LYP/6-311++G(d,p) empiricaldispersion=gd3bj scf=xqc pop=npa geom=c
 heck
 ----------------------------------------------------------------------

 ---------------------------------------
 CID_151211200_JID_9261_Energie_neutraal
 ---------------------------------------
 Structure from the checkpoint file:  "JID_9261.chk"
 Charge =  0 Multiplicity = 1

 SCF Done:  E(RB3LYP) =  -788.273713072     A.U. after   17 cycles
 Normal termination of Gaussian 16 at Sun Dec 13 20:53:30 2020.

 ----------------------------------------------------------------------
 # B3LYP/6-311++G(d,p) empiricaldispersion=gd3bj scf=xqc pop=npa geom=c
 heck
 ----------------------------------------------------------------------

 -------------------------------------
 CID_151211200_JID_9261_Energie_kation
 -------------------------------------
 Structure from the checkpoint file:  "JID_9261.chk"
 Charge =  1 Multiplicity = 2

 SCF Done:  E(UB3LYP) =  -787.970433718     A.U. after   32 cycles
 Normal termination of Gaussian 16 at Sun Dec 13 21:22:30 2020.
 Gaussian 16:  ES64L-G16RevA.03 25-Dec-2016

 ----------------------------------------------------------------------
 # B3LYP/6-311++G(d,p) empiricaldispersion=gd3bj scf=xqc pop=npa geom=c
 heck
 ----------------------------------------------------------------------

 ------------------------------------
 CID_151211200_JID_9261_Energie_anion
 ------------------------------------
 Structure from the checkpoint file:  "JID_9261.chk"
 Charge = -1 Multiplicity = 2

                         Standard orientation:
 ---------------------------------------------------------------------
 Center     Atomic      Atomic             Coordinates (Angstroms)
 Number     Number       Type             X           Y           Z
 ---------------------------------------------------------------------
      1          6           0        2.461274    2.872978    1.388561
      2          6           0        1.165883    2.079655    1.202292
      3          6           0        0.719678    1.963030   -0.269412
      4          6           0        1.699655    1.158733   -1.175464
      5          6           0        1.820560   -0.307274   -0.838748
      6          6           0        2.679598   -0.751107    0.175820
      7          6           0        2.730750   -2.099062    0.532912
      8          6           0        1.927475   -3.029296   -0.128774
      9          6           0        1.084135   -2.603325   -1.155472
     10          6           0        1.035157   -1.255186   -1.505808
     11          6           0       -0.687963    1.436421   -0.365407
     12          7           0       -1.552720    2.098572   -1.092662
     13          8           0       -2.791120    1.419490   -1.010255
     14          6           0       -2.626143    0.342040   -0.205774
     15          6           0       -3.599651   -0.595727    0.138780
     16          6           0       -3.188265   -1.626444    0.976137
     17          6           0       -1.859850   -1.715660    1.442848
     18          6           0       -0.906013   -0.772644    1.087207
     19          6           0       -1.301980    0.281139    0.247863
     20          1           0        3.319607    2.378735    0.920608
     21          1           0        2.692139    2.993017    2.452412
     22          1           0        2.376749    3.874167    0.949332
     23          1           0        1.277396    1.081636    1.639274
     24          1           0        0.360417    2.570398    1.761944
     25          1           0        0.685296    2.976408   -0.688321
     26          1           0        1.353970    1.269302   -2.208806
     27          1           0        2.682370    1.639693   -1.118958
     28          1           0        3.316175   -0.035140    0.688940
     29          1           0        3.401845   -2.422755    1.323882
     30          1           0        1.965284   -4.078987    0.148325
     31          1           0        0.458201   -3.319703   -1.679821
     32          1           0        0.363800   -0.926142   -2.294493
     33          1           0       -4.615421   -0.518464   -0.232356
     34          1           0       -3.906575   -2.384716    1.274371
     35          1           0       -1.577962   -2.544589    2.084704
     36          1           0        0.118924   -0.868405    1.424267
 ---------------------------------------------------------------------

 SCF Done:  E(UB3LYP) =  -788.271175720     A.U. after   33 cycles
 SCF Done:  E(UB3LYP) =  -788.271175720     a.u. after    1 cycles

 The electronic state is 2-A.
 Alpha  occ. eigenvalues --  -19.06274 -14.21576 -10.10380 -10.07972 -10.07754
 Alpha  occ. eigenvalues --  -10.07636 -10.07574 -10.07515 -10.07425 -10.07105
 Alpha  occ. eigenvalues --  -10.07081 -10.06991 -10.06325 -10.06049 -10.05036
 Alpha  occ. eigenvalues --  -10.04960 -10.04896 -10.04863 -10.04475  -0.99728
 Alpha  occ. eigenvalues --   -0.76347  -0.75092  -0.73301  -0.69840  -0.66230
 Alpha  occ. eigenvalues --   -0.64645  -0.63421  -0.62476  -0.60986  -0.55632
 Alpha  occ. eigenvalues --   -0.50999  -0.50743  -0.50134  -0.48594  -0.47181
 Alpha  occ. eigenvalues --   -0.44333  -0.41205  -0.38927  -0.38506  -0.36769
 Alpha  occ. eigenvalues --   -0.35959  -0.35368  -0.34005  -0.33911  -0.32952
 Alpha  occ. eigenvalues --   -0.32227  -0.31995  -0.31347  -0.29998  -0.28535
 Alpha  occ. eigenvalues --   -0.28315  -0.27726  -0.26423  -0.25247  -0.24821
 Alpha  occ. eigenvalues --   -0.24289  -0.23444  -0.23286  -0.22880  -0.22563
 Alpha  occ. eigenvalues --   -0.21101  -0.18137  -0.17692  -0.15506  -0.14876
 Alpha  occ. eigenvalues --   -0.12634  -0.11773   0.04421
 Alpha virt. eigenvalues --    0.06382   0.07096   0.07922   0.08151   0.08510
 Alpha virt. eigenvalues --    0.08896   0.09274   0.09627   0.10134   0.10402
 Alpha virt. eigenvalues --    0.11239   0.11887   0.11965   0.12189   0.12793

  Beta  occ. eigenvalues --  -19.06189 -14.21184 -10.10408 -10.07975 -10.07758
  Beta  occ. eigenvalues --  -10.07571 -10.07568 -10.07499 -10.07408 -10.07075
  Beta  occ. eigenvalues --  -10.07070 -10.06974 -10.06319 -10.06019 -10.05009
  Beta  occ. eigenvalues --  -10.04974 -10.04780 -10.04724 -10.04245  -0.99484
  Beta  occ. eigenvalues --   -0.76248  -0.74834  -0.73051  -0.69717  -0.66198
  Beta  occ. eigenvalues --   -0.64587  -0.63121  -0.62200  -0.60891  -0.55576
  Beta  occ. eigenvalues --   -0.50813  -0.50479  -0.50026  -0.48514  -0.47051
  Beta  occ. eigenvalues --   -0.44231  -0.41151  -0.38734  -0.38424  -0.36730
  Beta  occ. eigenvalues --   -0.35879  -0.35273  -0.33856  -0.33509  -0.32769
  Beta  occ. eigenvalues --   -0.32178  -0.31912  -0.31270  -0.29914  -0.28478
  Beta  occ. eigenvalues --   -0.28275  -0.27639  -0.26326  -0.25163  -0.24755
  Beta  occ. eigenvalues --   -0.24250  -0.23301  -0.23015  -0.22520  -0.22386
  Beta  occ. eigenvalues --   -0.21022  -0.17241  -0.17203  -0.15295  -0.14750
  Beta  occ. eigenvalues --   -0.11725  -0.10691
  Beta virt. eigenvalues --    0.06689   0.07389   0.08060   0.08306   0.08387
  Beta virt. eigenvalues --    0.08956   0.09290   0.09509   0.09764   0.10269
  Beta virt. eigenvalues --    0.10377   0.11335   0.11850   0.12102   0.12382

 Mulliken charges and spin densities:
               1          2
     1  C    0.623862  -1.257768
     2  C   -1.170746   0.697538
     3  C    0.214598  -0.073759
     4  C    0.535384  -1.107334
     5  C    0.165703   0.629151
     6  C   -0.295685   0.008437
     7  C    0.104642  -0.418759
     8  C    0.029401  -0.388840
     9  C   -0.396615   0.048845
    10  C   -0.386757   0.233123
    11  C    0.162661  -0.053052
    12  N   -0.382810   0.186166
    13  O    0.112492   0.013372
    14  C   -0.524532   0.091291
    15  C   -0.085520   0.039214
    16  C   -0.525476   0.094446
    17  C   -0.215473  -0.129030
    18  C    0.051143   0.161055
    19  C    0.484427   0.157025
    20  H   -0.177406   0.318308
    21  H   -0.215040   0.355724
    22  H   -0.000337   0.132844
    23  H    0.081979   0.049385
    24  H    0.114300   0.056643
    25  H    0.227205   0.006804
    26  H    0.172217  -0.024636
    27  H   -0.001208   0.174952
    28  H   -0.145500   0.297051
    29  H   -0.350466   0.526351
    30  H    0.041670   0.098044
    31  H    0.115202   0.043213
    32  H    0.159801   0.005341
    33  H    0.145539  -0.004320
    34  H    0.111883  -0.007061
    35  H    0.076052   0.075971
    36  H    0.143412  -0.035735
 Sum of Mulliken charges =  -1.00000   1.00000

 Dipole moment (field-independent basis, Debye):
    X=             -0.5813    Y=             -2.4473    Z=             -1.4358  Tot=              2.8963
 Quadrupole moment (field-independent basis, Debye-Ang):
   XX=           -168.3814   YY=           -149.8869   ZZ=           -137.7172
   XY=              2.9992   XZ=             -8.1960   YZ=              2.7505

 Summary of Natural Population Analysis:

                                       Natural Population
                Natural  -----------------------------------------------
    Atom  No    Charge         Core      Valence    Rydberg      Total
 -----------------------------------------------------------------------
      C    1   -0.28588      0.99967     2.28126    0.00495     3.28588
      C    2   -0.19042      0.99962     2.18266    0.00814     3.19042
      C    3   -0.11428      0.99954     2.10321    0.01152     3.11428
      C    4   -0.19309      0.99958     2.18369    0.00983     3.19309
      C    5   -0.01513      0.99950     2.00526    0.01037     3.01513
      C    6   -0.10278      0.99950     2.09333    0.00994     3.10278
      C    7   -0.10141      0.99956     2.09164    0.01020     3.10141
      C    8   -0.10888      0.99956     2.09920    0.01012     3.10888
      C    9   -0.09541      0.99956     2.08599    0.00985     3.09541
      C   10   -0.09266      0.99951     2.08418    0.00897     3.09266
      C   11    0.09221      0.99954     1.89132    0.01693     2.90779
      N   12   -0.02890      0.99965     2.51687    0.01238     3.52890
      O   13   -0.17616      0.99985     3.16797    0.00833     4.17616
      C   14    0.15860      0.99938     1.82887    0.01315     2.84140
      C   15   -0.11486      0.99952     2.10697    0.00838     3.11486
      C   16   -0.06579      0.99959     2.05753    0.00867     3.06579
      C   17   -0.13192      0.99958     2.12345    0.00889     3.13192
      C   18   -0.04649      0.99955     2.03703    0.00991     3.04649
      C   19   -0.07505      0.99943     2.06620    0.00942     3.07505
      H   20    0.09598      0.00000     0.40272    0.00130     0.40402
      H   21    0.09955      0.00000     0.39961    0.00084     0.40045
      H   22    0.09457      0.00000     0.40451    0.00091     0.40543
      H   23    0.09982      0.00000     0.39806    0.00213     0.40018
      H   24    0.09998      0.00000     0.39893    0.00109     0.40002
      H   25    0.10545      0.00000     0.39254    0.00201     0.39455
      H   26    0.10388      0.00000     0.39513    0.00099     0.39612
      H   27    0.10305      0.00000     0.39598    0.00097     0.39695
      H   28    0.10164      0.00000     0.39665    0.00171     0.39836
      H   29    0.10009      0.00000     0.39892    0.00099     0.39991
      H   30    0.09822      0.00000     0.40097    0.00081     0.40178
      H   31    0.09895      0.00000     0.40027    0.00078     0.40105
      H   32    0.10213      0.00000     0.39663    0.00123     0.39787
      H   33    0.09798      0.00000     0.40063    0.00139     0.40202
      H   34    0.09029      0.00000     0.40880    0.00091     0.40971
      H   35    0.09581      0.00000     0.40327    0.00092     0.40419
      H   36    0.10089      0.00000     0.39708    0.00202     0.39911
 =======================================================================
   * Total *   -0.00000     18.99168    47.79736    0.21096    67.00000

 Normal termination of Gaussian 16 at Sun Dec 13 21:52:31 2020.
