 Gaussian 16, Revision A.03,

 -----------------------------------------------------------
 # opt freq B3LYP/6-31G(d) empiricaldispersion=gd3bj scf=xqc
 -----------------------------------------------------------

 ------------------------------
 CID_13265970_JID_1996_neutraal
 ------------------------------
 Symbolic Z-matrix:
 Charge =  0 Multiplicity = 1

 SCF Done:  E(RB3LYP) =  -605.702726531     A.U. after   16 cycles
 SCF Done:  E(RB3LYP) =  -605.713283527     A.U. after   14 cycles
 SCF Done:  E(RB3LYP) =  -605.715630055     A.U. after   14 cycles
 SCF Done:  E(RB3LYP) =  -605.714095962     A.U. after   13 cycles
 SCF Done:  E(RB3LYP) =  -605.716310320     A.U. after   13 cycles
 SCF Done:  E(RB3LYP) =  -605.716563958     A.U. after   13 cycles
 SCF Done:  E(RB3LYP) =  -605.717032878     A.U. after   16 cycles
 SCF Done:  E(RB3LYP) =  -605.717731770     A.U. after   16 cycles
 SCF Done:  E(RB3LYP) =  -605.718481136     A.U. after   12 cycles
 SCF Done:  E(RB3LYP) =  -605.719297880     A.U. after   14 cycles
 SCF Done:  E(RB3LYP) =  -605.720244281     A.U. after   10 cycles
 SCF Done:  E(RB3LYP) =  -605.720245055     A.U. after    9 cycles
 SCF Done:  E(RB3LYP) =  -605.720245168     A.U. after    8 cycles
 SCF Done:  E(RB3LYP) =  -605.720245282     A.U. after    8 cycles
 SCF Done:  E(RB3LYP) =  -605.720245328     A.U. after    6 cycles
 SCF Done:  E(RB3LYP) =  -605.720245352     A.U. after    7 cycles
 Optimization completed.
    -- Stationary point found.
 Normal termination of Gaussian 16 at Tue Dec  8 21:57:29 2020.

 --------------------------------------------------------------------
 #N Geom=AllCheck Guess=TCheck SCRF=Check GenChk RB3LYP/6-31G(d) Freq
 --------------------------------------------------------------------

 Structure from the checkpoint file:  "JID_1996.chk"
 ------------------------------
 CID_13265970_JID_1996_neutraal
 ------------------------------
 Charge =  0 Multiplicity = 1

 SCF Done:  E(RB3LYP) =  -605.720245352     A.U. after    1 cycles

  Exact polarizability: 110.530   0.865  68.257   4.542  -1.062  58.633
 Approx polarizability: 125.616   1.717 112.443  13.916  -2.112  90.819

                      1                      2                      3
                      A                      A                      A
 Frequencies --     19.6584                47.7588                68.0743
 Red. masses --      5.7355                 4.4635                 5.5513
 Frc consts  --      0.0013                 0.0060                 0.0152
 IR Inten    --      0.7975                 1.8794                 1.1340

                      4                      5                      6
                      A                      A                      A
 Frequencies --     72.4682               102.0680               112.5230
 Red. masses --      4.4528                 3.4542                 1.5017
 Frc consts  --      0.0138                 0.0212                 0.0112
 IR Inten    --      1.0446                 0.1494                 0.5697

                      7                      8                      9
                      A                      A                      A
 Frequencies --    129.9659               215.9845               237.0506
 Red. masses --      2.0311                 1.6799                 2.7000
 Frc consts  --      0.0202                 0.0462                 0.0894
 IR Inten    --      0.2056                 2.3235                 3.4852

                     10                     11                     12
                      A                      A                      A
 Frequencies --    261.7583               289.6012               323.2914
 Red. masses --      8.7997                 3.8377                 2.5595
 Frc consts  --      0.3552                 0.1896                 0.1576
 IR Inten    --      2.8433                 8.2621                 8.9625

                     13                     14                     15
                      A                      A                      A
 Frequencies --    390.5126               463.7611               565.6382
 Red. masses --      5.1794                 4.8831                12.2277
 Frc consts  --      0.4654                 0.6188                 2.3050
 IR Inten    --     17.3210                20.7696                 0.0770

                     16                     17                     18
                      A                      A                      A
 Frequencies --    635.4566               641.6655               800.3989
 Red. masses --      7.2721                 7.7065                 1.5436
 Frc consts  --      1.7301                 1.8695                 0.5827
 IR Inten    --     11.6938                 1.8651                 4.1805

                     19                     20                     21
                      A                      A                      A
 Frequencies --    810.8566               853.8202               877.0948
 Red. masses --      5.8929                 3.9200                 3.1645
 Frc consts  --      2.2828                 1.6837                 1.4343
 IR Inten    --     27.9544                 3.5976                21.5019

                     22                     23                     24
                      A                      A                      A
 Frequencies --    920.2196               968.3613              1043.5759
 Red. masses --      4.8630                 5.0134                 7.3263
 Frc consts  --      2.4263                 2.7699                 4.7009
 IR Inten    --     15.6206                 8.8692                36.3745

                     25                     26                     27
                      A                      A                      A
 Frequencies --   1053.6520              1130.7235              1186.0038
 Red. masses --      4.9402                 1.9641                 1.2703
 Frc consts  --      3.2314                 1.4796                 1.0528
 IR Inten    --     24.0635                31.9595                 1.3606

                     28                     29                     30
                      A                      A                      A
 Frequencies --   1210.4233              1219.9137              1250.1870
 Red. masses --      1.7465                 1.4981                 6.4570
 Frc consts  --      1.5076                 1.3136                 5.9460
 IR Inten    --     14.0034                20.5135               963.7823

                     31                     32                     33
                      A                      A                      A
 Frequencies --   1296.4371              1341.8729              1418.9061
 Red. masses --      6.1961                 1.1591                 1.2829
 Frc consts  --      6.1358                 1.2297                 1.5218
 IR Inten    --    213.9497                27.2508                 5.8587

                     34                     35                     36
                      A                      A                      A
 Frequencies --   1445.6089              1491.4988              1513.0285
 Red. masses --      1.3078                 1.1949                 1.0485
 Frc consts  --      1.6103                 1.5662                 1.4142
 IR Inten    --     10.5650                11.0002                 7.7822

                     37                     38                     39
                      A                      A                      A
 Frequencies --   1515.5791              1520.1006              1522.1757
 Red. masses --      1.0458                 1.0808                 1.0466
 Frc consts  --      1.4153                 1.4714                 1.4287
 IR Inten    --      9.5065                 3.6227                 8.8513

                     40                     41                     42
                      A                      A                      A
 Frequencies --   1536.4407              1651.7170              1844.6718
 Red. masses --      1.0595                13.9606                12.0237
 Frc consts  --      1.4735                22.4402                24.1060
 IR Inten    --      7.5694                 0.4399               121.4573

                     43                     44                     45
                      A                      A                      A
 Frequencies --   1862.1888              3065.6565              3084.5489
 Red. masses --     11.9604                 1.0360                 1.0292
 Frc consts  --     24.4367                 5.7364                 5.7697
 IR Inten    --    450.1012                12.2264                25.0372

                     46                     47                     48
                      A                      A                      A
 Frequencies --   3101.4395              3135.2297              3144.7400
 Red. masses --      1.0597                 1.1002                 1.1051
 Frc consts  --      6.0055                 6.3719                 6.4389
 IR Inten    --     19.3927                24.0906                 1.8117

                     49                     50                     51
                      A                      A                      A
 Frequencies --   3164.2607              3167.1136              3197.7961
 Red. masses --      1.1084                 1.1090                 1.1077
 Frc consts  --      6.5385                 6.5541                 6.6737
 IR Inten    --     14.6266                23.1041                11.2628

 - Thermochemistry -
 -------------------
 Temperature   298.150 Kelvin.  Pressure   1.00000 Atm.
 Atom     1 has atomic number  6 and mass  12.00000

 Molecular mass:   160.04841 amu.
 Principal axes and moments of inertia in atomic units:
                           1         2         3
     Eigenvalues --   635.157023964.743064165.98894
           X            0.99990   0.00121  -0.01429
           Y           -0.00120   1.00000   0.00092
           Z            0.01430  -0.00091   0.99990
 This molecule is an asymmetric top.
 Rotational symmetry number  1.
 Warning -- assumption of classical behavior for rotation
           may cause significant error
 Rotational temperatures (Kelvin)      0.13637     0.02185     0.02079
 Rotational constants (GHZ):           2.84141     0.45520     0.43321
 Zero-point vibrational energy     376366.0 (Joules/Mol)
                                   89.95363 (Kcal/Mol)
 Warning -- explicit consideration of  15 degrees of freedom as
           vibrations may cause significant error
 Vibrational temperatures:     28.28    68.71    97.94   104.27   146.85
          (Kelvin)            161.90   186.99   310.75   341.06   376.61
                              416.67   465.14   561.86   667.25   813.83
                              914.28   923.21  1151.60  1166.64  1228.46
                             1261.94  1323.99  1393.26  1501.47  1515.97
                             1626.86  1706.39  1741.53  1755.18  1798.74
                             1865.28  1930.66  2041.49  2079.91  2145.93
                             2176.91  2180.58  2187.09  2190.07  2210.60
                             2376.45  2654.07  2679.27  4410.80  4437.98
                             4462.28  4510.90  4524.58  4552.67  4556.77
                             4600.92

 Zero-point correction=                           0.143350 (Hartree/Particle)
 Thermal correction to Energy=                    0.155577
 Thermal correction to Enthalpy=                  0.156521
 Thermal correction to Gibbs Free Energy=         0.102324
 Sum of electronic and zero-point Energies=           -605.576895
 Sum of electronic and thermal Energies=              -605.564668
 Sum of electronic and thermal Enthalpies=            -605.563724
 Sum of electronic and thermal Free Energies=         -605.617922

                     E (Thermal)             CV                S
                      KCal/Mol        Cal/Mol-Kelvin    Cal/Mol-Kelvin
 Total                   97.626             40.101            114.068
 Electronic               0.000              0.000              0.000
 Translational            0.889              2.981             41.120
 Rotational               0.889              2.981             30.729
 Vibrational             95.849             34.139             42.219
 Vibration     1          0.593              1.986              6.668
 Vibration     2          0.595              1.978              4.908
 Vibration     3          0.598              1.969              4.208
 Vibration     4          0.599              1.967              4.085
 Vibration     5          0.604              1.948              3.414
 Vibration     6          0.607              1.939              3.225
 Vibration     7          0.612              1.923              2.947
 Vibration     8          0.645              1.817              1.993
 Vibration     9          0.656              1.784              1.825
 Vibration    10          0.669              1.743              1.650
 Vibration    11          0.686              1.693              1.476
 Vibration    12          0.708              1.629              1.293
 Vibration    13          0.758              1.490              0.998
 Vibration    14          0.821              1.330              0.755
 Vibration    15          0.922              1.106              0.513

 Optimization completed.
    -- Stationary point found.
 Normal termination of Gaussian 16 at Tue Dec  8 22:00:12 2020.

 ----------------------------------------------------------------------
 # B3LYP/6-311++G(d,p) empiricaldispersion=gd3bj scf=xqc pop=npa geom=c
 heck
 ----------------------------------------------------------------------

 --------------------------------------
 CID_13265970_JID_1996_Energie_neutraal
 --------------------------------------
 Structure from the checkpoint file:  "JID_1996.chk"
 Charge =  0 Multiplicity = 1

 SCF Done:  E(RB3LYP) =  -605.906127023     A.U. after   14 cycles
 Normal termination of Gaussian 16 at Tue Dec  8 22:01:26 2020.

 ----------------------------------------------------------------------
 # B3LYP/6-311++G(d,p) empiricaldispersion=gd3bj scf=xqc pop=npa geom=c
 heck
 ----------------------------------------------------------------------

 ------------------------------------
 CID_13265970_JID_1996_Energie_kation
 ------------------------------------
 Structure from the checkpoint file:  "JID_1996.chk"
 Charge =  1 Multiplicity = 2

 SCF Done:  E(UB3LYP) =  -605.554109428     A.U. after   24 cycles
 Normal termination of Gaussian 16 at Tue Dec  8 22:04:15 2020.
 Gaussian 16:  ES64L-G16RevA.03 25-Dec-2016

 ----------------------------------------------------------------------
 # B3LYP/6-311++G(d,p) empiricaldispersion=gd3bj scf=xqc pop=npa geom=c
 heck
 ----------------------------------------------------------------------

 -----------------------------------
 CID_13265970_JID_1996_Energie_anion
 -----------------------------------
 Structure from the checkpoint file:  "JID_1996.chk"
 Charge = -1 Multiplicity = 2

                         Standard orientation:
 ---------------------------------------------------------------------
 Center     Atomic      Atomic             Coordinates (Angstroms)
 Number     Number       Type             X           Y           Z
 ---------------------------------------------------------------------
      1          6           0        3.778677   -0.437167   -1.110645
      2          6           0        3.262993   -0.809100    0.267983
      3          8           0        1.810204   -0.720317    0.317646
      4          6           0        1.312841    0.495337    0.531606
      5          8           0        1.913106    1.524564    0.710483
      6          7           0       -0.130431    0.436936    0.646467
      7          7           0       -0.688769    0.254040   -0.451923
      8          6           0       -2.132759    0.294823   -0.356757
      9          8           0       -2.774294    1.200666   -0.822767
     10          8           0       -2.594009   -0.824127    0.201245
     11          6           0       -4.032518   -0.932339    0.238703
     12          1           0        3.317083   -1.064721   -1.879066
     13          1           0        4.863890   -0.582719   -1.149088
     14          1           0        3.563789    0.611764   -1.331311
     15          1           0        3.469189   -1.851589    0.516589
     16          1           0        3.674455   -0.157730    1.042670
     17          1           0       -4.450929   -0.144941    0.869657
     18          1           0       -4.443177   -0.846705   -0.769962
     19          1           0       -4.235362   -1.915815    0.660494
 ---------------------------------------------------------------------

 SCF Done:  E(UB3LYP) =  -605.930447003     A.U. after   25 cycles

 The electronic state is 2-A.
 Alpha  occ. eigenvalues --  -19.02744 -19.02727 -18.95412 -18.95353 -14.13476
 Alpha  occ. eigenvalues --  -14.13419 -10.14975 -10.14846 -10.11342 -10.10381
 Alpha  occ. eigenvalues --  -10.06195  -0.97108  -0.96715  -0.87741  -0.87550
 Alpha  occ. eigenvalues --   -0.82544  -0.66183  -0.61506  -0.56423  -0.52056
 Alpha  occ. eigenvalues --   -0.43981  -0.42206  -0.38406  -0.35547  -0.35180
 Alpha  occ. eigenvalues --   -0.34219  -0.33661  -0.31975  -0.30262  -0.29606
 Alpha  occ. eigenvalues --   -0.28082  -0.26787  -0.25385  -0.23402  -0.22476
 Alpha  occ. eigenvalues --   -0.20668  -0.19794  -0.16989  -0.16899  -0.14912
 Alpha  occ. eigenvalues --   -0.13316  -0.04430   0.05142
 Alpha virt. eigenvalues --    0.07889   0.08228   0.10260   0.11213   0.11868
 Alpha virt. eigenvalues --    0.12650   0.12757   0.14340   0.14780   0.16369
 Alpha virt. eigenvalues --    0.17189   0.17400   0.18207   0.18383   0.19032

  Beta  occ. eigenvalues --  -19.02689 -19.02668 -18.95342 -18.95287 -14.12544
  Beta  occ. eigenvalues --  -14.12473 -10.14960 -10.14835 -10.11325 -10.10354
  Beta  occ. eigenvalues --  -10.06194  -0.96899  -0.96572  -0.87548  -0.87397
  Beta  occ. eigenvalues --   -0.80912  -0.66078  -0.61134  -0.55823  -0.51337
  Beta  occ. eigenvalues --   -0.43817  -0.41969  -0.38116  -0.35402  -0.34906
  Beta  occ. eigenvalues --   -0.34017  -0.33414  -0.31870  -0.29977  -0.29425
  Beta  occ. eigenvalues --   -0.27780  -0.26605  -0.25008  -0.23193  -0.22236
  Beta  occ. eigenvalues --   -0.19714  -0.17094  -0.16767  -0.15713  -0.14579
  Beta  occ. eigenvalues --   -0.11628  -0.03283
  Beta virt. eigenvalues --    0.07861   0.08201   0.10222   0.11179   0.11854
  Beta virt. eigenvalues --    0.12542   0.12732   0.14257   0.14673   0.15526
  Beta virt. eigenvalues --    0.16437   0.17219   0.17679   0.18276   0.18716

 Mulliken charges and spin densities:
               1          2
     1  C   -0.376069   0.003583
     2  C   -0.227890   0.003763
     3  O   -0.061242  -0.008244
     4  C    0.041285   0.029659
     5  O   -0.330189   0.013742
     6  N   -0.213227   0.433880
     7  N   -0.238872   0.429705
     8  C    0.092616   0.025030
     9  O   -0.337388   0.014256
    10  O   -0.127639  -0.003942
    11  C   -0.190517  -0.090973
    12  H    0.136220  -0.000603
    13  H    0.098954   0.001167
    14  H    0.174186   0.000163
    15  H    0.122762   0.001450
    16  H    0.155757   0.002648
    17  H    0.117575   0.042720
    18  H    0.125486   0.028773
    19  H    0.038193   0.073224
 Sum of Mulliken charges =  -1.00000   1.00000

 Dipole moment (field-independent basis, Debye):
    X=              2.8881    Y=             -4.7265    Z=             -0.1085  Tot=              5.5401
 Quadrupole moment (field-independent basis, Debye-Ang):
   XX=            -80.3318   YY=            -79.7548   ZZ=            -73.6143
   XY=              0.1997   XZ=             -4.6471   YZ=              0.2973

 Summary of Natural Population Analysis:

                                       Natural Population
                Natural  -----------------------------------------------
    Atom  No    Charge         Core      Valence    Rydberg      Total
 -----------------------------------------------------------------------
      C    1   -0.29948      0.99967     2.29568    0.00413     3.29948
      C    2   -0.01657      0.99960     2.00664    0.01033     3.01657
      O    3   -0.27661      0.99985     3.26633    0.01043     4.27661
      C    4    0.46144      0.99975     1.50959    0.02921     2.53856
      O    5   -0.32277      0.99986     3.31620    0.00671     4.32277
      N    6   -0.01751      0.99968     2.49526    0.02257     3.51751
      N    7   -0.02217      0.99968     2.49991    0.02258     3.52217
      C    8    0.46187      0.99975     1.51029    0.02808     2.53813
      O    9   -0.32003      0.99986     3.31366    0.00652     4.32003
      O   10   -0.27305      0.99985     3.26414    0.00905     4.27305
      C   11   -0.10491      0.99961     2.09643    0.00887     3.10491
      H   12    0.09978      0.00000     0.39919    0.00103     0.40022
      H   13    0.09164      0.00000     0.40742    0.00094     0.40836
      H   14    0.10940      0.00000     0.38953    0.00107     0.39060
      H   15    0.08189      0.00000     0.41699    0.00112     0.41811
      H   16    0.09066      0.00000     0.40765    0.00169     0.40934
      H   17    0.08666      0.00000     0.41145    0.00190     0.41334
      H   18    0.08644      0.00000     0.41186    0.00171     0.41356
      H   19    0.08333      0.00000     0.41493    0.00174     0.41667
 =======================================================================
   * Total *    0.00000     10.99716    30.83314    0.16969    42.00000

 Normal termination of Gaussian 16 at Tue Dec  8 22:07:09 2020.
