 Gaussian 16, Revision A.03,

 -----------------------------------------------------------
 # opt freq B3LYP/6-31G(d) empiricaldispersion=gd3bj scf=xqc
 -----------------------------------------------------------

 ------------------------------
 CID_88066488_JID_1759_neutraal
 ------------------------------
 Symbolic Z-matrix:
 Charge =  0 Multiplicity = 1

 SCF Done:  E(RB3LYP) =  -462.261493083     A.U. after   14 cycles
 SCF Done:  E(RB3LYP) =  -462.266363703     A.U. after   12 cycles
 SCF Done:  E(RB3LYP) =  -462.266857390     A.U. after   11 cycles
 SCF Done:  E(RB3LYP) =  -462.266966379     A.U. after   11 cycles
 SCF Done:  E(RB3LYP) =  -462.267075164     A.U. after   12 cycles
 SCF Done:  E(RB3LYP) =  -462.267124636     A.U. after   11 cycles
 SCF Done:  E(RB3LYP) =  -462.267154907     A.U. after   11 cycles
 SCF Done:  E(RB3LYP) =  -462.267174554     A.U. after   11 cycles
 SCF Done:  E(RB3LYP) =  -462.267216038     A.U. after   12 cycles
 SCF Done:  E(RB3LYP) =  -462.267237552     A.U. after   11 cycles
 SCF Done:  E(RB3LYP) =  -462.267249948     A.U. after    9 cycles
 SCF Done:  E(RB3LYP) =  -462.267254041     A.U. after   10 cycles
 SCF Done:  E(RB3LYP) =  -462.267256073     A.U. after   10 cycles
 SCF Done:  E(RB3LYP) =  -462.267257791     A.U. after   10 cycles
 SCF Done:  E(RB3LYP) =  -462.267258012     A.U. after    8 cycles
 Optimization completed.
    -- Stationary point found.
 Normal termination of Gaussian 16 at Tue Dec  8 21:02:23 2020.

 --------------------------------------------------------------------
 #N Geom=AllCheck Guess=TCheck SCRF=Check GenChk RB3LYP/6-31G(d) Freq
 --------------------------------------------------------------------

 Structure from the checkpoint file:  "JID_1759.chk"
 ------------------------------
 CID_88066488_JID_1759_neutraal
 ------------------------------
 Charge =  0 Multiplicity = 1

 SCF Done:  E(RB3LYP) =  -462.267258012     A.U. after    1 cycles

  Exact polarizability: 146.513  -9.000 102.669   6.390  -0.610  55.299
 Approx polarizability: 200.391 -19.301 173.047  18.255  -6.256  89.271

                      1                      2                      3
                      A                      A                      A
 Frequencies --     17.0578                32.5703               105.6133
 Red. masses --      5.0925                 3.9653                 3.4555
 Frc consts  --      0.0009                 0.0025                 0.0227
 IR Inten    --      0.3565                 0.3582                 5.1462

                      4                      5                      6
                      A                      A                      A
 Frequencies --    166.1453               205.1646               288.3896
 Red. masses --      5.1965                 3.3884                 3.4507
 Frc consts  --      0.0845                 0.0840                 0.1691
 IR Inten    --      2.3621                 4.7504                 0.5706

                      7                      8                      9
                      A                      A                      A
 Frequencies --    336.1259               416.8721               444.4347
 Red. masses --      2.6987                 3.0003                 4.5243
 Frc consts  --      0.1796                 0.3072                 0.5265
 IR Inten    --      2.2324                 0.1197                 1.1780

                     10                     11                     12
                      A                      A                      A
 Frequencies --    472.8161               549.1037               601.4584
 Red. masses --      3.1129                 3.4395                 3.8298
 Frc consts  --      0.4100                 0.6110                 0.8163
 IR Inten    --      1.1113                10.8333                 4.6426

                     13                     14                     15
                      A                      A                      A
 Frequencies --    637.8131               715.4861               744.1887
 Red. masses --      6.2054                 1.8949                 4.7625
 Frc consts  --      1.4873                 0.5715                 1.5540
 IR Inten    --      0.0836                23.6634                39.3298

                     16                     17                     18
                      A                      A                      A
 Frequencies --    764.6261               796.7429               841.0919
 Red. masses --      1.8401                 1.6056                 2.4717
 Frc consts  --      0.6339                 0.6005                 1.0302
 IR Inten    --     18.5534                12.7178                17.1701

                     19                     20                     21
                      A                      A                      A
 Frequencies --    861.0360               907.0530               922.1843
 Red. masses --      1.2501                 2.1890                 1.4311
 Frc consts  --      0.5461                 1.0611                 0.7170
 IR Inten    --      0.0197                35.5912                 1.1420

                     22                     23                     24
                      A                      A                      A
 Frequencies --    966.4644               992.7560              1004.7851
 Red. masses --      1.3459                 1.2849                 3.7556
 Frc consts  --      0.7407                 0.7461                 2.2339
 IR Inten    --      0.1269                 1.3489                52.9681

                     25                     26                     27
                      A                      A                      A
 Frequencies --   1007.9061              1021.6980              1047.8452
 Red. masses --      1.2574                 6.1165                 2.2245
 Frc consts  --      0.7526                 3.7618                 1.4390
 IR Inten    --      1.4201                 0.9298                 9.0255

                     28                     29                     30
                      A                      A                      A
 Frequencies --   1061.0416              1103.4378              1109.5058
 Red. masses --      2.2314                 1.2809                 1.7805
 Frc consts  --      1.4801                 0.9189                 1.2913
 IR Inten    --      2.9311                 0.7177                 5.5202

                     31                     32                     33
                      A                      A                      A
 Frequencies --   1118.2460              1192.8098              1196.4806
 Red. masses --      1.7877                 1.1013                 1.7135
 Frc consts  --      1.3171                 0.9232                 1.4453
 IR Inten    --      3.2684                 0.1616                 8.8636

                     34                     35                     36
                      A                      A                      A
 Frequencies --   1214.8398              1228.1418              1232.0319
 Red. masses --      1.1373                 2.2352                 1.5608
 Frc consts  --      0.9889                 1.9864                 1.3958
 IR Inten    --      0.3232                 2.8557                 3.4809

                     37                     38                     39
                      A                      A                      A
 Frequencies --   1321.6909              1366.7425              1374.0171
 Red. masses --      1.5367                 3.7995                 1.3121
 Frc consts  --      1.5816                 4.1817                 1.4595
 IR Inten    --     14.3003                 2.1858                 5.1087

                     40                     41                     42
                      A                      A                      A
 Frequencies --   1390.9786              1502.3820              1511.6067
 Red. masses --      1.5402                 1.9336                 1.1798
 Frc consts  --      1.7557                 2.5714                 1.5884
 IR Inten    --      5.9450                 5.6585                 6.4789

                     43                     44                     45
                      A                      A                      A
 Frequencies --   1533.4164              1548.0271              1648.2311
 Red. masses --      1.1594                 2.1977                 5.5768
 Frc consts  --      1.6062                 3.1029                 8.9263
 IR Inten    --      3.5963                10.7841                 0.3556

                     46                     47                     48
                      A                      A                      A
 Frequencies --   1667.3865              1908.4974              3044.5265
 Red. masses --      5.5804                10.0063                 1.0601
 Frc consts  --      9.1409                21.4737                 5.7892
 IR Inten    --      6.2788                89.8014                28.1663

                     49                     50                     51
                      A                      A                      A
 Frequencies --   3085.1793              3123.1456              3173.7222
 Red. masses --      1.1031                 1.0509                 1.0860
 Frc consts  --      6.1863                 6.0392                 6.4446
 IR Inten    --     11.8968                22.8863                 8.8852

                     52                     53                     54
                      A                      A                      A
 Frequencies --   3179.2934              3189.0469              3196.9362
 Red. masses --      1.0864                 1.0902                 1.0941
 Frc consts  --      6.4702                 6.5326                 6.5886
 IR Inten    --      1.1087                11.5323                43.5288

                     55                     56                     57
                      A                      A                      A
 Frequencies --   3201.0749              3208.5612              3210.6961
 Red. masses --      1.0896                 1.0980                 1.1207
 Frc consts  --      6.5783                 6.6597                 6.8066
 IR Inten    --      8.3392                23.8223                15.4396

 - Thermochemistry -
 -------------------
 Temperature   298.150 Kelvin.  Pressure   1.00000 Atm.
 Atom     1 has atomic number  6 and mass  12.00000

 Molecular mass:   146.07317 amu.
 Principal axes and moments of inertia in atomic units:
                           1         2         3
     Eigenvalues --   594.084983300.824943676.61233
           X            0.99999  -0.00090  -0.00467
           Y            0.00096   0.99990   0.01415
           Z            0.00465  -0.01416   0.99989
 This molecule is an asymmetric top.
 Rotational symmetry number  1.
 Warning -- assumption of classical behavior for rotation
           may cause significant error
 Rotational temperatures (Kelvin)      0.14579     0.02624     0.02356
 Rotational constants (GHZ):           3.03785     0.54675     0.49087
 Zero-point vibrational energy     452841.1 (Joules/Mol)
                                  108.23162 (Kcal/Mol)
 Warning -- explicit consideration of  12 degrees of freedom as
           vibrations may cause significant error
 Vibrational temperatures:     24.54    46.86   151.95   239.05   295.19
          (Kelvin)            414.93   483.61   599.79   639.44   680.28
                              790.04   865.36   917.67  1029.42  1070.72
                             1100.13  1146.34  1210.14  1238.84  1305.05
                             1326.82  1390.53  1428.35  1445.66  1450.15
                             1470.00  1507.62  1526.60  1587.60  1596.33
                             1608.91  1716.19  1721.47  1747.88  1767.02
                             1772.62  1901.62  1966.44  1976.90  2001.31
                             2161.59  2174.86  2206.24  2227.27  2371.44
                             2399.00  2745.90  4380.39  4438.88  4493.51
                             4566.28  4574.29  4588.33  4599.68  4605.63
                             4616.40  4619.48

 Zero-point correction=                           0.172478 (Hartree/Particle)
 Thermal correction to Energy=                    0.182148
 Thermal correction to Enthalpy=                  0.183092
 Thermal correction to Gibbs Free Energy=         0.135099
 Sum of electronic and zero-point Energies=           -462.094780
 Sum of electronic and thermal Energies=              -462.085110
 Sum of electronic and thermal Enthalpies=            -462.084166
 Sum of electronic and thermal Free Energies=         -462.132159

                     E (Thermal)             CV                S
                      KCal/Mol        Cal/Mol-Kelvin    Cal/Mol-Kelvin
 Total                  114.299             36.343            101.010
 Electronic               0.000              0.000              0.000
 Translational            0.889              2.981             40.848
 Rotational               0.889              2.981             30.356
 Vibrational            112.522             30.381             29.806
 Vibration     1          0.593              1.986              6.950
 Vibration     2          0.594              1.983              5.666
 Vibration     3          0.605              1.945              3.348
 Vibration     4          0.624              1.884              2.479
 Vibration     5          0.640              1.833              2.086
 Vibration     6          0.685              1.695              1.483
 Vibration     7          0.717              1.603              1.230
 Vibration     8          0.780              1.434              0.903
 Vibration     9          0.804              1.373              0.813
 Vibration    10          0.830              1.310              0.730
 Vibration    11          0.904              1.142              0.546
 Vibration    12          0.960              1.029              0.447

                           ! Non-Optimized Parameters !
 Normal termination of Gaussian 16 at Tue Dec  8 21:07:03 2020.

 ----------------------------------------------------------------------
 # B3LYP/6-311++G(d,p) empiricaldispersion=gd3bj scf=xqc pop=npa geom=c
 heck
 ----------------------------------------------------------------------

 --------------------------------------
 CID_88066488_JID_1759_Energie_neutraal
 --------------------------------------
 Structure from the checkpoint file:  "JID_1759.chk"
 Charge =  0 Multiplicity = 1

 SCF Done:  E(RB3LYP) =  -462.392781318     A.U. after   14 cycles
 Normal termination of Gaussian 16 at Tue Dec  8 21:09:28 2020.

 ----------------------------------------------------------------------
 # B3LYP/6-311++G(d,p) empiricaldispersion=gd3bj scf=xqc pop=npa geom=c
 heck
 ----------------------------------------------------------------------

 ------------------------------------
 CID_88066488_JID_1759_Energie_kation
 ------------------------------------
 Structure from the checkpoint file:  "JID_1759.chk"
 Charge =  1 Multiplicity = 2

 SCF Done:  E(UB3LYP) =  -462.090718381     A.U. after   25 cycles
 Normal termination of Gaussian 16 at Tue Dec  8 21:13:26 2020.
 Gaussian 16:  ES64L-G16RevA.03 25-Dec-2016

 ----------------------------------------------------------------------
 # B3LYP/6-311++G(d,p) empiricaldispersion=gd3bj scf=xqc pop=npa geom=c
 heck
 ----------------------------------------------------------------------

 -----------------------------------
 CID_88066488_JID_1759_Energie_anion
 -----------------------------------
 Structure from the checkpoint file:  "JID_1759.chk"
 Charge = -1 Multiplicity = 2

                         Standard orientation:
 ---------------------------------------------------------------------
 Center     Atomic      Atomic             Coordinates (Angstroms)
 Number     Number       Type             X           Y           Z
 ---------------------------------------------------------------------
      1          6           0       -3.793739    0.578816    0.558746
      2          6           0       -2.574926   -0.132866    0.291829
      3          6           0       -1.516237   -0.884548    0.540579
      4          6           0       -0.477763   -1.211223   -0.504787
      5          6           0        0.839742   -0.498152   -0.254583
      6          6           0        0.891476    0.901867   -0.269262
      7          6           0        2.090926    1.571931   -0.040852
      8          6           0        3.260419    0.850643    0.214201
      9          6           0        3.218620   -0.542544    0.235718
     10          6           0        2.014172   -1.210197    0.002063
     11          8           0       -3.133199    0.528250   -0.767646
     12          1           0       -3.771408    1.558393    1.034030
     13          1           0       -4.745173    0.051008    0.604652
     14          1           0       -1.362958   -1.235718    1.556686
     15          1           0       -0.303179   -2.294182   -0.530496
     16          1           0       -0.867686   -0.931161   -1.490817
     17          1           0       -0.020410    1.462303   -0.460295
     18          1           0        2.115415    2.658239   -0.060702
     19          1           0        4.196007    1.372736    0.394374
     20          1           0        4.122287   -1.112585    0.434220
     21          1           0        1.986562   -2.297391    0.017603
 ---------------------------------------------------------------------

 SCF Done:  E(UB3LYP) =  -462.375412989     A.U. after   33 cycles
 SCF Done:  E(UB3LYP) =  -462.375412989     a.u. after    1 cycles

 The electronic state is 2-A.
 Alpha  occ. eigenvalues --  -19.06503 -10.14128 -10.13895 -10.08488 -10.08397
 Alpha  occ. eigenvalues --  -10.07683 -10.07608 -10.07505 -10.07479 -10.07437
 Alpha  occ. eigenvalues --  -10.07310  -1.00566  -0.76238  -0.70271  -0.64940
 Alpha  occ. eigenvalues --   -0.64642  -0.59579  -0.56948  -0.50899  -0.48871
 Alpha  occ. eigenvalues --   -0.45796  -0.41616  -0.40432  -0.39937  -0.36573
 Alpha  occ. eigenvalues --   -0.35770  -0.33581  -0.32389  -0.31800  -0.30804
 Alpha  occ. eigenvalues --   -0.28270  -0.26431  -0.25191  -0.24506  -0.23915
 Alpha  occ. eigenvalues --   -0.23140  -0.15836  -0.15432  -0.13575   0.04557
 Alpha virt. eigenvalues --    0.06074   0.07045   0.07854   0.08118   0.08325
 Alpha virt. eigenvalues --    0.08438   0.09220   0.10124   0.10448   0.11888
 Alpha virt. eigenvalues --    0.12158   0.12828   0.13612   0.14607   0.15244

  Beta  occ. eigenvalues --  -19.06494 -10.14067 -10.13893 -10.08488 -10.08389
  Beta  occ. eigenvalues --  -10.07673 -10.07592 -10.07492 -10.07463 -10.07421
  Beta  occ. eigenvalues --  -10.07300  -1.00552  -0.76215  -0.70249  -0.64912
  Beta  occ. eigenvalues --   -0.64613  -0.59503  -0.56898  -0.50860  -0.48836
  Beta  occ. eigenvalues --   -0.45744  -0.41563  -0.40384  -0.39893  -0.36544
  Beta  occ. eigenvalues --   -0.35728  -0.33549  -0.32354  -0.31768  -0.30759
  Beta  occ. eigenvalues --   -0.28249  -0.26410  -0.25154  -0.24475  -0.23876
  Beta  occ. eigenvalues --   -0.23109  -0.15818  -0.15415  -0.13557
  Beta virt. eigenvalues --    0.06818   0.07586   0.07861   0.08032   0.08196
  Beta virt. eigenvalues --    0.08967   0.09371   0.09504   0.10750   0.10984
  Beta virt. eigenvalues --    0.11859   0.12560   0.13114   0.13922   0.14911

 Mulliken charges and spin densities:
               1          2
     1  C    2.306327  -2.638458
     2  C   -0.004061  -0.170684
     3  C   -0.796571   0.937320
     4  C    0.349807  -0.794384
     5  C    0.526626   0.659913
     6  C   -1.988222   1.460687
     7  C    0.077288  -0.435417
     8  C    1.424638  -1.768842
     9  C    0.509468  -0.878673
    10  C    0.001361  -0.296806
    11  O   -0.219141   0.056049
    12  H   -0.531406   0.704826
    13  H   -0.518514   0.692453
    14  H   -0.311543   0.503180
    15  H   -0.322855   0.496508
    16  H    0.080694   0.095138
    17  H    0.133078   0.008048
    18  H   -0.413963   0.591354
    19  H   -0.287089   0.433329
    20  H   -0.736858   0.915334
    21  H   -0.279062   0.429127
 Sum of Mulliken charges =  -1.00000   1.00000

 Dipole moment (field-independent basis, Debye):
    X=              0.6538    Y=             -0.3567    Z=             -2.3650  Tot=              2.4795
 Quadrupole moment (field-independent basis, Debye-Ang):
   XX=           -158.0248   YY=           -104.0957   ZZ=            -92.7537
   XY=              4.8292   XZ=              4.2477   YZ=             -1.7266

 Summary of Natural Population Analysis:

                                       Natural Population
                Natural  -----------------------------------------------
    Atom  No    Charge         Core      Valence    Rydberg      Total
 -----------------------------------------------------------------------
      C    1   -0.03262      0.99958     2.02230    0.01074     3.03262
      C    2    0.14158      0.99945     1.84264    0.01633     2.85842
      C    3   -0.14091      0.99947     2.13231    0.00913     3.14091
      C    4   -0.20717      0.99958     2.19751    0.01008     3.20717
      C    5   -0.01264      0.99950     2.00275    0.01039     3.01264
      C    6   -0.11231      0.99952     2.09723    0.01555     3.11231
      C    7   -0.06803      0.99957     2.06093    0.00753     3.06803
      C    8   -0.11856      0.99958     2.10360    0.01538     3.11856
      C    9   -0.09844      0.99956     2.08839    0.01048     3.09844
      C   10   -0.10232      0.99951     2.09251    0.01030     3.10232
      O   11   -0.26256      0.99991     3.25431    0.00834     4.26256
      H   12    0.09579      0.00000     0.40072    0.00349     0.40421
      H   13    0.09452      0.00000     0.40245    0.00302     0.40548
      H   14    0.10750      0.00000     0.39130    0.00120     0.39250
      H   15    0.10434      0.00000     0.39433    0.00134     0.39566
      H   16    0.10745      0.00000     0.39118    0.00137     0.39255
      H   17    0.10382      0.00000     0.39453    0.00165     0.39618
      H   18    0.09678      0.00000     0.40185    0.00137     0.40322
      H   19    0.10151      0.00000     0.39700    0.00149     0.39849
      H   20    0.10218      0.00000     0.39590    0.00191     0.39782
      H   21    0.10057      0.00000     0.39776    0.00167     0.39943
 =======================================================================
   * Total *    0.00048     10.99524    27.86151    0.14276    38.99952

 Normal termination of Gaussian 16 at Tue Dec  8 21:21:29 2020.
