 Gaussian 16, Revision A.03,

 -----------------------------------------------------------
 # opt freq B3LYP/6-31G(d) empiricaldispersion=gd3bj scf=xqc
 -----------------------------------------------------------

 ------------------------------
 CID_9592948_JID_10260_neutraal
 ------------------------------
 Symbolic Z-matrix:
 Charge =  0 Multiplicity = 1

 SCF Done:  E(RB3LYP) =  -898.963725578     A.U. after   16 cycles
 SCF Done:  E(RB3LYP) =  -898.969994379     A.U. after   14 cycles
 SCF Done:  E(RB3LYP) =  -898.970020055     A.U. after   13 cycles
 SCF Done:  E(RB3LYP) =  -898.971259212     A.U. after   13 cycles
 SCF Done:  E(RB3LYP) =  -898.971666797     A.U. after   12 cycles
 SCF Done:  E(RB3LYP) =  -898.971904426     A.U. after   12 cycles
 SCF Done:  E(RB3LYP) =  -898.972014816     A.U. after   11 cycles
 SCF Done:  E(RB3LYP) =  -898.972111542     A.U. after   12 cycles
 SCF Done:  E(RB3LYP) =  -898.972169909     A.U. after   11 cycles
 SCF Done:  E(RB3LYP) =  -898.972196117     A.U. after   10 cycles
 SCF Done:  E(RB3LYP) =  -898.977755521     A.U. after   10 cycles
 SCF Done:  E(RB3LYP) =  -898.977761331     A.U. after   10 cycles
 SCF Done:  E(RB3LYP) =  -898.977761580     A.U. after    8 cycles
 SCF Done:  E(RB3LYP) =  -898.977761766     A.U. after    8 cycles
 SCF Done:  E(RB3LYP) =  -898.977761926     A.U. after    8 cycles
 SCF Done:  E(RB3LYP) =  -898.977761987     A.U. after    7 cycles
 Optimization completed.
    -- Stationary point found.
 Normal termination of Gaussian 16 at Sat Dec 12 16:00:43 2020.

 --------------------------------------------------------------------
 #N Geom=AllCheck Guess=TCheck SCRF=Check GenChk RB3LYP/6-31G(d) Freq
 --------------------------------------------------------------------

 Structure from the checkpoint file:  "JID_10260.chk"
 ------------------------------
 CID_9592948_JID_10260_neutraal
 ------------------------------
 Charge =  0 Multiplicity = 1

 SCF Done:  E(RB3LYP) =  -898.977761987     A.U. after    1 cycles

  Exact polarizability: 271.416  16.365 185.237  33.803 -10.784 132.511
 Approx polarizability: 362.389  46.669 299.615  65.361 -14.021 201.682

                      1                      2                      3
                      A                      A                      A
 Frequencies --     11.5085                29.4696                36.4720
 Red. masses --      4.6430                 4.2858                 3.3818
 Frc consts  --      0.0004                 0.0022                 0.0027
 IR Inten    --      0.2520                 0.1839                 0.0677

                      4                      5                      6
                      A                      A                      A
 Frequencies --     51.7033                82.0192                88.8075
 Red. masses --      6.2148                 3.5177                 3.3031
 Frc consts  --      0.0098                 0.0139                 0.0153
 IR Inten    --      0.2460                 0.3877                 4.6924

                      7                      8                      9
                      A                      A                      A
 Frequencies --    113.1278               121.3644               142.3763
 Red. masses --      3.8461                 4.3881                 5.0543
 Frc consts  --      0.0290                 0.0381                 0.0604
 IR Inten    --      0.6547                 1.3775                 2.3890

                     10                     11                     12
                      A                      A                      A
 Frequencies --    194.7316               206.0400               218.3088
 Red. masses --      3.0890                 3.9082                 3.0673
 Frc consts  --      0.0690                 0.0978                 0.0861
 IR Inten    --     23.0410                 3.4473                 9.2022

                     13                     14                     15
                      A                      A                      A
 Frequencies --    239.3216               247.9559               265.1655
 Red. masses --      1.8378                 3.9404                 1.8321
 Frc consts  --      0.0620                 0.1427                 0.0759
 IR Inten    --      0.2385                 2.9927                 0.4177

                     16                     17                     18
                      A                      A                      A
 Frequencies --    291.3155               319.4341               343.0127
 Red. masses --      2.8643                 2.3894                 4.3374
 Frc consts  --      0.1432                 0.1437                 0.3007
 IR Inten    --      0.5395                 1.0018                 0.7333

                     19                     20                     21
                      A                      A                      A
 Frequencies --    366.4203               391.9421               400.7506
 Red. masses --      4.0398                 2.4437                 2.0079
 Frc consts  --      0.3196                 0.2212                 0.1900
 IR Inten    --      2.7425                 0.6237                 4.2462

                     22                     23                     24
                      A                      A                      A
 Frequencies --    436.6439               468.2222               487.2702
 Red. masses --      3.9896                 2.8602                 3.2562
 Frc consts  --      0.4482                 0.3694                 0.4555
 IR Inten    --      7.5020                 0.3368                 7.0006

                     25                     26                     27
                      A                      A                      A
 Frequencies --    504.6617               514.5038               534.6352
 Red. masses --      2.6995                 3.3642                 2.3232
 Frc consts  --      0.4051                 0.5247                 0.3913
 IR Inten    --     16.4015                49.9967                 8.8652

                     28                     29                     30
                      A                      A                      A
 Frequencies --    557.2715               569.5208               597.9291
 Red. masses --      3.8208                 4.4575                 5.6598
 Frc consts  --      0.6991                 0.8518                 1.1922
 IR Inten    --      0.0931                 9.9312                16.1061

                     31                     32                     33
                      A                      A                      A
 Frequencies --    645.3302               693.8140               734.8022
 Red. masses --      2.0268                 4.0247                 2.2825
 Frc consts  --      0.4973                 1.1415                 0.7261
 IR Inten    --     77.3196                18.2073                68.5009

                     34                     35                     36
                      A                      A                      A
 Frequencies --    748.1093               769.9166               790.6917
 Red. masses --      3.6474                 1.2948                 3.3557
 Frc consts  --      1.2027                 0.4522                 1.2361
 IR Inten    --      4.4954                59.0383                 1.6503

                     37                     38                     39
                      A                      A                      A
 Frequencies --    808.9197               830.8147               832.0454
 Red. masses --      5.1885                 1.8433                 3.1915
 Frc consts  --      2.0003                 0.7496                 1.3018
 IR Inten    --     10.2147                 3.6628                 5.4756

                     40                     41                     42
                      A                      A                      A
 Frequencies --    865.4588               869.4657               884.5570
 Red. masses --      1.4406                 2.6180                 1.4401
 Frc consts  --      0.6358                 1.1661                 0.6639
 IR Inten    --      0.5814                 0.4367                 8.0555

                     43                     44                     45
                      A                      A                      A
 Frequencies --    907.7884               913.0336               953.1129
 Red. masses --      2.4598                 3.4333                 1.3352
 Frc consts  --      1.1943                 1.6863                 0.7146
 IR Inten    --      3.1876                10.3380                 0.8012

                     46                     47                     48
                      A                      A                      A
 Frequencies --    982.9681               991.0482              1001.0123
 Red. masses --      1.2750                 1.3344                 1.7319
 Frc consts  --      0.7258                 0.7722                 1.0225
 IR Inten    --      0.2092                 3.4291                13.5887

                     49                     50                     51
                      A                      A                      A
 Frequencies --   1003.7383              1026.3349              1060.9236
 Red. masses --      1.7396                 2.2756                 2.1376
 Frc consts  --      1.0326                 1.4123                 1.4176
 IR Inten    --      5.0756                15.1406                16.9984

                     52                     53                     54
                      A                      A                      A
 Frequencies --   1069.9991              1085.1116              1088.2758
 Red. masses --      4.4501                 2.3858                 1.5574
 Frc consts  --      3.0019                 1.6551                 1.0868
 IR Inten    --     20.8250                14.9376                 2.3820

                     55                     56                     57
                      A                      A                      A
 Frequencies --   1113.2166              1145.2694              1156.5859
 Red. masses --      4.3787                 2.6814                 2.2283
 Frc consts  --      3.1971                 2.0722                 1.7562
 IR Inten    --     72.0534                13.6199                30.9405

                     58                     59                     60
                      A                      A                      A
 Frequencies --   1156.9744              1186.1757              1186.4263
 Red. masses --      2.0216                 1.1618                 1.2683
 Frc consts  --      1.5944                 0.9631                 1.0518
 IR Inten    --      6.7293                 2.1127                 0.8891

                     61                     62                     63
                      A                      A                      A
 Frequencies --   1198.8725              1215.6751              1219.0667
 Red. masses --      1.1069                 1.5157                 2.4048
 Frc consts  --      0.9373                 1.3198                 2.1057
 IR Inten    --     18.0370                28.2385                80.9282

                     64                     65                     66
                      A                      A                      A
 Frequencies --   1231.5561              1244.1008              1267.3688
 Red. masses --      1.4024                 1.8179                 2.7961
 Frc consts  --      1.2532                 1.6578                 2.6461
 IR Inten    --     16.1811                66.3623               458.1901

                     67                     68                     69
                      A                      A                      A
 Frequencies --   1302.0951              1305.2524              1309.3532
 Red. masses --      3.8768                 1.2527                 1.1839
 Frc consts  --      3.8727                 1.2575                 1.1958
 IR Inten    --    202.0423                10.1606                 3.3471

                     70                     71                     72
                      A                      A                      A
 Frequencies --   1332.7003              1354.5413              1356.5561
 Red. masses --      1.6163                 4.2970                 1.5250
 Frc consts  --      1.6914                 4.6451                 1.6535
 IR Inten    --     34.0974                13.2661                13.4049

                     73                     74                     75
                      A                      A                      A
 Frequencies --   1365.9296              1375.5332              1401.0769
 Red. masses --      1.4457                 1.3894                 1.4114
 Frc consts  --      1.5892                 1.5489                 1.6324
 IR Inten    --     19.0876                10.3728                 0.0571

                     76                     77                     78
                      A                      A                      A
 Frequencies --   1403.9583              1408.2713              1413.6437
 Red. masses --      1.4697                 1.6146                 1.7402
 Frc consts  --      1.7068                 1.8867                 2.0489
 IR Inten    --      4.2336                 6.4029                28.8033

                     79                     80                     81
                      A                      A                      A
 Frequencies --   1416.6125              1439.6245              1480.2556
 Red. masses --      1.4435                 1.4476                 1.1459
 Frc consts  --      1.7068                 1.7677                 1.4793
 IR Inten    --      3.9037                14.9613                21.7817

                     82                     83                     84
                      A                      A                      A
 Frequencies --   1487.3367              1493.0338              1506.1257
 Red. masses --      1.3148                 1.4336                 1.0999
 Frc consts  --      1.7136                 1.8829                 1.4701
 IR Inten    --     13.8495                29.7017                 0.8319

                     85                     86                     87
                      A                      A                      A
 Frequencies --   1513.4177              1515.1207              1521.5154
 Red. masses --      1.0869                 1.8617                 1.0476
 Frc consts  --      1.4668                 2.5180                 1.4289
 IR Inten    --      5.6313                 5.4081                 5.8423

                     88                     89                     90
                      A                      A                      A
 Frequencies --   1524.0700              1531.8924              1534.0721
 Red. masses --      1.1044                 1.2343                 1.0825
 Frc consts  --      1.5114                 1.7066                 1.5009
 IR Inten    --      6.9882                73.4323                 0.2049

                     91                     92                     93
                      A                      A                      A
 Frequencies --   1546.6282              1546.7995              1636.8788
 Red. masses --      1.2288                 1.5483                 6.2604
 Frc consts  --      1.7318                 2.1826                 9.8828
 IR Inten    --     12.3803                11.4908                16.0484

                     94                     95                     96
                      A                      A                      A
 Frequencies --   1656.4825              1687.9875              1765.2072
 Red. masses --      5.7536                 6.4774                 7.8720
 Frc consts  --      9.3017                10.8740                14.4519
 IR Inten    --     19.6124                28.8220               429.3512

                     97                     98                     99
                      A                      A                      A
 Frequencies --   2984.5411              3014.7947              3028.7347
 Red. masses --      1.0684                 1.0629                 1.0655
 Frc consts  --      5.6074                 5.6918                 5.7585
 IR Inten    --     33.7086                28.3446                31.4872

                    100                    101                    102
                      A                      A                      A
 Frequencies --   3032.9025              3036.5905              3039.0899
 Red. masses --      1.0342                 1.0599                 1.0628
 Frc consts  --      5.6051                 5.7582                 5.7835
 IR Inten    --     58.9260                27.5424                19.1302

                    103                    104                    105
                      A                      A                      A
 Frequencies --   3040.3728              3061.8781              3066.3746
 Red. masses --      1.0640                 1.0909                 1.0969
 Frc consts  --      5.7947                 6.0260                 6.0766
 IR Inten    --     20.0135                60.7471                41.4113

                    106                    107                    108
                      A                      A                      A
 Frequencies --   3076.6414              3080.1352              3084.0445
 Red. masses --      1.0942                 1.1028                 1.1049
 Frc consts  --      6.1025                 6.1644                 6.1918
 IR Inten    --     58.8991                15.6742                25.5318

                    109                    110                    111
                      A                      A                      A
 Frequencies --   3090.3310              3094.8413              3164.0438
 Red. masses --      1.1059                 1.1070                 1.1005
 Frc consts  --      6.2224                 6.2473                 6.4914
 IR Inten    --     85.2971                37.8761                18.6936

                    112                    113                    114
                      A                      A                      A
 Frequencies --   3186.4014              3192.4829              3209.0716
 Red. masses --      1.0873                 1.0866                 1.0917
 Frc consts  --      6.5043                 6.5249                 6.6239
 IR Inten    --     19.9376                 2.5363                21.1237

                    115                    116                    117
                      A                      A                      A
 Frequencies --   3226.2209              3234.1680              3582.5159
 Red. masses --      1.0933                 1.0921                 1.0767
 Frc consts  --      6.7048                 6.7303                 8.1421
 IR Inten    --      8.4857                12.5912                28.5943

 - Thermochemistry -
 -------------------
 Temperature   298.150 Kelvin.  Pressure   1.00000 Atm.
 Atom     1 has atomic number  6 and mass  12.00000

 Molecular mass:   275.16338 amu.
 Principal axes and moments of inertia in atomic units:
                           1         2         3
     Eigenvalues --  2902.22947********************
           X            0.99999  -0.00155  -0.00399
           Y            0.00139   0.99922  -0.03942
           Z            0.00404   0.03942   0.99921
 This molecule is an asymmetric top.
 Rotational symmetry number  1.
 Warning -- assumption of classical behavior for rotation
           may cause significant error
 Rotational temperatures (Kelvin)      0.02984     0.00685     0.00628
 Rotational constants (GHZ):           0.62185     0.14277     0.13085
 Zero-point vibrational energy     923329.4 (Joules/Mol)
                                  220.68101 (Kcal/Mol)
 Warning -- explicit consideration of  30 degrees of freedom as
           vibrations may cause significant error
 Vibrational temperatures:     16.56    42.40    52.48    74.39   118.01
          (Kelvin)            127.77   162.77   174.62   204.85   280.18
                              296.45   314.10   344.33   356.75   381.51
                              419.14   459.59   493.52   527.20   563.92
                              576.59   628.23   673.67   701.07   726.10
                              740.26   769.22   801.79   819.41   860.29
                              928.49   998.24  1057.22  1076.36  1107.74
                             1137.63  1163.86  1195.36  1197.13  1245.20
                             1250.97  1272.68  1306.10  1313.65  1371.32
                             1414.27  1425.90  1440.23  1444.16  1476.67
                             1526.43  1539.49  1561.23  1565.79  1601.67
                             1647.79  1664.07  1664.63  1706.64  1707.00
                             1724.91  1749.09  1753.97  1771.93  1789.98
                             1823.46  1873.42  1877.97  1883.87  1917.46
                             1948.88  1951.78  1965.27  1979.09  2015.84
                             2019.98  2026.19  2033.92  2038.19  2071.30
                             2129.76  2139.95  2148.14  2166.98  2177.47
                             2179.92  2189.12  2192.80  2204.05  2207.19
                             2225.25  2225.50  2355.10  2383.31  2428.64
                             2539.74  4294.09  4337.62  4357.67  4363.67
                             4368.98  4372.57  4374.42  4405.36  4411.83
                             4426.60  4431.63  4437.25  4446.30  4452.79
                             4552.35  4584.52  4593.27  4617.14  4641.81
                             4653.25  5154.44

 Zero-point correction=                           0.351678 (Hartree/Particle)
 Thermal correction to Energy=                    0.370624
 Thermal correction to Enthalpy=                  0.371568
 Thermal correction to Gibbs Free Energy=         0.301952
 Sum of electronic and zero-point Energies=           -898.626084
 Sum of electronic and thermal Energies=              -898.607138
 Sum of electronic and thermal Enthalpies=            -898.606194
 Sum of electronic and thermal Free Energies=         -898.675810

                     E (Thermal)             CV                S
                      KCal/Mol        Cal/Mol-Kelvin    Cal/Mol-Kelvin
 Total                  232.570             72.441            146.520
 Electronic               0.000              0.000              0.000
 Translational            0.889              2.981             42.735
 Rotational               0.889              2.981             34.580
 Vibrational            230.793             66.480             69.204
 Vibration     1          0.593              1.987              7.732
 Vibration     2          0.593              1.984              5.865
 Vibration     3          0.594              1.982              5.442
 Vibration     4          0.596              1.977              4.751
 Vibration     5          0.600              1.961              3.842
 Vibration     6          0.602              1.957              3.686
 Vibration     7          0.607              1.939              3.215
 Vibration     8          0.609              1.931              3.079
 Vibration     9          0.616              1.911              2.772
 Vibration    10          0.635              1.847              2.182
 Vibration    11          0.641              1.831              2.078
 Vibration    12          0.646              1.813              1.973
 Vibration    13          0.657              1.780              1.808
 Vibration    14          0.662              1.766              1.745
 Vibration    15          0.671              1.737              1.628
 Vibration    16          0.687              1.690              1.466
 Vibration    17          0.705              1.636              1.313
 Vibration    18          0.722              1.589              1.198
 Vibration    19          0.739              1.541              1.095
 Vibration    20          0.759              1.487              0.993
 Vibration    21          0.767              1.468              0.960
 Vibration    22          0.797              1.390              0.837
 Vibration    23          0.825              1.321              0.743
 Vibration    24          0.843              1.278              0.691
 Vibration    25          0.860              1.240              0.647
 Vibration    26          0.870              1.218              0.623
 Vibration    27          0.890              1.173              0.577
 Vibration    28          0.913              1.124              0.529
 Vibration    29          0.926              1.097              0.505
 Vibration    30          0.956              1.036              0.453

 Optimization completed.
    -- Stationary point found.
 Normal termination of Gaussian 16 at Sat Dec 12 16:20:14 2020.

 ----------------------------------------------------------------------
 # B3LYP/6-311++G(d,p) empiricaldispersion=gd3bj scf=xqc pop=npa geom=c
 heck
 ----------------------------------------------------------------------

 --------------------------------------
 CID_9592948_JID_10260_Energie_neutraal
 --------------------------------------
 Structure from the checkpoint file:  "JID_10260.chk"
 Charge =  0 Multiplicity = 1

 SCF Done:  E(RB3LYP) =  -899.225035174     A.U. after   16 cycles
 Normal termination of Gaussian 16 at Sat Dec 12 16:30:31 2020.

 ----------------------------------------------------------------------
 # B3LYP/6-311++G(d,p) empiricaldispersion=gd3bj scf=xqc pop=npa geom=c
 heck
 ----------------------------------------------------------------------

 ------------------------------------
 CID_9592948_JID_10260_Energie_kation
 ------------------------------------
 Structure from the checkpoint file:  "JID_10260.chk"
 Charge =  1 Multiplicity = 2

 SCF Done:  E(UB3LYP) =  -898.956678135     A.U. after   27 cycles
 Normal termination of Gaussian 16 at Sat Dec 12 16:54:54 2020.
 Gaussian 16:  ES64L-G16RevA.03 25-Dec-2016

 ----------------------------------------------------------------------
 # B3LYP/6-311++G(d,p) empiricaldispersion=gd3bj scf=xqc pop=npa geom=c
 heck
 ----------------------------------------------------------------------

 -----------------------------------
 CID_9592948_JID_10260_Energie_anion
 -----------------------------------
 Structure from the checkpoint file:  "JID_10260.chk"
 Charge = -1 Multiplicity = 2

                         Standard orientation:
 ---------------------------------------------------------------------
 Center     Atomic      Atomic             Coordinates (Angstroms)
 Number     Number       Type             X           Y           Z
 ---------------------------------------------------------------------
      1          6           0        3.122466    3.029053   -0.938097
      2          8           0        2.622782    1.709632   -0.787523
      3          6           0        3.382253    0.799995   -0.110346
      4          6           0        4.637735    1.086977    0.434103
      5          6           0        5.343590    0.091729    1.110758
      6          6           0        4.807970   -1.189176    1.253367
      7          6           0        3.557359   -1.471018    0.715330
      8          6           0        2.827212   -0.494160    0.024018
      9          6           0        1.516179   -0.777958   -0.556120
     10          7           0        1.008954   -1.958956   -0.485843
     11          7           0       -0.247206   -2.170138   -1.013208
     12          6           0       -1.430446   -1.441912   -0.935545
     13          8           0       -2.458242   -1.975299   -1.333584
     14          6           0       -1.414601   -0.042179   -0.298449
     15          7           0       -2.690609    0.432230    0.180537
     16          6           0       -3.653360    0.798108   -0.862989
     17          6           0       -4.810185    1.590588   -0.249944
     18          6           0       -5.477527    0.786532    0.872322
     19          6           0       -4.432930    0.358414    1.909692
     20          6           0       -3.280564   -0.391202    1.237178
     21          1           0        4.062271    3.038677   -1.504398
     22          1           0        3.280179    3.510377    0.035280
     23          1           0        2.358585    3.575137   -1.493493
     24          1           0        5.069218    2.075495    0.335290
     25          1           0        6.317804    0.326600    1.529993
     26          1           0        5.359702   -1.958810    1.783954
     27          1           0        3.113755   -2.455474    0.818123
     28          1           0        1.016236    0.048062   -1.055914
     29          1           0       -0.419204   -3.149680   -1.209485
     30          1           0       -0.700393   -0.042602    0.535166
     31          1           0       -1.033841    0.676468   -1.035318
     32          1           0       -4.042811   -0.088613   -1.385873
     33          1           0       -3.126835    1.410934   -1.605532
     34          1           0       -5.536730    1.841261   -1.032731
     35          1           0       -4.421347    2.533740    0.155780
     36          1           0       -6.275957    1.370560    1.346001
     37          1           0       -5.948492   -0.109478    0.442937
     38          1           0       -4.031467    1.246995    2.413924
     39          1           0       -4.886327   -0.280796    2.677314
     40          1           0       -2.495289   -0.612137    1.971353
     41          1           0       -3.644259   -1.356077    0.844399
 ---------------------------------------------------------------------

 SCF Done:  E(UB3LYP) =  -899.237198150     A.U. after   29 cycles

 The electronic state is 2-A.
 Alpha  occ. eigenvalues --  -19.03304 -18.95910 -14.22710 -14.20108 -14.16441
 Alpha  occ. eigenvalues --  -10.13725 -10.12211 -10.09165 -10.09061 -10.08998
 Alpha  occ. eigenvalues --  -10.08805 -10.08246 -10.07762 -10.07750 -10.03278
 Alpha  occ. eigenvalues --  -10.03173 -10.02711 -10.02261 -10.02194 -10.01491
 Alpha  occ. eigenvalues --   -0.94885  -0.91699  -0.84453  -0.82512  -0.71601
 Alpha  occ. eigenvalues --   -0.70972  -0.68314  -0.66026  -0.63286  -0.61360
 Alpha  occ. eigenvalues --   -0.60319  -0.57416  -0.53462  -0.53334  -0.50546
 Alpha  occ. eigenvalues --   -0.47382  -0.46349  -0.45412  -0.42808  -0.40155
 Alpha  occ. eigenvalues --   -0.39367  -0.37526  -0.37114  -0.37070  -0.36222
 Alpha  occ. eigenvalues --   -0.36095  -0.34919  -0.34089  -0.33689  -0.32569
 Alpha  occ. eigenvalues --   -0.31189  -0.30535  -0.30121  -0.29270  -0.28862
 Alpha  occ. eigenvalues --   -0.28129  -0.27208  -0.26053  -0.25889  -0.24698
 Alpha  occ. eigenvalues --   -0.24387  -0.24096  -0.22699  -0.22622  -0.22193
 Alpha  occ. eigenvalues --   -0.21423  -0.19753  -0.19457  -0.16456  -0.14620
 Alpha  occ. eigenvalues --   -0.12004  -0.10227  -0.09919  -0.07371   0.04417
 Alpha virt. eigenvalues --    0.06327   0.07320   0.08055   0.08555   0.09025
 Alpha virt. eigenvalues --    0.09275   0.10351   0.10909   0.11052   0.11294
 Alpha virt. eigenvalues --    0.11539   0.11686   0.12355   0.12439   0.13164

  Beta  occ. eigenvalues --  -19.03304 -18.95784 -14.22781 -14.20110 -14.15878
  Beta  occ. eigenvalues --  -10.13601 -10.12208 -10.09076 -10.09060 -10.08998
  Beta  occ. eigenvalues --  -10.08810 -10.08246 -10.07762 -10.07750 -10.03175
  Beta  occ. eigenvalues --  -10.03037 -10.02812 -10.02101 -10.01939 -10.01253
  Beta  occ. eigenvalues --   -0.94853  -0.91462  -0.83951  -0.82498  -0.71261
  Beta  occ. eigenvalues --   -0.70964  -0.67852  -0.66026  -0.63107  -0.61254
  Beta  occ. eigenvalues --   -0.59955  -0.57239  -0.53384  -0.53295  -0.49937
  Beta  occ. eigenvalues --   -0.47154  -0.46286  -0.45321  -0.42660  -0.39995
  Beta  occ. eigenvalues --   -0.39225  -0.37354  -0.37051  -0.36967  -0.36156
  Beta  occ. eigenvalues --   -0.36061  -0.34788  -0.33960  -0.33595  -0.32479
  Beta  occ. eigenvalues --   -0.31150  -0.30362  -0.29945  -0.29084  -0.28670
  Beta  occ. eigenvalues --   -0.28002  -0.26991  -0.26014  -0.25269  -0.24468
  Beta  occ. eigenvalues --   -0.24320  -0.24015  -0.22678  -0.22594  -0.22011
  Beta  occ. eigenvalues --   -0.20318  -0.19417  -0.18819  -0.16002  -0.13910
  Beta  occ. eigenvalues --   -0.11155  -0.09836  -0.09448  -0.05950
  Beta virt. eigenvalues --    0.06314   0.07292   0.08025   0.08531   0.08990
  Beta virt. eigenvalues --    0.09239   0.10283   0.10319   0.10951   0.11054
  Beta virt. eigenvalues --    0.11267   0.11526   0.11678   0.12332   0.12469

 Mulliken charges and spin densities:
               1          2
     1  C   -0.268297   0.000432
     2  O   -0.131113   0.005974
     3  C   -0.348485   0.060987
     4  C   -0.212512  -0.001042
     5  C   -0.449603   0.266136
     6  C   -0.547800  -0.074386
     7  C   -0.614398   0.253027
     8  C    1.149162   0.037252
     9  C   -0.391095   0.118801
    10  N   -0.099220   0.249801
    11  N   -0.078246  -0.023322
    12  C    0.017389   0.059497
    13  O   -0.318443   0.045116
    14  C   -0.568738   0.009623
    15  N    0.281960   0.002162
    16  C   -0.274411   0.004341
    17  C   -0.341090  -0.003566
    18  C   -0.263284   0.000138
    19  C   -0.378256  -0.002402
    20  C   -0.210211  -0.005462
    21  H    0.124893   0.002630
    22  H    0.129417   0.002397
    23  H    0.149745  -0.000355
    24  H    0.099318  -0.000542
    25  H    0.102502  -0.020346
    26  H    0.099393   0.005529
    27  H    0.168307  -0.015391
    28  H    0.147212   0.000999
    29  H    0.275992   0.011464
    30  H    0.231305  -0.004725
    31  H    0.143424   0.001823
    32  H    0.183439   0.000583
    33  H    0.116044   0.000310
    34  H    0.137301   0.000022
    35  H    0.125593   0.001877
    36  H    0.149646  -0.000006
    37  H    0.112219  -0.000124
    38  H    0.124709  -0.000059
    39  H    0.141713  -0.000085
    40  H    0.136129   0.004660
    41  H    0.148392   0.006233
 Sum of Mulliken charges =  -1.00000   1.00000

 Dipole moment (field-independent basis, Debye):
    X=             -5.8026    Y=              5.4709    Z=              0.6661  Tot=              8.0028
 Quadrupole moment (field-independent basis, Debye-Ang):
   XX=           -187.5960   YY=           -135.2562   ZZ=           -135.0929
   XY=              3.2851   XZ=             -9.3582   YZ=             -7.5044

 Summary of Natural Population Analysis:

                                       Natural Population
                Natural  -----------------------------------------------
    Atom  No    Charge         Core      Valence    Rydberg      Total
 -----------------------------------------------------------------------
      C    1   -0.09838      0.99961     2.09047    0.00830     3.09838
      O    2   -0.27647      0.99985     3.26753    0.00908     4.27647
      C    3    0.18424      0.99936     1.80527    0.01113     2.81576
      C    4   -0.16258      0.99953     2.15488    0.00817     3.16258
      C    5   -0.04259      0.99959     2.03304    0.00996     3.04259
      C    6   -0.14516      0.99957     2.13607    0.00952     3.14516
      C    7   -0.03521      0.99954     2.02653    0.00913     3.03521
      C    8   -0.05175      0.99948     2.04228    0.01000     3.05175
      C    9    0.06212      0.99960     1.92371    0.01457     2.93788
      N   10   -0.07703      0.99964     2.56372    0.01367     3.57703
      N   11   -0.23229      0.99967     2.71833    0.01429     3.73229
      C   12    0.33564      0.99969     1.64214    0.02253     2.66436
      O   13   -0.33081      0.99988     3.32428    0.00665     4.33081
      C   14   -0.12944      0.99958     2.11893    0.01093     3.12944
      N   15   -0.28545      0.99971     2.76820    0.01754     3.78545
      C   16   -0.08614      0.99962     2.07665    0.00987     3.08614
      C   17   -0.19249      0.99963     2.18595    0.00690     3.19249
      C   18   -0.18984      0.99964     2.18365    0.00655     3.18984
      C   19   -0.19193      0.99963     2.18531    0.00698     3.19193
      C   20   -0.08715      0.99962     2.07803    0.00950     3.08715
      H   21    0.07974      0.00000     0.41862    0.00164     0.42026
      H   22    0.08021      0.00000     0.41816    0.00163     0.41979
      H   23    0.08679      0.00000     0.41237    0.00083     0.41321
      H   24    0.09261      0.00000     0.40623    0.00116     0.40739
      H   25    0.08417      0.00000     0.41422    0.00161     0.41583
      H   26    0.09032      0.00000     0.40861    0.00107     0.40968
      H   27    0.10196      0.00000     0.39667    0.00137     0.39804
      H   28    0.07669      0.00000     0.42066    0.00265     0.42331
      H   29    0.18644      0.00000     0.31098    0.00257     0.31356
      H   30    0.11313      0.00000     0.38583    0.00104     0.38687
      H   31    0.10613      0.00000     0.39289    0.00098     0.39387
      H   32    0.09544      0.00000     0.40302    0.00154     0.40456
      H   33    0.09268      0.00000     0.40617    0.00115     0.40732
      H   34    0.09348      0.00000     0.40544    0.00108     0.40652
      H   35    0.09328      0.00000     0.40530    0.00142     0.40672
      H   36    0.09260      0.00000     0.40617    0.00123     0.40740
      H   37    0.09319      0.00000     0.40551    0.00130     0.40681
      H   38    0.09382      0.00000     0.40476    0.00142     0.40618
      H   39    0.09408      0.00000     0.40485    0.00107     0.40592
      H   40    0.09625      0.00000     0.40267    0.00108     0.40375
      H   41    0.08968      0.00000     0.40760    0.00273     0.41032
 =======================================================================
   * Total *   -0.00000     19.99245    53.76170    0.24585    74.00000

 Normal termination of Gaussian 16 at Sat Dec 12 17:19:30 2020.
