 Gaussian 16, Revision A.03,

 -----------------------------------------------------------
 # opt freq B3LYP/6-31G(d) empiricaldispersion=gd3bj scf=xqc
 -----------------------------------------------------------

 ------------------------------
 CID_59128722_JID_2919_neutraal
 ------------------------------
 Symbolic Z-matrix:
 Charge =  0 Multiplicity = 1

 SCF Done:  E(RB3LYP) =  -894.994535537     A.U. after   16 cycles
 SCF Done:  E(RB3LYP) =  -895.000271782     A.U. after   14 cycles
 SCF Done:  E(RB3LYP) =  -895.001098703     A.U. after   13 cycles
 SCF Done:  E(RB3LYP) =  -895.001081179     A.U. after   13 cycles
 SCF Done:  E(RB3LYP) =  -895.001696523     A.U. after   13 cycles
 SCF Done:  E(RB3LYP) =  -895.002056723     A.U. after   12 cycles
 SCF Done:  E(RB3LYP) =  -895.002156770     A.U. after   11 cycles
 SCF Done:  E(RB3LYP) =  -895.002203563     A.U. after   12 cycles
 SCF Done:  E(RB3LYP) =  -895.002232817     A.U. after   12 cycles
 SCF Done:  E(RB3LYP) =  -895.002278151     A.U. after   13 cycles
 SCF Done:  E(RB3LYP) =  -895.008809114     A.U. after   11 cycles
 SCF Done:  E(RB3LYP) =  -895.008815923     A.U. after   12 cycles
 SCF Done:  E(RB3LYP) =  -895.008817395     A.U. after   10 cycles
 SCF Done:  E(RB3LYP) =  -895.008817848     A.U. after   10 cycles
 SCF Done:  E(RB3LYP) =  -895.008817890     A.U. after    8 cycles
 SCF Done:  E(RB3LYP) =  -895.008817902     A.U. after    8 cycles
 Optimization completed.
    -- Stationary point found.
 Normal termination of Gaussian 16 at Wed Dec  9 18:37:30 2020.

 --------------------------------------------------------------------
 #N Geom=AllCheck Guess=TCheck SCRF=Check GenChk RB3LYP/6-31G(d) Freq
 --------------------------------------------------------------------

 Structure from the checkpoint file:  "JID_2919.chk"
 ------------------------------
 CID_59128722_JID_2919_neutraal
 ------------------------------
 Charge =  0 Multiplicity = 1

 SCF Done:  E(RB3LYP) =  -895.008817902     A.U. after    1 cycles

  Exact polarizability: 140.309   3.981 121.319  -0.002  -0.000  76.389
 Approx polarizability: 227.843   5.025 218.831  -0.006   0.002 115.172

                      1                      2                      3
                      A                      A                      A
 Frequencies --     13.1389                59.7061               142.4326
 Red. masses --      4.6792                 3.1557                 6.1003
 Frc consts  --      0.0005                 0.0066                 0.0729
 IR Inten    --      0.5991                 0.0555                 6.6244

                      4                      5                      6
                      A                      A                      A
 Frequencies --    155.7097               169.8703               183.9552
 Red. masses --      5.0794                 1.1536                 1.2022
 Frc consts  --      0.0726                 0.0196                 0.0240
 IR Inten    --      0.5448                 0.8968                 0.0122

                      7                      8                      9
                      A                      A                      A
 Frequencies --    233.7210               234.0270               236.5383
 Red. masses --      1.0804                 2.0508                 3.3953
 Frc consts  --      0.0348                 0.0662                 0.1119
 IR Inten    --      0.0291                 0.0034                 0.5163

                     10                     11                     12
                      A                      A                      A
 Frequencies --    267.9528               292.9476               293.8457
 Red. masses --      1.8021                 1.6045                 2.8492
 Frc consts  --      0.0762                 0.0811                 0.1449
 IR Inten    --      0.0139                 0.2359                 0.6468

                     13                     14                     15
                      A                      A                      A
 Frequencies --    365.2145               388.1809               393.3217
 Red. masses --      2.8274                 2.2680                 2.9981
 Frc consts  --      0.2222                 0.2014                 0.2733
 IR Inten    --      3.3021                 0.0574                 3.5002

                     16                     17                     18
                      A                      A                      A
 Frequencies --    403.0990               502.6225               528.5830
 Red. masses --      6.7053                 4.4959                 9.7250
 Frc consts  --      0.6419                 0.6692                 1.6009
 IR Inten    --      0.7903                19.8717                 1.4822

                     19                     20                     21
                      A                      A                      A
 Frequencies --    537.2861               605.0719               619.5490
 Red. masses --      8.6177                 5.3946                 4.6828
 Frc consts  --      1.4657                 1.1637                 1.0590
 IR Inten    --     26.7925                 0.6512                 1.9087

                     22                     23                     24
                      A                      A                      A
 Frequencies --    669.3568               774.9689               798.4628
 Red. masses --      6.0891                 6.6946                 6.0883
 Frc consts  --      1.6074                 2.3689                 2.2870
 IR Inten    --      0.0006                 2.1181                18.2395

                     25                     26                     27
                      A                      A                      A
 Frequencies --    836.0297               951.5131               955.3802
 Red. masses --      3.3293                 1.7382                 1.7196
 Frc consts  --      1.3710                 0.9272                 0.9248
 IR Inten    --      1.0546                 1.0854                 1.3556

                     28                     29                     30
                      A                      A                      A
 Frequencies --    964.2952               979.2047               995.7583
 Red. masses --      4.0214                 1.1998                 2.3133
 Frc consts  --      2.2032                 0.6778                 1.3514
 IR Inten    --    108.1291                 0.0397                 4.9846

                     31                     32                     33
                      A                      A                      A
 Frequencies --   1041.1584              1052.1952              1067.1490
 Red. masses --      3.2481                 1.4312                 1.5170
 Frc consts  --      2.0745                 0.9336                 1.0178
 IR Inten    --      3.6431                 0.0022                 0.6240

                     34                     35                     36
                      A                      A                      A
 Frequencies --   1072.4907              1196.4832              1239.7382
 Red. masses --      1.4980                 4.0333                 2.6834
 Frc consts  --      1.0152                 3.4019                 2.4299
 IR Inten    --      2.4047               105.3732                 1.3704

                     37                     38                     39
                      A                      A                      A
 Frequencies --   1258.5422              1296.4657              1334.0240
 Red. masses --      2.7914                 3.4074                 5.9445
 Frc consts  --      2.6050                 3.3744                 6.2330
 IR Inten    --      2.3850                13.4901                15.0458

                     40                     41                     42
                      A                      A                      A
 Frequencies --   1365.4511              1429.8371              1432.0762
 Red. masses --      7.0414                 1.1983                 1.2290
 Frc consts  --      7.7350                 1.4434                 1.4850
 IR Inten    --     39.3196                 5.7837                 5.0039

                     43                     44                     45
                      A                      A                      A
 Frequencies --   1442.5369              1461.9630              1502.6903
 Red. masses --      1.2942                 1.2184                 1.1751
 Frc consts  --      1.5867                 1.5343                 1.5633
 IR Inten    --     16.9302                 6.7159                31.9354

                     46                     47                     48
                      A                      A                      A
 Frequencies --   1503.4091              1509.3804              1511.5365
 Red. masses --      1.0447                 1.0479                 1.2392
 Frc consts  --      1.3912                 1.4066                 1.6681
 IR Inten    --      7.9366                 0.3973                13.1945

                     49                     50                     51
                      A                      A                      A
 Frequencies --   1515.2142              1515.2797              1532.0582
 Red. masses --      3.0031                 1.0466                 1.0498
 Frc consts  --      4.0623                 1.4159                 1.4518
 IR Inten    --     72.1418                 0.0291                 4.3052

                     52                     53                     54
                      A                      A                      A
 Frequencies --   1535.2067              1547.0283              1747.8364
 Red. masses --      1.0548                 1.0707                12.1208
 Frc consts  --      1.4647                 1.5097                21.8165
 IR Inten    --      9.7553                27.3651               116.0657

                     55                     56                     57
                      A                      A                      A
 Frequencies --   3055.9957              3057.4100              3066.1230
 Red. masses --      1.0356                 1.0363                 1.0368
 Frc consts  --      5.6983                 5.7074                 5.7426
 IR Inten    --     23.4564                 9.6778                21.3384

                     58                     59                     60
                      A                      A                      A
 Frequencies --   3075.0358              3121.8467              3122.5930
 Red. masses --      1.0349                 1.1031                 1.1025
 Frc consts  --      5.7656                 6.3341                 6.3339
 IR Inten    --      6.4578                 8.3412                15.3200

                     61                     62                     63
                      A                      A                      A
 Frequencies --   3135.3014              3135.4841              3137.4461
 Red. masses --      1.1015                 1.1001                 1.1010
 Frc consts  --      6.3796                 6.3723                 6.3852
 IR Inten    --     34.6368                 4.4091                 2.1652

                     64                     65                     66
                      A                      A                      A
 Frequencies --   3141.0532              3146.8704              3163.5675
 Red. masses --      1.0998                 1.1027                 1.1050
 Frc consts  --      6.3932                 6.4337                 6.5156
 IR Inten    --     53.7259                21.5012                11.5945

 - Thermochemistry -
 -------------------
 Temperature   298.150 Kelvin.  Pressure   1.00000 Atm.
 Atom     1 has atomic number  6 and mass  12.00000

 Molecular mass:   184.06703 amu.
 Principal axes and moments of inertia in atomic units:
                           1         2         3
     Eigenvalues --  1312.347442796.493703693.80732
           X            0.99883   0.04831   0.00000
           Y           -0.04831   0.99883  -0.00001
           Z           -0.00000   0.00001   1.00000
 This molecule is an asymmetric top.
 Rotational symmetry number  1.
 Warning -- assumption of classical behavior for rotation
           may cause significant error
 Rotational temperatures (Kelvin)      0.06600     0.03097     0.02345
 Rotational constants (GHZ):           1.37520     0.64536     0.48859
 Zero-point vibrational energy     508533.9 (Joules/Mol)
                                  121.54251 (Kcal/Mol)
 Warning -- explicit consideration of  21 degrees of freedom as
           vibrations may cause significant error
 Vibrational temperatures:     18.90    85.90   204.93   224.03   244.41
          (Kelvin)            264.67   336.27   336.71   340.33   385.52
                              421.49   422.78   525.46   558.51   565.90
                              579.97   723.16   760.51   773.03   870.56
                              891.39   963.06  1115.01  1148.81  1202.86
                             1369.02  1374.58  1387.41  1408.86  1432.67
                             1497.99  1513.87  1535.39  1543.07  1721.47
                             1783.71  1810.76  1865.33  1919.36  1964.58
                             2057.22  2060.44  2075.49  2103.44  2162.04
                             2163.07  2171.66  2174.76  2180.06  2180.15
                             2204.29  2208.82  2225.83  2514.75  4396.90
                             4398.93  4411.47  4424.29  4491.64  4492.71
                             4511.00  4511.26  4514.09  4519.27  4527.64
                             4551.67

 Zero-point correction=                           0.193690 (Hartree/Particle)
 Thermal correction to Energy=                    0.206626
 Thermal correction to Enthalpy=                  0.207571
 Thermal correction to Gibbs Free Energy=         0.153668
 Sum of electronic and zero-point Energies=           -894.815128
 Sum of electronic and thermal Energies=              -894.802191
 Sum of electronic and thermal Enthalpies=            -894.801247
 Sum of electronic and thermal Free Energies=         -894.855150

                     E (Thermal)             CV                S
                      KCal/Mol        Cal/Mol-Kelvin    Cal/Mol-Kelvin
 Total                  129.660             47.686            113.447
 Electronic               0.000              0.000              0.000
 Translational            0.889              2.981             41.537
 Rotational               0.889              2.981             30.984
 Vibrational            127.883             41.724             40.927
 Vibration     1          0.593              1.987              7.469
 Vibration     2          0.597              1.974              4.467
 Vibration     3          0.616              1.911              2.771
 Vibration     4          0.620              1.896              2.601
 Vibration     5          0.625              1.880              2.437
 Vibration     6          0.631              1.862              2.288
 Vibration     7          0.654              1.789              1.850
 Vibration     8          0.654              1.789              1.848
 Vibration     9          0.655              1.785              1.829
 Vibration    10          0.673              1.732              1.609
 Vibration    11          0.688              1.687              1.457
 Vibration    12          0.689              1.685              1.452
 Vibration    13          0.738              1.544              1.100
 Vibration    14          0.756              1.495              1.007
 Vibration    15          0.761              1.484              0.988
 Vibration    16          0.768              1.463              0.951
 Vibration    17          0.858              1.244              0.652
 Vibration    18          0.884              1.187              0.590
 Vibration    19          0.892              1.168              0.571
 Vibration    20          0.964              1.021              0.441
 Vibration    21          0.980              0.991              0.417

 Optimization completed.
    -- Stationary point found.
 Normal termination of Gaussian 16 at Wed Dec  9 18:42:32 2020.

 ----------------------------------------------------------------------
 # B3LYP/6-311++G(d,p) empiricaldispersion=gd3bj scf=xqc pop=npa geom=c
 heck
 ----------------------------------------------------------------------

 --------------------------------------
 CID_59128722_JID_2919_Energie_neutraal
 --------------------------------------
 Structure from the checkpoint file:  "JID_2919.chk"
 Charge =  0 Multiplicity = 1

 SCF Done:  E(RB3LYP) =  -895.169778408     A.U. after   16 cycles
 Normal termination of Gaussian 16 at Wed Dec  9 18:44:34 2020.

 ----------------------------------------------------------------------
 # B3LYP/6-311++G(d,p) empiricaldispersion=gd3bj scf=xqc pop=npa geom=c
 heck
 ----------------------------------------------------------------------

 ------------------------------------
 CID_59128722_JID_2919_Energie_kation
 ------------------------------------
 Structure from the checkpoint file:  "JID_2919.chk"
 Charge =  1 Multiplicity = 2

 SCF Done:  E(UB3LYP) =  -894.825362302     A.U. after   32 cycles
 Normal termination of Gaussian 16 at Wed Dec  9 18:49:49 2020.
 Gaussian 16:  ES64L-G16RevA.03 25-Dec-2016

 ----------------------------------------------------------------------
 # B3LYP/6-311++G(d,p) empiricaldispersion=gd3bj scf=xqc pop=npa geom=c
 heck
 ----------------------------------------------------------------------

 -----------------------------------
 CID_59128722_JID_2919_Energie_anion
 -----------------------------------
 Structure from the checkpoint file:  "JID_2919.chk"
 Charge = -1 Multiplicity = 2

                         Standard orientation:
 ---------------------------------------------------------------------
 Center     Atomic      Atomic             Coordinates (Angstroms)
 Number     Number       Type             X           Y           Z
 ---------------------------------------------------------------------
      1          6           0        2.053958    2.253865   -0.000175
      2          6           0        1.841445    0.773687   -0.000017
      3          6           0        0.640032    0.071544    0.000036
      4         16           0        1.016312   -1.611242    0.000092
      5          7           0        2.715636   -1.299252   -0.000001
      6          7           0        2.948365   -0.042044   -0.000059
      7          6           0       -0.705803    0.720165    0.000128
      8          8           0       -0.746535    1.942138    0.000392
      9          6           0       -2.004385   -0.107283   -0.000054
     10          6           0       -2.075029   -0.984045    1.269044
     11          6           0       -3.193293    0.865842   -0.000249
     12          6           0       -2.074734   -0.984125   -1.269115
     13          1           0        1.589499    2.717607   -0.875052
     14          1           0        1.589814    2.717777    0.874781
     15          1           0        3.127093    2.456728   -0.000369
     16          1           0       -1.999317   -0.371309    2.173933
     17          1           0       -3.038250   -1.505062    1.294222
     18          1           0       -1.289436   -1.743321    1.307094
     19          1           0       -3.176722    1.511769   -0.882194
     20          1           0       -4.129698    0.297829   -0.000293
     21          1           0       -3.176881    1.511950    0.881557
     22          1           0       -1.998493   -0.371513   -2.174044
     23          1           0       -1.289373   -1.743659   -1.306782
     24          1           0       -3.038105   -1.504855   -1.294630
 ---------------------------------------------------------------------

 SCF Done:  E(UB3LYP) =  -895.208004245     A.U. after   22 cycles

 The electronic state is 2-A.
 Alpha  occ. eigenvalues --  -88.71832 -18.93056 -14.18253 -14.18081 -10.08523
 Alpha  occ. eigenvalues --  -10.06277 -10.04646 -10.04469 -10.04469 -10.03999
 Alpha  occ. eigenvalues --  -10.03689 -10.02467  -7.80489  -5.76820  -5.76404
 Alpha  occ. eigenvalues --   -5.76094  -0.87814  -0.86999  -0.69568  -0.65474
 Alpha  occ. eigenvalues --   -0.64319  -0.57357  -0.56830  -0.54765  -0.50234
 Alpha  occ. eigenvalues --   -0.45558  -0.40414  -0.36703  -0.34392  -0.32668
 Alpha  occ. eigenvalues --   -0.32011  -0.29822  -0.29485  -0.28278  -0.27944
 Alpha  occ. eigenvalues --   -0.26703  -0.25844  -0.25438  -0.24880  -0.23817
 Alpha  occ. eigenvalues --   -0.23491  -0.21220  -0.20961  -0.19891  -0.17976
 Alpha  occ. eigenvalues --   -0.13754  -0.10556  -0.09765  -0.08936   0.02805
 Alpha virt. eigenvalues --    0.08097   0.10300   0.10358   0.10617   0.11637
 Alpha virt. eigenvalues --    0.12735   0.12745   0.13855   0.13928   0.14240
 Alpha virt. eigenvalues --    0.14618   0.15408   0.15538   0.15964   0.16863

  Beta  occ. eigenvalues --  -88.71746 -18.92514 -14.18116 -14.17543 -10.08284
  Beta  occ. eigenvalues --  -10.06297 -10.04498 -10.04452 -10.04452 -10.03999
  Beta  occ. eigenvalues --  -10.03511 -10.02480  -7.80413  -5.76783  -5.76367
  Beta  occ. eigenvalues --   -5.75809  -0.86953  -0.86285  -0.69443  -0.64969
  Beta  occ. eigenvalues --   -0.63872  -0.57308  -0.56810  -0.54408  -0.49536
  Beta  occ. eigenvalues --   -0.45160  -0.40128  -0.36348  -0.34198  -0.32477
  Beta  occ. eigenvalues --   -0.31900  -0.29247  -0.29054  -0.27986  -0.27756
  Beta  occ. eigenvalues --   -0.26404  -0.25729  -0.25326  -0.23883  -0.23616
  Beta  occ. eigenvalues --   -0.22559  -0.21108  -0.19665  -0.19459  -0.17497
  Beta  occ. eigenvalues --   -0.12245  -0.09390  -0.08413  -0.08263
  Beta virt. eigenvalues --    0.08088   0.09889   0.10293   0.10416   0.10608
  Beta virt. eigenvalues --    0.11639   0.12754   0.12837   0.13863   0.14252
  Beta virt. eigenvalues --    0.14314   0.15342   0.15689   0.15982   0.16579

 Mulliken charges and spin densities:
               1          2
     1  C   -0.441435  -0.011614
     2  C    0.500888   0.148169
     3  C    0.859314   0.098398
     4  S   -0.001628   0.151113
     5  N   -0.126544   0.300720
     6  N   -0.100428  -0.022475
     7  C   -2.078193   0.149201
     8  O   -0.335628   0.185240
     9  C    0.895382  -0.040722
    10  C   -0.587348   0.006893
    11  C   -0.588225  -0.001861
    12  C   -0.587413   0.006846
    13  H    0.146374   0.006029
    14  H    0.146380   0.006028
    15  H    0.128746  -0.000600
    16  H    0.148995   0.004612
    17  H    0.114487   0.003825
    18  H    0.110357   0.001396
    19  H    0.154558  -0.000244
    20  H    0.112901  -0.000554
    21  H    0.154594  -0.000241
    22  H    0.148997   0.004625
    23  H    0.110397   0.001394
    24  H    0.114473   0.003821
 Sum of Mulliken charges =  -1.00000   1.00000

 Dipole moment (field-independent basis, Debye):
    X=             -5.6940    Y=             -0.4265    Z=             -0.0006  Tot=              5.7099
 Quadrupole moment (field-independent basis, Debye-Ang):
   XX=           -117.1151   YY=           -100.8632   ZZ=            -86.0962
   XY=              9.5462   XZ=              0.0007   YZ=             -0.0017

 Summary of Natural Population Analysis:

                                       Natural Population
                Natural  -----------------------------------------------
    Atom  No    Charge         Core      Valence    Rydberg      Total
 -----------------------------------------------------------------------
      C    1   -0.29575      0.99963     2.29120    0.00492     3.29575
      C    2    0.08724      0.99949     1.89580    0.01747     2.91276
      C    3   -0.13483      0.99940     2.12332    0.01211     3.13483
      S    4    0.25734      4.99945     2.71754    0.02567     7.74266
      N    5   -0.08362      0.99982     2.56523    0.01858     3.58362
      N    6   -0.14462      0.99970     2.62709    0.01783     3.64462
      C    7    0.29360      0.99955     1.68290    0.02395     2.70640
      O    8   -0.24780      0.99988     3.24196    0.00595     4.24780
      C    9   -0.08071      0.99957     2.07147    0.00968     3.08071
      C   10   -0.28064      0.99964     2.27559    0.00541     3.28064
      C   11   -0.28081      0.99965     2.27421    0.00695     3.28081
      C   12   -0.28064      0.99964     2.27559    0.00541     3.28064
      H   13    0.10698      0.00000     0.39196    0.00106     0.39302
      H   14    0.10698      0.00000     0.39196    0.00106     0.39302
      H   15    0.09659      0.00000     0.40214    0.00127     0.40341
      H   16    0.09885      0.00000     0.40038    0.00077     0.40115
      H   17    0.08954      0.00000     0.40953    0.00093     0.41046
      H   18    0.10553      0.00000     0.39321    0.00126     0.39447
      H   19    0.10331      0.00000     0.39581    0.00088     0.39669
      H   20    0.08623      0.00000     0.41288    0.00089     0.41377
      H   21    0.10332      0.00000     0.39580    0.00088     0.39668
      H   22    0.09885      0.00000     0.40038    0.00077     0.40115
      H   23    0.10553      0.00000     0.39321    0.00126     0.39447
      H   24    0.08954      0.00000     0.40953    0.00093     0.41046
 =======================================================================
   * Total *   -0.00000     15.99540    32.83870    0.16591    49.00000

 Normal termination of Gaussian 16 at Wed Dec  9 18:53:30 2020.
