 Gaussian 16, Revision A.03,

 -----------------------------------------------------------
 # opt freq B3LYP/6-31G(d) empiricaldispersion=gd3bj scf=xqc
 -----------------------------------------------------------

 ------------------------------
 CID_23850395_JID_8071_neutraal
 ------------------------------
 Symbolic Z-matrix:
 Charge =  0 Multiplicity = 1

 SCF Done:  E(RB3LYP) =  -1451.45588377     A.U. after   15 cycles
 SCF Done:  E(RB3LYP) =  -1451.46458204     A.U. after   14 cycles
 SCF Done:  E(RB3LYP) =  -1451.46417813     A.U. after   13 cycles
 SCF Done:  E(RB3LYP) =  -1451.46841844     A.U. after   13 cycles
 SCF Done:  E(RB3LYP) =  -1451.47282866     A.U. after   12 cycles
 SCF Done:  E(RB3LYP) =  -1451.47583772     A.U. after   13 cycles
 SCF Done:  E(RB3LYP) =  -1451.47742653     A.U. after   13 cycles
 SCF Done:  E(RB3LYP) =  -1451.47830317     A.U. after   12 cycles
 SCF Done:  E(RB3LYP) =  -1451.47867943     A.U. after   12 cycles
 SCF Done:  E(RB3LYP) =  -1451.47871651     A.U. after   12 cycles
 SCF Done:  E(RB3LYP) =  -1451.47889874     A.U. after    8 cycles
 SCF Done:  E(RB3LYP) =  -1451.47889878     A.U. after    8 cycles
 SCF Done:  E(RB3LYP) =  -1451.47889883     A.U. after    7 cycles
 SCF Done:  E(RB3LYP) =  -1451.47889885     A.U. after    7 cycles
 Optimization completed.
    -- Stationary point found.
 Normal termination of Gaussian 16 at Fri Dec 11 18:59:02 2020.

 --------------------------------------------------------------------
 #N Geom=AllCheck Guess=TCheck SCRF=Check GenChk RB3LYP/6-31G(d) Freq
 --------------------------------------------------------------------

 Structure from the checkpoint file:  "JID_8071.chk"
 ------------------------------
 CID_23850395_JID_8071_neutraal
 ------------------------------
 Charge =  0 Multiplicity = 1

 SCF Done:  E(RB3LYP) =  -1451.47889885     A.U. after    1 cycles

  Exact polarizability: 246.606   8.323 189.799  -5.408   9.460 142.062
 Approx polarizability: 358.917  12.679 306.954  -2.724  19.818 236.150

                      1                      2                      3
                      A                      A                      A
 Frequencies --     17.6380                29.4176                47.5181
 Red. masses --      4.2349                 4.5405                 3.8608
 Frc consts  --      0.0008                 0.0023                 0.0051
 IR Inten    --      0.7098                 0.4425                 0.8734

                      4                      5                      6
                      A                      A                      A
 Frequencies --     59.1296                69.2684                91.3451
 Red. masses --      5.2849                 4.0044                 4.1075
 Frc consts  --      0.0109                 0.0113                 0.0202
 IR Inten    --      0.1020                 0.2634                 0.0599

                      7                      8                      9
                      A                      A                      A
 Frequencies --    108.1559               175.7298               207.1002
 Red. masses --      3.4477                 1.8497                 4.4878
 Frc consts  --      0.0238                 0.0337                 0.1134
 IR Inten    --      0.8053                 0.3873                 1.2156

                     10                     11                     12
                      A                      A                      A
 Frequencies --    222.6718               233.6902               238.8379
 Red. masses --      1.9829                 3.6412                 1.0934
 Frc consts  --      0.0579                 0.1172                 0.0367
 IR Inten    --      0.2503                 3.9776                 0.3312

                     13                     14                     15
                      A                      A                      A
 Frequencies --    277.3185               288.4671               299.3871
 Red. masses --      3.8016                 3.6398                 3.8121
 Frc consts  --      0.1723                 0.1785                 0.2013
 IR Inten    --      2.2810                 2.0280                 4.0880

                     16                     17                     18
                      A                      A                      A
 Frequencies --    343.2272               378.1032               395.5173
 Red. masses --      2.9985                 3.4228                 1.5281
 Frc consts  --      0.2081                 0.2883                 0.1408
 IR Inten    --      3.7015                 0.6481                 0.5939

                     19                     20                     21
                      A                      A                      A
 Frequencies --    402.8590               418.0649               420.0534
 Red. masses --      2.3977                 3.4661                 2.5504
 Frc consts  --      0.2293                 0.3569                 0.2651
 IR Inten    --      1.9913                 0.5718                 0.2380

                     22                     23                     24
                      A                      A                      A
 Frequencies --    422.2863               440.3727               457.5469
 Red. masses --      1.9497                 3.1089                 3.4414
 Frc consts  --      0.2048                 0.3552                 0.4245
 IR Inten    --      0.8963                 0.9664                 1.3716

                     25                     26                     27
                      A                      A                      A
 Frequencies --    476.6980               506.4213               539.4362
 Red. masses --      2.3940                 3.3577                 3.1633
 Frc consts  --      0.3205                 0.5074                 0.5423
 IR Inten    --      4.6772                 9.5354                 4.1379

                     28                     29                     30
                      A                      A                      A
 Frequencies --    588.8538               603.8190               637.8604
 Red. masses --      7.2276                 4.5722                 6.2759
 Frc consts  --      1.4766                 0.9822                 1.5045
 IR Inten    --      5.6545                13.0357                 0.0520

                     31                     32                     33
                      A                      A                      A
 Frequencies --    680.8720               718.2648               727.9381
 Red. masses --      5.4822                 2.1397                 3.0830
 Frc consts  --      1.4974                 0.6504                 0.9625
 IR Inten    --     12.5088                15.9157                23.5238

                     34                     35                     36
                      A                      A                      A
 Frequencies --    756.8224               784.6413               835.3643
 Red. masses --      2.7444                 3.4061                 3.2657
 Frc consts  --      0.9262                 1.2355                 1.3427
 IR Inten    --      8.2310                12.1439                 3.1349

                     37                     38                     39
                      A                      A                      A
 Frequencies --    858.1561               863.8632               887.5486
 Red. masses --      2.9218                 1.2452                 4.8766
 Frc consts  --      1.2677                 0.5475                 2.2633
 IR Inten    --     10.3682                 0.0416                25.4615

                     40                     41                     42
                      A                      A                      A
 Frequencies --    935.2133               940.2551               941.8658
 Red. masses --      1.4578                 1.7136                 1.7082
 Frc consts  --      0.7512                 0.8926                 0.8928
 IR Inten    --      3.8275                 1.9837                 0.8973

                     43                     44                     45
                      A                      A                      A
 Frequencies --    957.3445               965.0612               970.0521
 Red. masses --      1.7870                 1.9640                 1.3699
 Frc consts  --      0.9650                 1.0777                 0.7595
 IR Inten    --     45.7094                 7.0625                 1.1192

                     46                     47                     48
                      A                      A                      A
 Frequencies --    979.6860               990.8311               999.7338
 Red. masses --      1.1988                 2.0335                 1.2547
 Frc consts  --      0.6779                 1.1762                 0.7389
 IR Inten    --      0.6517                26.5764                 0.8610

                     49                     50                     51
                      A                      A                      A
 Frequencies --   1022.5017              1044.9284              1060.4824
 Red. masses --      6.1846                 2.1860                 2.2735
 Frc consts  --      3.8097                 1.4063                 1.5064
 IR Inten    --      2.2394                13.5678                 6.8768

                     52                     53                     54
                      A                      A                      A
 Frequencies --   1068.4800              1076.1227              1110.4391
 Red. masses --      1.3864                 1.9790                 1.8182
 Frc consts  --      0.9326                 1.3502                 1.3209
 IR Inten    --      0.7990                75.8096                 3.0515

                     55                     56                     57
                      A                      A                      A
 Frequencies --   1128.9313              1151.4018              1181.8425
 Red. masses --      3.2163                 2.0869                 1.6435
 Frc consts  --      2.4151                 1.6301                 1.3525
 IR Inten    --    190.4223                21.2741                17.0657

                     58                     59                     60
                      A                      A                      A
 Frequencies --   1195.4048              1216.4538              1224.1758
 Red. masses --      1.0986                 1.1628                 1.7509
 Frc consts  --      0.9249                 1.0138                 1.5460
 IR Inten    --      0.1633                 1.5870                89.3404

                     61                     62                     63
                      A                      A                      A
 Frequencies --   1229.4943              1262.5582              1265.3089
 Red. masses --      3.0161                 2.3609                 2.1555
 Frc consts  --      2.6863                 2.2173                 2.0333
 IR Inten    --     14.9245                20.6631                24.1502

                     64                     65                     66
                      A                      A                      A
 Frequencies --   1266.5641              1301.8765              1355.0282
 Red. masses --      2.4060                 1.7551                 2.7987
 Frc consts  --      2.2741                 1.7527                 3.0276
 IR Inten    --     17.7488                28.4395                18.8254

                     67                     68                     69
                      A                      A                      A
 Frequencies --   1363.0087              1369.5056              1383.9964
 Red. masses --      1.3092                 1.7227                 1.3729
 Frc consts  --      1.4331                 1.9037                 1.5493
 IR Inten    --     15.0830                11.0005               178.6142

                     70                     71                     72
                      A                      A                      A
 Frequencies --   1391.6271              1398.6036              1424.9602
 Red. masses --      1.8283                 1.5183                 1.2315
 Frc consts  --      2.0862                 1.7499                 1.4733
 IR Inten    --     80.3767               105.3094                15.6062

                     73                     74                     75
                      A                      A                      A
 Frequencies --   1426.4616              1453.4775              1467.3122
 Red. masses --      1.2603                 1.3137                 1.4268
 Frc consts  --      1.5110                 1.6351                 1.8099
 IR Inten    --      4.2304                 9.7781                50.7243

                     76                     77                     78
                      A                      A                      A
 Frequencies --   1501.6290              1503.5487              1504.4315
 Red. masses --      1.0557                 1.1876                 1.8835
 Frc consts  --      1.4025                 1.5818                 2.5117
 IR Inten    --      1.4745                 6.3110                 7.1241

                     79                     80                     81
                      A                      A                      A
 Frequencies --   1517.0673              1527.1937              1530.9819
 Red. masses --      1.0553                 1.0811                 1.0502
 Frc consts  --      1.4310                 1.4856                 1.4504
 IR Inten    --      9.3709                 3.7973                 0.6657

                     82                     83                     84
                      A                      A                      A
 Frequencies --   1539.3409              1545.9626              1547.2296
 Red. masses --      1.0814                 1.1421                 1.8653
 Frc consts  --      1.5098                 1.6082                 2.6309
 IR Inten    --      1.1002                 7.5205                10.7794

                     85                     86                     87
                      A                      A                      A
 Frequencies --   1551.0596              1565.3649              1646.8172
 Red. masses --      1.0811                 1.0632                 5.4694
 Frc consts  --      1.5324                 1.5350                 8.7395
 IR Inten    --      5.9363                11.4444                 1.1233

                     88                     89                     90
                      A                      A                      A
 Frequencies --   1666.4831              2992.5267              3013.9420
 Red. masses --      5.5798                 1.0667                 1.0762
 Frc consts  --      9.1300                 5.6281                 5.7599
 IR Inten    --      1.2576                34.5908                27.2437

                     91                     92                     93
                      A                      A                      A
 Frequencies --   3052.2131              3052.9442              3055.8623
 Red. masses --      1.0383                 1.0594                 1.0384
 Frc consts  --      5.6989                 5.8174                 5.7130
 IR Inten    --     23.8548                29.2308                27.9926

                     94                     95                     96
                      A                      A                      A
 Frequencies --   3065.8294              3091.9699              3097.9200
 Red. masses --      1.0407                 1.0959                 1.1057
 Frc consts  --      5.7632                 6.1729                 6.2523
 IR Inten    --     23.7281                12.7604                19.4590

                     97                     98                     99
                      A                      A                      A
 Frequencies --   3114.7886              3124.4104              3125.5244
 Red. masses --      1.1025                 1.1029                 1.1027
 Frc consts  --      6.3023                 6.3434                 6.3466
 IR Inten    --     13.9105                33.9344                 9.0666

                    100                    101                    102
                      A                      A                      A
 Frequencies --   3138.4604              3172.9974              3177.4338
 Red. masses --      1.1003                 1.0874                 1.0981
 Frc consts  --      6.3858                 6.4501                 6.5322
 IR Inten    --     53.1774                13.6537                 1.4933

                    103                    104                    105
                      A                      A                      A
 Frequencies --   3177.9147              3186.4280              3191.9980
 Red. masses --      1.0874                 1.0970                 1.0890
 Frc consts  --      6.4701                 6.5626                 6.5372
 IR Inten    --      7.8588                 3.4565                 4.5186

                    106                    107                    108
                      A                      A                      A
 Frequencies --   3201.3947              3213.6027              3252.5024
 Red. masses --      1.0935                 1.0978                 1.0865
 Frc consts  --      6.6029                 6.6799                 6.7718
 IR Inten    --     30.4935                20.7064                 9.3867

 - Thermochemistry -
 -------------------
 Temperature   298.150 Kelvin.  Pressure   1.00000 Atm.
 Atom     1 has atomic number  6 and mass  12.00000

 Molecular mass:   280.10679 amu.
 Principal axes and moments of inertia in atomic units:
                           1         2         3
     Eigenvalues --  2842.255008935.69374**********
           X            0.99961   0.02738  -0.00524
           Y           -0.02730   0.99950   0.01568
           Z            0.00566  -0.01553   0.99986
 This molecule is an asymmetric top.
 Rotational symmetry number  1.
 Warning -- assumption of classical behavior for rotation
           may cause significant error
 Rotational temperatures (Kelvin)      0.03047     0.00969     0.00834
 Rotational constants (GHZ):           0.63497     0.20197     0.17371
 Zero-point vibrational energy     847428.8 (Joules/Mol)
                                  202.54034 (Kcal/Mol)
 Warning -- explicit consideration of  29 degrees of freedom as
           vibrations may cause significant error
 Vibrational temperatures:     25.38    42.33    68.37    85.07    99.66
          (Kelvin)            131.43   155.61   252.84   297.97   320.38
                              336.23   343.63   399.00   415.04   430.75
                              493.83   544.01   569.06   579.62   601.50
                              604.36   607.58   633.60   658.31   685.86
                              728.63   776.13   847.23   868.76   917.74
                              979.62  1033.42  1047.34  1088.90  1128.92
                             1201.90  1234.70  1242.91  1276.98  1345.56
                             1352.82  1355.13  1377.41  1388.51  1395.69
                             1409.55  1425.58  1438.39  1471.15  1503.42
                             1525.80  1537.30  1548.30  1597.67  1624.28
                             1656.61  1700.41  1719.92  1750.21  1761.32
                             1768.97  1816.54  1820.50  1822.30  1873.11
                             1949.58  1961.07  1970.41  1991.26  2002.24
                             2012.28  2050.20  2052.36  2091.23  2111.13
                             2160.51  2163.27  2164.54  2182.72  2197.29
                             2202.74  2214.77  2224.30  2226.12  2231.63
                             2252.21  2369.40  2397.70  4305.58  4336.39
                             4391.45  4392.51  4396.70  4411.04  4448.66
                             4457.22  4481.49  4495.33  4496.93  4515.54
                             4565.24  4571.62  4572.31  4584.56  4592.57
                             4606.09  4623.66  4679.63

 Zero-point correction=                           0.322769 (Hartree/Particle)
 Thermal correction to Energy=                    0.340750
 Thermal correction to Enthalpy=                  0.341694
 Thermal correction to Gibbs Free Energy=         0.275029
 Sum of electronic and zero-point Energies=          -1451.156130
 Sum of electronic and thermal Energies=             -1451.138149
 Sum of electronic and thermal Enthalpies=           -1451.137205
 Sum of electronic and thermal Free Energies=        -1451.203870

                     E (Thermal)             CV                S
                      KCal/Mol        Cal/Mol-Kelvin    Cal/Mol-Kelvin
 Total                  213.824             69.429            140.309
 Electronic               0.000              0.000              0.000
 Translational            0.889              2.981             42.788
 Rotational               0.889              2.981             33.933
 Vibrational            212.046             63.467             63.587
 Vibration     1          0.593              1.986              6.884
 Vibration     2          0.593              1.984              5.868
 Vibration     3          0.595              1.979              4.918
 Vibration     4          0.596              1.974              4.486
 Vibration     5          0.598              1.969              4.174
 Vibration     6          0.602              1.955              3.631
 Vibration     7          0.606              1.943              3.302
 Vibration     8          0.628              1.872              2.373
 Vibration     9          0.641              1.830              2.069
 Vibration    10          0.648              1.807              1.937
 Vibration    11          0.654              1.789              1.850
 Vibration    12          0.657              1.781              1.812
 Vibration    13          0.678              1.715              1.550
 Vibration    14          0.685              1.695              1.483
 Vibration    15          0.692              1.675              1.420
 Vibration    16          0.722              1.589              1.197
 Vibration    17          0.748              1.517              1.047
 Vibration    18          0.762              1.480              0.979
 Vibration    19          0.768              1.464              0.952
 Vibration    20          0.781              1.431              0.899
 Vibration    21          0.783              1.427              0.892
 Vibration    22          0.785              1.422              0.884
 Vibration    23          0.800              1.382              0.825
 Vibration    24          0.816              1.344              0.773
 Vibration    25          0.833              1.302              0.719
 Vibration    26          0.862              1.236              0.642
 Vibration    27          0.894              1.163              0.566
 Vibration    28          0.946              1.056              0.469
 Vibration    29          0.962              1.024              0.443

 Optimization completed.
    -- Stationary point found.
 Normal termination of Gaussian 16 at Fri Dec 11 19:19:43 2020.

 ----------------------------------------------------------------------
 # B3LYP/6-311++G(d,p) empiricaldispersion=gd3bj scf=xqc pop=npa geom=c
 heck
 ----------------------------------------------------------------------

 --------------------------------------
 CID_23850395_JID_8071_Energie_neutraal
 --------------------------------------
 Structure from the checkpoint file:  "JID_8071.chk"
 Charge =  0 Multiplicity = 1

 SCF Done:  E(RB3LYP) =  -1451.70406330     A.U. after   15 cycles
 Normal termination of Gaussian 16 at Fri Dec 11 19:29:47 2020.

 ----------------------------------------------------------------------
 # B3LYP/6-311++G(d,p) empiricaldispersion=gd3bj scf=xqc pop=npa geom=c
 heck
 ----------------------------------------------------------------------

 ------------------------------------
 CID_23850395_JID_8071_Energie_kation
 ------------------------------------
 Structure from the checkpoint file:  "JID_8071.chk"
 Charge =  1 Multiplicity = 2

 SCF Done:  E(UB3LYP) =  -1451.42806591     A.U. after   33 cycles
 SCF Done:  E(UB3LYP) =  -1451.42806591     a.u. after    1 cycles
 Normal termination of Gaussian 16 at Fri Dec 11 20:02:34 2020.
 Gaussian 16:  ES64L-G16RevA.03 25-Dec-2016

 ----------------------------------------------------------------------
 # B3LYP/6-311++G(d,p) empiricaldispersion=gd3bj scf=xqc pop=npa geom=c
 heck
 ----------------------------------------------------------------------

 -----------------------------------
 CID_23850395_JID_8071_Energie_anion
 -----------------------------------
 Structure from the checkpoint file:  "JID_8071.chk"
 Charge = -1 Multiplicity = 2

                         Standard orientation:
 ---------------------------------------------------------------------
 Center     Atomic      Atomic             Coordinates (Angstroms)
 Number     Number       Type             X           Y           Z
 ---------------------------------------------------------------------
      1          6           0        3.426833    1.204681   -1.224545
      2          6           0        2.450305    1.499248   -0.072347
      3          6           0        3.181048    1.885273    1.223570
      4          6           0        1.594089    2.698771   -0.515492
      5          7           0        1.574672    0.284632    0.174008
      6          6           0        0.111607    0.400787    0.160519
      7          7           0       -0.443246   -0.274635   -1.000108
      8          6           0       -0.558755   -1.695059   -0.750414
      9         16           0        0.953516   -2.343803    0.114682
     10          6           0        2.072226   -0.967032    0.328918
     11         16           0        3.614173   -1.447025    0.760310
     12          6           0       -1.668618    0.327966   -1.550236
     13          6           0       -2.872782    0.319657   -0.627723
     14          6           0       -3.760884   -0.763350   -0.617250
     15          6           0       -4.827978   -0.804716    0.280500
     16          6           0       -5.025114    0.243691    1.179691
     17          6           0       -4.155767    1.335759    1.170123
     18          6           0       -3.090229    1.371160    0.271590
     19          1           0        4.013532    2.104993   -1.434649
     20          1           0        2.868733    0.934092   -2.127006
     21          1           0        4.115006    0.396424   -0.983451
     22          1           0        3.775144    2.790315    1.053090
     23          1           0        2.457358    2.095291    2.019135
     24          1           0        3.842617    1.085594    1.555811
     25          1           0        0.993624    2.472801   -1.402942
     26          1           0        0.942419    3.077046    0.279184
     27          1           0        2.277389    3.511209   -0.777568
     28          1           0       -0.273032   -0.009918    1.105858
     29          1           0       -0.163977    1.445719    0.128572
     30          1           0       -0.652673   -2.229130   -1.701623
     31          1           0       -1.414298   -1.958318   -0.108372
     32          1           0       -1.418434    1.357232   -1.832102
     33          1           0       -1.900000   -0.212679   -2.475191
     34          1           0       -3.620979   -1.575343   -1.326938
     35          1           0       -5.507222   -1.652443    0.274187
     36          1           0       -5.856339    0.214435    1.878158
     37          1           0       -4.311656    2.162343    1.857596
     38          1           0       -2.426090    2.232584    0.259659
 ---------------------------------------------------------------------

 SCF Done:  E(UB3LYP) =  -1451.70031910     A.U. after   33 cycles
 SCF Done:  E(UB3LYP) =  -1451.70031910     a.u. after    1 cycles

 The electronic state is 2-A.
 Alpha  occ. eigenvalues --  -88.75504 -88.68357 -14.25160 -14.22734 -10.15915
 Alpha  occ. eigenvalues --  -10.13915 -10.13571 -10.13280 -10.11421 -10.08664
 Alpha  occ. eigenvalues --  -10.08643 -10.08487 -10.08422 -10.08197 -10.08187
 Alpha  occ. eigenvalues --  -10.07502 -10.06364 -10.06029  -7.84107  -7.77150
 Alpha  occ. eigenvalues --   -5.80522  -5.80065  -5.79519  -5.73535  -5.73000
 Alpha  occ. eigenvalues --   -5.72690  -0.88679  -0.83236  -0.76707  -0.72586
 Alpha  occ. eigenvalues --   -0.69213  -0.68060  -0.65795  -0.63246  -0.60937
 Alpha  occ. eigenvalues --   -0.59802  -0.59219  -0.57251  -0.52449  -0.51843
 Alpha  occ. eigenvalues --   -0.50506  -0.48795  -0.43355  -0.42160  -0.41445
 Alpha  occ. eigenvalues --   -0.39904  -0.38428  -0.36907  -0.36769  -0.36209
 Alpha  occ. eigenvalues --   -0.35636  -0.34764  -0.33447  -0.33257  -0.32430
 Alpha  occ. eigenvalues --   -0.31333  -0.30522  -0.29895  -0.29288  -0.27881
 Alpha  occ. eigenvalues --   -0.27775  -0.27309  -0.26631  -0.26074  -0.25334
 Alpha  occ. eigenvalues --   -0.24972  -0.24476  -0.23725  -0.22154  -0.16811
 Alpha  occ. eigenvalues --   -0.16550  -0.15614  -0.13413  -0.11479  -0.10296
 Alpha  occ. eigenvalues --    0.03756
 Alpha virt. eigenvalues --    0.05478   0.06132   0.06484   0.06826   0.07210
 Alpha virt. eigenvalues --    0.07571   0.08374   0.08600   0.09485   0.09731
 Alpha virt. eigenvalues --    0.09921   0.10572   0.10902   0.11537   0.11679

  Beta  occ. eigenvalues --  -88.75499 -88.68347 -14.25116 -14.22720 -10.15608
  Beta  occ. eigenvalues --  -10.13909 -10.13564 -10.13274 -10.11408 -10.08659
  Beta  occ. eigenvalues --  -10.08576 -10.08465 -10.08412 -10.08162 -10.08109
  Beta  occ. eigenvalues --  -10.07465 -10.06361 -10.06013  -7.84102  -7.77142
  Beta  occ. eigenvalues --   -5.80524  -5.80068  -5.79493  -5.73539  -5.72963
  Beta  occ. eigenvalues --   -5.72684  -0.88552  -0.83131  -0.76612  -0.72448
  Beta  occ. eigenvalues --   -0.69127  -0.67907  -0.65719  -0.63121  -0.60853
  Beta  occ. eigenvalues --   -0.59780  -0.59164  -0.57175  -0.52329  -0.51788
  Beta  occ. eigenvalues --   -0.50389  -0.48717  -0.43288  -0.42089  -0.41371
  Beta  occ. eigenvalues --   -0.39815  -0.38351  -0.36826  -0.36700  -0.36104
  Beta  occ. eigenvalues --   -0.35556  -0.34680  -0.33403  -0.33208  -0.32342
  Beta  occ. eigenvalues --   -0.31215  -0.30469  -0.29813  -0.29248  -0.27814
  Beta  occ. eigenvalues --   -0.27612  -0.27246  -0.26456  -0.25968  -0.25277
  Beta  occ. eigenvalues --   -0.24861  -0.24341  -0.23435  -0.21855  -0.16660
  Beta  occ. eigenvalues --   -0.16199  -0.15442  -0.13312  -0.11223  -0.10238
  Beta virt. eigenvalues --    0.05864   0.06531   0.06916   0.07225   0.07236
  Beta virt. eigenvalues --    0.07547   0.07949   0.08706   0.08882   0.09620
  Beta virt. eigenvalues --    0.09856   0.09952   0.10647   0.10967   0.11736

 Mulliken charges and spin densities:
               1          2
     1  C   -0.073385  -0.322265
     2  C   -0.620369   0.516909
     3  C   -0.263283  -0.163612
     4  C    0.127052  -0.638555
     5  N    0.838000   0.005945
     6  C   -1.023421  -0.018470
     7  N    0.339563   0.037638
     8  C   -0.377388  -0.107397
     9  S   -0.193506   0.039296
    10  C    0.247784   0.153946
    11  S   -0.814448   0.085060
    12  C    0.567510  -1.205523
    13  C    0.161070   0.469070
    14  C   -0.609051   0.541725
    15  C   -0.104989  -0.118128
    16  C    0.718265  -1.116846
    17  C    0.019713  -0.211848
    18  C   -0.297438   0.241864
    19  H    0.026989   0.093597
    20  H    0.102655   0.060771
    21  H    0.074944   0.055989
    22  H    0.123203   0.000199
    23  H    0.113505   0.044091
    24  H    0.145773  -0.007478
    25  H    0.056504   0.108619
    26  H   -0.313880   0.469621
    27  H   -0.247987   0.431297
    28  H    0.166904   0.019286
    29  H    1.152577  -1.074425
    30  H    0.120240   0.109985
    31  H    0.219546  -0.049048
    32  H   -0.215353   0.415590
    33  H   -0.036083   0.214077
    34  H   -0.045689   0.196134
    35  H   -0.116790   0.283937
    36  H   -0.030096   0.162746
    37  H   -0.444191   0.629650
    38  H   -0.494452   0.646552
 Sum of Mulliken charges =  -1.00000   1.00000

 Dipole moment (field-independent basis, Debye):
    X=             -0.2540    Y=             -1.4312    Z=             -0.7997  Tot=              1.6591
 Quadrupole moment (field-independent basis, Debye-Ang):
   XX=           -209.5258   YY=           -174.4239   ZZ=           -153.0555
   XY=             19.4673   XZ=              1.5336   YZ=              4.5221

 Summary of Natural Population Analysis:

                                       Natural Population
                Natural  -----------------------------------------------
    Atom  No    Charge         Core      Valence    Rydberg      Total
 -----------------------------------------------------------------------
      C    1   -0.29573      0.99961     2.28918    0.00694     3.29573
      C    2    0.07615      0.99957     1.91152    0.01276     2.92385
      C    3   -0.29423      0.99960     2.28799    0.00664     3.29423
      C    4   -0.29557      0.99962     2.28828    0.00767     3.29557
      N    5   -0.25868      0.99957     2.74119    0.01792     3.75868
      C    6    0.00865      0.99957     1.97812    0.01365     2.99135
      N    7   -0.28244      0.99970     2.76931    0.01343     3.78244
      C    8   -0.14015      0.99958     2.12855    0.01202     3.14015
      S    9    0.13125      4.99949     2.85030    0.01896     7.86875
      C   10    0.02587      0.99963     1.95525    0.01925     2.97413
      S   11   -0.10621      4.99952     3.09278    0.01391     8.10621
      C   12   -0.08837      0.99957     2.07595    0.01285     3.08837
      C   13   -0.02309      0.99950     2.01375    0.00985     3.02309
      C   14   -0.10145      0.99951     2.09211    0.00983     3.10145
      C   15   -0.10207      0.99956     2.09289    0.00961     3.10207
      C   16   -0.09140      0.99956     2.08256    0.00929     3.09140
      C   17   -0.09909      0.99956     2.08907    0.01046     3.09909
      C   18   -0.09531      0.99951     2.08554    0.01026     3.09531
      H   19    0.09658      0.00000     0.40269    0.00074     0.40342
      H   20    0.10267      0.00000     0.39621    0.00112     0.39733
      H   21    0.11658      0.00000     0.38219    0.00123     0.38342
      H   22    0.09563      0.00000     0.40362    0.00075     0.40437
      H   23    0.09836      0.00000     0.40083    0.00081     0.40164
      H   24    0.11725      0.00000     0.38155    0.00120     0.38275
      H   25    0.10578      0.00000     0.39290    0.00132     0.39422
      H   26    0.10115      0.00000     0.39764    0.00121     0.39885
      H   27    0.10718      0.00000     0.39181    0.00101     0.39282
      H   28    0.09181      0.00000     0.40683    0.00137     0.40819
      H   29    0.10843      0.00000     0.38942    0.00215     0.39157
      H   30    0.09861      0.00000     0.40009    0.00130     0.40139
      H   31    0.09103      0.00000     0.40726    0.00171     0.40897
      H   32    0.10314      0.00000     0.39546    0.00140     0.39686
      H   33    0.09912      0.00000     0.39967    0.00121     0.40088
      H   34    0.09811      0.00000     0.40054    0.00135     0.40189
      H   35    0.09878      0.00000     0.40037    0.00085     0.40122
      H   36    0.09878      0.00000     0.40037    0.00085     0.40122
      H   37    0.10167      0.00000     0.39720    0.00113     0.39833
      H   38    0.10121      0.00000     0.39654    0.00225     0.39879
 =======================================================================
   * Total *   -0.00000     25.99222    48.76751    0.24026    75.00000

 Normal termination of Gaussian 16 at Fri Dec 11 20:36:19 2020.
