 Gaussian 16, Revision A.03,

 -----------------------------------------------------------
 # opt freq B3LYP/6-31G(d) empiricaldispersion=gd3bj scf=xqc
 -----------------------------------------------------------

 ------------------------------
 CID_81944522_JID_9109_neutraal
 ------------------------------
 Symbolic Z-matrix:
 Charge =  0 Multiplicity = 1

 SCF Done:  E(RB3LYP) =  -842.240067794     A.U. after   15 cycles
 SCF Done:  E(RB3LYP) =  -842.246369243     A.U. after   12 cycles
 SCF Done:  E(RB3LYP) =  -842.246032102     A.U. after   13 cycles
 SCF Done:  E(RB3LYP) =  -842.244428998     A.U. after   12 cycles
 SCF Done:  E(RB3LYP) =  -842.241919674     A.U. after   13 cycles
 SCF Done:  E(RB3LYP) =  -842.246449250     A.U. after    9 cycles
 SCF Done:  E(RB3LYP) =  -842.248060248     A.U. after   12 cycles
 SCF Done:  E(RB3LYP) =  -842.248436454     A.U. after   11 cycles
 SCF Done:  E(RB3LYP) =  -842.248461835     A.U. after   12 cycles
 SCF Done:  E(RB3LYP) =  -842.248697742     A.U. after   11 cycles
 SCF Done:  E(RB3LYP) =  -842.250782298     A.U. after    8 cycles
 SCF Done:  E(RB3LYP) =  -842.250782776     A.U. after    8 cycles
 SCF Done:  E(RB3LYP) =  -842.250783439     A.U. after    8 cycles
 SCF Done:  E(RB3LYP) =  -842.250783789     A.U. after    8 cycles
 SCF Done:  E(RB3LYP) =  -842.250783973     A.U. after    8 cycles
 SCF Done:  E(RB3LYP) =  -842.250784046     A.U. after    7 cycles
 Optimization completed.
    -- Stationary point found.
 Normal termination of Gaussian 16 at Sat Dec 12 09:58:13 2020.

 --------------------------------------------------------------------
 #N Geom=AllCheck Guess=TCheck SCRF=Check GenChk RB3LYP/6-31G(d) Freq
 --------------------------------------------------------------------

 Structure from the checkpoint file:  "JID_9109.chk"
 ------------------------------
 CID_81944522_JID_9109_neutraal
 ------------------------------
 Charge =  0 Multiplicity = 1

 SCF Done:  E(RB3LYP) =  -842.250784045     A.U. after    1 cycles

  Exact polarizability: 187.482  -3.267 172.952   9.522   4.285 137.072
 Approx polarizability: 244.797  -4.172 253.828  20.083  16.052 223.449

                      1                      2                      3
                      A                      A                      A
 Frequencies --     19.5729                42.3509                50.6008
 Red. masses --      4.3703                 4.6105                 3.8956
 Frc consts  --      0.0010                 0.0049                 0.0059
 IR Inten    --      0.3043                 1.1343                 0.3698

                      4                      5                      6
                      A                      A                      A
 Frequencies --     73.0264                82.9735                92.0652
 Red. masses --      4.3618                 3.7444                 3.8228
 Frc consts  --      0.0137                 0.0152                 0.0191
 IR Inten    --      2.9151                 1.2551                 1.0361

                      7                      8                      9
                      A                      A                      A
 Frequencies --    110.8341               122.1234               134.7625
 Red. masses --      2.5109                 3.2739                 1.9590
 Frc consts  --      0.0182                 0.0288                 0.0210
 IR Inten    --      0.5984                 1.8761                 0.7534

                     10                     11                     12
                      A                      A                      A
 Frequencies --    164.7522               180.1908               197.0786
 Red. masses --      2.6438                 2.5535                 1.2268
 Frc consts  --      0.0423                 0.0488                 0.0281
 IR Inten    --      1.4361                 2.1195                 0.0144

                     13                     14                     15
                      A                      A                      A
 Frequencies --    228.8029               236.3633               240.9986
 Red. masses --      1.5568                 2.5858                 1.3693
 Frc consts  --      0.0480                 0.0851                 0.0469
 IR Inten    --      6.0125                 1.4110                27.2967

                     16                     17                     18
                      A                      A                      A
 Frequencies --    263.0943               268.0453               313.8396
 Red. masses --      3.4848                 2.3969                 2.1121
 Frc consts  --      0.1421                 0.1015                 0.1226
 IR Inten    --      0.4556                 1.8503                 1.4778

                     19                     20                     21
                      A                      A                      A
 Frequencies --    330.3243               355.7136               389.7551
 Red. masses --      3.0793                 2.7339                 3.1343
 Frc consts  --      0.1980                 0.2038                 0.2805
 IR Inten    --      1.1710                 6.9924                 3.5773

                     22                     23                     24
                      A                      A                      A
 Frequencies --    393.8554               398.8614               454.0172
 Red. masses --      3.2029                 3.1774                 4.2481
 Frc consts  --      0.2927                 0.2978                 0.5159
 IR Inten    --      3.1663                 0.5948                 4.8683

                     25                     26                     27
                      A                      A                      A
 Frequencies --    490.8885               528.6322               571.8654
 Red. masses --      3.6782                 2.8989                 3.6562
 Frc consts  --      0.5222                 0.4773                 0.7045
 IR Inten    --      1.8910                15.0219                 4.2560

                     28                     29                     30
                      A                      A                      A
 Frequencies --    616.9957               634.0326               666.3387
 Red. masses --      2.8907                 3.3582                 3.2020
 Frc consts  --      0.6484                 0.7954                 0.8376
 IR Inten    --     10.9287                 5.8062                 2.7181

                     31                     32                     33
                      A                      A                      A
 Frequencies --    683.0058               695.0861               722.2795
 Red. masses --      3.6298                 1.8180                 1.7911
 Frc consts  --      0.9976                 0.5175                 0.5505
 IR Inten    --     34.0957                62.9549                 8.2137

                     34                     35                     36
                      A                      A                      A
 Frequencies --    731.7926               770.0478               784.1889
 Red. masses --      1.9156                 2.8775                 1.3879
 Frc consts  --      0.6044                 1.0053                 0.5028
 IR Inten    --     10.2979                 2.1258                22.9538

                     37                     38                     39
                      A                      A                      A
 Frequencies --    789.6401               798.1391               799.4973
 Red. masses --      1.9017                 1.5924                 1.3557
 Frc consts  --      0.6986                 0.5977                 0.5105
 IR Inten    --     40.2083                17.5196                11.8010

                     40                     41                     42
                      A                      A                      A
 Frequencies --    848.5909               850.3274               872.5581
 Red. masses --      1.4926                 1.3201                 1.4831
 Frc consts  --      0.6333                 0.5624                 0.6653
 IR Inten    --     47.9763                 2.9574                75.3912

                     43                     44                     45
                      A                      A                      A
 Frequencies --    891.3510               895.5292               920.9366
 Red. masses --      2.8905                 2.3199                 2.2565
 Frc consts  --      1.3531                 1.0962                 1.1276
 IR Inten    --      0.3339                 1.6485                10.2834

                     46                     47                     48
                      A                      A                      A
 Frequencies --    923.9420               952.6995               977.6258
 Red. masses --      4.0209                 1.9754                 2.2083
 Frc consts  --      2.0224                 1.0564                 1.2435
 IR Inten    --      8.0098                 4.3448                 2.4273

                     49                     50                     51
                      A                      A                      A
 Frequencies --   1014.5816              1028.2855              1036.6078
 Red. masses --      1.7300                 1.8217                 1.7853
 Frc consts  --      1.0492                 1.1349                 1.1303
 IR Inten    --      2.5303                14.2093                 7.8238

                     52                     53                     54
                      A                      A                      A
 Frequencies --   1047.2940              1051.5872              1063.1491
 Red. masses --      1.7474                 2.5339                 2.5771
 Frc consts  --      1.1292                 1.6509                 1.7162
 IR Inten    --      1.9854                12.0927                 1.3847

                     55                     56                     57
                      A                      A                      A
 Frequencies --   1083.4110              1096.1495              1102.9719
 Red. masses --      1.7240                 2.7350                 1.3640
 Frc consts  --      1.1922                 1.9362                 0.9777
 IR Inten    --     16.6248                 5.5372                28.9835

                     58                     59                     60
                      A                      A                      A
 Frequencies --   1125.3061              1147.2950              1150.9536
 Red. masses --      2.8277                 1.5139                 1.6001
 Frc consts  --      2.1097                 1.1740                 1.2489
 IR Inten    --      2.9810                 4.7461                10.8812

                     61                     62                     63
                      A                      A                      A
 Frequencies --   1161.7645              1201.6496              1202.8460
 Red. masses --      2.1716                 2.2188                 2.1972
 Frc consts  --      1.7269                 1.8877                 1.8730
 IR Inten    --      4.8733                 8.3902                 3.2388

                     64                     65                     66
                      A                      A                      A
 Frequencies --   1219.7892              1226.8099              1246.6530
 Red. masses --      2.2608                 1.4529                 1.7744
 Frc consts  --      1.9819                 1.2884                 1.6248
 IR Inten    --      5.3361                21.9919                 1.2053

                     67                     68                     69
                      A                      A                      A
 Frequencies --   1261.6854              1271.9438              1280.4814
 Red. masses --      1.7484                 1.5811                 1.6614
 Frc consts  --      1.6399                 1.5071                 1.6050
 IR Inten    --     52.1227                19.6132                11.9562

                     70                     71                     72
                      A                      A                      A
 Frequencies --   1298.3215              1303.5596              1313.2102
 Red. masses --      1.4576                 1.4073                 1.3430
 Frc consts  --      1.4476                 1.4090                 1.3645
 IR Inten    --      1.1371                48.9488                 8.4693

                     73                     74                     75
                      A                      A                      A
 Frequencies --   1324.4059              1344.1525              1345.7659
 Red. masses --      1.3902                 1.3785                 1.3716
 Frc consts  --      1.4367                 1.4675                 1.4636
 IR Inten    --      9.5390                68.0408                14.1946

                     76                     77                     78
                      A                      A                      A
 Frequencies --   1353.4261              1361.5625              1381.2747
 Red. masses --      1.6643                 1.6847                 2.2772
 Frc consts  --      1.7962                 1.8401                 2.5598
 IR Inten    --      8.3612                31.0305               111.0590

                     79                     80                     81
                      A                      A                      A
 Frequencies --   1389.8776              1395.4166              1400.9897
 Red. masses --      1.4632                 1.3858                 4.1254
 Frc consts  --      1.6653                 1.5899                 4.7708
 IR Inten    --     13.2221                 2.3467                 1.2853

                     82                     83                     84
                      A                      A                      A
 Frequencies --   1435.2677              1436.5529              1444.2612
 Red. masses --      1.3055                 1.2530                 1.7601
 Frc consts  --      1.5844                 1.5235                 2.1631
 IR Inten    --      8.2249                 2.7635                 9.0774

                     85                     86                     87
                      A                      A                      A
 Frequencies --   1455.8001              1502.8772              1516.3510
 Red. masses --      1.3113                 1.0796                 1.3408
 Frc consts  --      1.6374                 1.4367                 1.8164
 IR Inten    --     25.3359                 2.2929                31.3580

                     88                     89                     90
                      A                      A                      A
 Frequencies --   1519.7569              1524.7431              1529.9551
 Red. masses --      1.1785                 1.0551                 1.1051
 Frc consts  --      1.6037                 1.4453                 1.5241
 IR Inten    --     16.7058                 5.9113                15.4981

                     91                     92                     93
                      A                      A                      A
 Frequencies --   1530.7746              1533.9915              1542.9662
 Red. masses --      1.0928                 2.7877                 1.0541
 Frc consts  --      1.5087                 3.8650                 1.4786
 IR Inten    --     13.2104                47.8691                 4.0941

                     94                     95                     96
                      A                      A                      A
 Frequencies --   1545.7955              1547.5642              1554.6183
 Red. masses --      1.0476                 1.1798                 3.3998
 Frc consts  --      1.4748                 1.6648                 4.8412
 IR Inten    --      8.2130                10.9471                13.2022

                     97                     98                     99
                      A                      A                      A
 Frequencies --   1562.0153              1694.7884              1761.4699
 Red. masses --      1.0859                 1.1013                 6.9186
 Frc consts  --      1.5610                 1.8638                12.6479
 IR Inten    --      7.7811                71.0403               302.5614

                    100                    101                    102
                      A                      A                      A
 Frequencies --   2970.7828              3039.8810              3057.6956
 Red. masses --      1.0749                 1.0660                 1.0394
 Frc consts  --      5.5893                 5.8038                 5.7254
 IR Inten    --     70.5227                39.5763                16.2049

                    103                    104                    105
                      A                      A                      A
 Frequencies --   3061.4640              3065.2541              3066.6519
 Red. masses --      1.0444                 1.0702                 1.0835
 Frc consts  --      5.7673                 5.9242                 6.0037
 IR Inten    --     46.1183                12.0536                45.1665

                    106                    107                    108
                      A                      A                      A
 Frequencies --   3071.0553              3081.6039              3095.3640
 Red. masses --      1.0628                 1.0673                 1.0966
 Frc consts  --      5.9057                 5.9714                 6.1904
 IR Inten    --     23.7993                27.3288                11.1177

                    109                    110                    111
                      A                      A                      A
 Frequencies --   3101.5738              3106.2485              3115.9454
 Red. masses --      1.0850                 1.1017                 1.1005
 Frc consts  --      6.1498                 6.2628                 6.2952
 IR Inten    --     19.9208                14.9472                46.6935

                    112                    113                    114
                      A                      A                      A
 Frequencies --   3126.8094              3131.7998              3143.9428
 Red. masses --      1.0949                 1.1028                 1.0956
 Frc consts  --      6.3071                 6.3730                 6.3806
 IR Inten    --     42.5536                28.2512                14.1533

                    115                    116                    117
                      A                      A                      A
 Frequencies --   3147.3583              3160.2447              3166.6320
 Red. masses --      1.1005                 1.0998                 1.0853
 Frc consts  --      6.4229                 6.4716                 6.4121
 IR Inten    --     13.8868                17.2677                25.5229

                    118                    119                    120
                      A                      A                      A
 Frequencies --   3261.6559              3278.2399              3296.3076
 Red. masses --      1.0926                 1.0953                 1.1031
 Frc consts  --      6.8482                 6.9355                 7.0620
 IR Inten    --      8.1830                 1.8235                 1.5249

                    121                    122                    123
                      A                      A                      A
 Frequencies --   3480.2731              3543.6747              3564.9600
 Red. masses --      1.0495                 1.0743                 1.0931
 Frc consts  --      7.4898                 7.9481                 8.1853
 IR Inten    --      0.5132                16.3372                 0.9509

 - Thermochemistry -
 -------------------
 Temperature   298.150 Kelvin.  Pressure   1.00000 Atm.
 Atom     1 has atomic number  6 and mass  12.00000

 Molecular mass:   264.19501 amu.
 Principal axes and moments of inertia in atomic units:
                           1         2         3
     Eigenvalues --  2869.269887426.533768741.53141
           X            0.99982  -0.01842   0.00484
           Y            0.01851   0.99964  -0.01961
           Z           -0.00448   0.01969   0.99980
 This molecule is an asymmetric top.
 Rotational symmetry number  1.
 Warning -- assumption of classical behavior for rotation
           may cause significant error
 Rotational temperatures (Kelvin)      0.03019     0.01166     0.00991
 Rotational constants (GHZ):           0.62899     0.24301     0.20646
 Zero-point vibrational energy    1002280.0 (Joules/Mol)
                                  239.55068 (Kcal/Mol)
 Warning -- explicit consideration of  28 degrees of freedom as
           vibrations may cause significant error
 Vibrational temperatures:     28.16    60.93    72.80   105.07   119.38
          (Kelvin)            132.46   159.47   175.71   193.89   237.04
                              259.25   283.55   329.20   340.07   346.74
                              378.53   385.66   451.55   475.26   511.79
                              560.77   566.67   573.87   653.23   706.28
                              760.58   822.79   887.72   912.23   958.71
                              982.69  1000.07  1039.20  1052.89  1107.93
                             1128.27  1136.12  1148.34  1150.30  1220.93
                             1223.43  1255.42  1282.46  1288.47  1325.02
                             1329.35  1370.72  1406.59  1459.76  1479.47
                             1491.45  1506.82  1513.00  1529.63  1558.79
                             1577.11  1586.93  1619.06  1650.70  1655.97
                             1671.52  1728.91  1730.63  1755.00  1765.11
                             1793.66  1815.28  1830.04  1842.33  1868.00
                             1875.53  1889.42  1905.52  1933.94  1936.26
                             1947.28  1958.98  1987.35  1999.72  2007.69
                             2015.71  2065.03  2066.88  2077.97  2094.57
                             2162.31  2181.69  2186.59  2193.77  2201.26
                             2202.44  2207.07  2219.98  2224.05  2226.60
                             2236.75  2247.39  2438.42  2534.36  4274.29
                             4373.71  4399.34  4404.76  4410.22  4412.23
                             4418.56  4433.74  4453.54  4462.47  4469.20
                             4483.15  4498.78  4505.96  4523.43  4528.35
                             4546.89  4556.08  4692.80  4716.66  4742.65
                             5007.34  5098.56  5129.18

 Zero-point correction=                           0.381748 (Hartree/Particle)
 Thermal correction to Energy=                    0.401142
 Thermal correction to Enthalpy=                  0.402087
 Thermal correction to Gibbs Free Energy=         0.333273
 Sum of electronic and zero-point Energies=           -841.869036
 Sum of electronic and thermal Energies=              -841.849642
 Sum of electronic and thermal Enthalpies=            -841.848698
 Sum of electronic and thermal Free Energies=         -841.917511

                     E (Thermal)             CV                S
                      KCal/Mol        Cal/Mol-Kelvin    Cal/Mol-Kelvin
 Total                  251.721             74.150            144.830
 Electronic               0.000              0.000              0.000
 Translational            0.889              2.981             42.614
 Rotational               0.889              2.981             33.587
 Vibrational            249.943             68.188             68.629
 Vibration     1          0.593              1.986              6.677
 Vibration     2          0.595              1.980              5.146
 Vibration     3          0.595              1.977              4.794
 Vibration     4          0.599              1.967              4.070
 Vibration     5          0.600              1.961              3.819
 Vibration     6          0.602              1.955              3.616
 Vibration     7          0.607              1.941              3.254
 Vibration     8          0.610              1.931              3.066
 Vibration     9          0.613              1.919              2.877
 Vibration    10          0.623              1.886              2.495
 Vibration    11          0.629              1.867              2.326
 Vibration    12          0.636              1.844              2.160
 Vibration    13          0.651              1.797              1.888
 Vibration    14          0.655              1.785              1.830
 Vibration    15          0.658              1.778              1.795
 Vibration    16          0.670              1.740              1.641
 Vibration    17          0.673              1.732              1.609
 Vibration    18          0.702              1.647              1.342
 Vibration    19          0.713              1.615              1.258
 Vibration    20          0.731              1.564              1.141
 Vibration    21          0.758              1.492              1.001
 Vibration    22          0.761              1.483              0.986
 Vibration    23          0.765              1.473              0.967
 Vibration    24          0.812              1.352              0.784
 Vibration    25          0.847              1.270              0.681
 Vibration    26          0.884              1.187              0.590
 Vibration    27          0.928              1.092              0.501
 Vibration    28          0.977              0.996              0.421

 Optimization completed.
    -- Stationary point found.
 Normal termination of Gaussian 16 at Sat Dec 12 10:21:45 2020.

 ----------------------------------------------------------------------
 # B3LYP/6-311++G(d,p) empiricaldispersion=gd3bj scf=xqc pop=npa geom=c
 heck
 ----------------------------------------------------------------------

 --------------------------------------
 CID_81944522_JID_9109_Energie_neutraal
 --------------------------------------
 Structure from the checkpoint file:  "JID_9109.chk"
 Charge =  0 Multiplicity = 1

 SCF Done:  E(RB3LYP) =  -842.492269720     A.U. after   15 cycles
 Normal termination of Gaussian 16 at Sat Dec 12 10:31:29 2020.

 ----------------------------------------------------------------------
 # B3LYP/6-311++G(d,p) empiricaldispersion=gd3bj scf=xqc pop=npa geom=c
 heck
 ----------------------------------------------------------------------

 ------------------------------------
 CID_81944522_JID_9109_Energie_kation
 ------------------------------------
 Structure from the checkpoint file:  "JID_9109.chk"
 Charge =  1 Multiplicity = 2

 SCF Done:  E(UB3LYP) =  -842.197037809     A.U. after   28 cycles
 Normal termination of Gaussian 16 at Sat Dec 12 10:55:47 2020.
 Gaussian 16:  ES64L-G16RevA.03 25-Dec-2016

 ----------------------------------------------------------------------
 # B3LYP/6-311++G(d,p) empiricaldispersion=gd3bj scf=xqc pop=npa geom=c
 heck
 ----------------------------------------------------------------------

 -----------------------------------
 CID_81944522_JID_9109_Energie_anion
 -----------------------------------
 Structure from the checkpoint file:  "JID_9109.chk"
 Charge = -1 Multiplicity = 2

                         Standard orientation:
 ---------------------------------------------------------------------
 Center     Atomic      Atomic             Coordinates (Angstroms)
 Number     Number       Type             X           Y           Z
 ---------------------------------------------------------------------
      1          6           0        4.085933   -2.075956    0.422246
      2          6           0        3.934740   -0.605738    0.022106
      3          6           0        2.567373    0.062083    0.336982
      4          6           0        2.252759   -0.113773    1.835654
      5          6           0        2.686522    1.573655   -0.005352
      6          7           0        2.436558    1.824212   -1.427900
      7          6           0        1.490520   -0.601704   -0.561090
      8          8           0        1.812210   -1.379854   -1.452772
      9          7           0        0.150642   -0.399680   -0.307396
     10          6           0       -0.512109    0.780853    0.204840
     11          6           0       -1.055536    1.743301   -0.865028
     12          6           0       -2.059915    2.633326   -0.099932
     13          6           0       -2.431990    1.845448    1.195698
     14          6           0       -1.755628    0.469024    1.076479
     15          7           0       -2.613928   -0.530362    0.441858
     16          6           0       -2.438994   -1.901212    0.533405
     17          6           0       -3.386777   -2.454507   -0.291454
     18          7           0       -4.139175   -1.469376   -0.893415
     19          6           0       -3.649471   -0.334387   -0.438532
     20          1           0        4.019080   -2.215001    1.506685
     21          1           0        5.067643   -2.447457    0.107941
     22          1           0        3.323567   -2.690535   -0.060615
     23          1           0        4.703192   -0.015217    0.538458
     24          1           0        4.129956   -0.517250   -1.051202
     25          1           0        3.097866    0.244020    2.435718
     26          1           0        1.367575    0.443303    2.151831
     27          1           0        2.086211   -1.164752    2.084917
     28          1           0        1.952172    2.155079    0.563507
     29          1           0        3.677341    1.910960    0.344254
     30          1           0        2.725645    2.768417   -1.674435
     31          1           0        2.988743    1.188672   -2.000803
     32          1           0       -0.406931   -0.922862   -0.977052
     33          1           0        0.182194    1.324725    0.842819
     34          1           0       -0.242538    2.285713   -1.351520
     35          1           0       -1.567523    1.156783   -1.637147
     36          1           0       -2.942847    2.854881   -0.707104
     37          1           0       -1.611230    3.596823    0.161677
     38          1           0       -3.509122    1.752611    1.354967
     39          1           0       -2.025291    2.351202    2.076966
     40          1           0       -1.465955    0.060301    2.048117
     41          1           0       -1.669308   -2.326255    1.158898
     42          1           0       -3.575225   -3.502249   -0.481930
     43          1           0       -4.006118    0.650878   -0.700929
 ---------------------------------------------------------------------

 SCF Done:  E(UB3LYP) =  -842.487586948     A.U. after   30 cycles

 The electronic state is 2-A.
 Alpha  occ. eigenvalues --  -18.99799 -14.28656 -14.24228 -14.21090 -14.20360
 Alpha  occ. eigenvalues --  -10.18264 -10.13770 -10.13499 -10.12621 -10.11343
 Alpha  occ. eigenvalues --  -10.10475 -10.10369 -10.10068 -10.08639 -10.08173
 Alpha  occ. eigenvalues --  -10.07746 -10.07624 -10.07311 -10.06750  -0.95081
 Alpha  occ. eigenvalues --   -0.93556  -0.84090  -0.80372  -0.79732  -0.73898
 Alpha  occ. eigenvalues --   -0.72057  -0.66194  -0.64550  -0.63594  -0.62732
 Alpha  occ. eigenvalues --   -0.58352  -0.54524  -0.53804  -0.52947  -0.51779
 Alpha  occ. eigenvalues --   -0.49535  -0.48437  -0.46432  -0.44163  -0.41318
 Alpha  occ. eigenvalues --   -0.40538  -0.39607  -0.38569  -0.36601  -0.36485
 Alpha  occ. eigenvalues --   -0.35712  -0.35559  -0.35217  -0.34973  -0.34001
 Alpha  occ. eigenvalues --   -0.32690  -0.32451  -0.31456  -0.30921  -0.30292
 Alpha  occ. eigenvalues --   -0.29768  -0.28493  -0.27827  -0.27467  -0.27142
 Alpha  occ. eigenvalues --   -0.26664  -0.25922  -0.25009  -0.24048  -0.23966
 Alpha  occ. eigenvalues --   -0.22992  -0.19224  -0.19087  -0.17223  -0.16156
 Alpha  occ. eigenvalues --   -0.15347  -0.14745   0.03730
 Alpha virt. eigenvalues --    0.06114   0.06499   0.07310   0.07707   0.08307
 Alpha virt. eigenvalues --    0.08489   0.08831   0.09284   0.09358   0.10208
 Alpha virt. eigenvalues --    0.10448   0.10784   0.10981   0.11520   0.11894

  Beta  occ. eigenvalues --  -18.99798 -14.28654 -14.24227 -14.21090 -14.20336
  Beta  occ. eigenvalues --  -10.18261 -10.13759 -10.13483 -10.12609 -10.11337
  Beta  occ. eigenvalues --  -10.10473 -10.10337 -10.10065 -10.08607 -10.08152
  Beta  occ. eigenvalues --  -10.07735 -10.07619 -10.07281 -10.06744  -0.95078
  Beta  occ. eigenvalues --   -0.93547  -0.84080  -0.80358  -0.79691  -0.73869
  Beta  occ. eigenvalues --   -0.72033  -0.66179  -0.64526  -0.63560  -0.62689
  Beta  occ. eigenvalues --   -0.58288  -0.54472  -0.53763  -0.52925  -0.51762
  Beta  occ. eigenvalues --   -0.49500  -0.48405  -0.46399  -0.44136  -0.41262
  Beta  occ. eigenvalues --   -0.40493  -0.39569  -0.38538  -0.36577  -0.36458
  Beta  occ. eigenvalues --   -0.35685  -0.35536  -0.35182  -0.34957  -0.33978
  Beta  occ. eigenvalues --   -0.32671  -0.32437  -0.31418  -0.30890  -0.30261
  Beta  occ. eigenvalues --   -0.29737  -0.28461  -0.27800  -0.27437  -0.27108
  Beta  occ. eigenvalues --   -0.26631  -0.25879  -0.24992  -0.24014  -0.23938
  Beta  occ. eigenvalues --   -0.22966  -0.19217  -0.19076  -0.17215  -0.16143
  Beta  occ. eigenvalues --   -0.15320  -0.14722
  Beta virt. eigenvalues --    0.06196   0.06840   0.06942   0.07703   0.07836
  Beta virt. eigenvalues --    0.08595   0.08832   0.09074   0.09503   0.09715
  Beta virt. eigenvalues --    0.10338   0.10652   0.11013   0.11230   0.11651

 Mulliken charges and spin densities:
               1          2
     1  C   -0.378677  -0.267281
     2  C   -0.264082   0.201367
     3  C    0.356791   0.295462
     4  C    1.172614  -1.702448
     5  C   -0.506231  -0.066633
     6  N   -0.166339  -0.181267
     7  C   -0.051130  -0.481381
     8  O   -0.258394   0.013037
     9  N    0.154889   0.019126
    10  C   -1.764394   1.337778
    11  C   -0.760523   0.345748
    12  C    0.648854  -1.062014
    13  C   -0.860115   0.171476
    14  C    1.605841  -1.591417
    15  N    0.137120   0.028486
    16  C    0.239102  -0.062547
    17  C   -0.290311  -0.072243
    18  N   -0.107317   0.003608
    19  C   -0.188905  -0.127516
    20  H    0.048015   0.082884
    21  H    0.090938   0.039621
    22  H    0.150523   0.034655
    23  H    0.005522   0.130429
    24  H    0.070306   0.085324
    25  H   -0.141058   0.323481
    26  H   -0.735023   0.849982
    27  H    0.179059  -0.030002
    28  H   -1.153169   1.322073
    29  H   -0.392973   0.570828
    30  H   -0.120428   0.379209
    31  H    0.257032  -0.017715
    32  H    0.359956  -0.022019
    33  H    2.052888  -1.858115
    34  H    0.262804  -0.015836
    35  H    0.153443   0.010866
    36  H    0.051120   0.103442
    37  H   -0.337511   0.515136
    38  H   -0.001839   0.175903
    39  H   -0.771076   0.971758
    40  H   -0.096887   0.423461
    41  H    0.014438   0.129317
    42  H    0.150393   0.000913
    43  H    0.184736  -0.006934
 Sum of Mulliken charges =  -1.00000   1.00000

 Dipole moment (field-independent basis, Debye):
    X=             -0.7488    Y=             -5.1224    Z=             -2.6312  Tot=              5.8071
 Quadrupole moment (field-independent basis, Debye-Ang):
   XX=           -186.6174   YY=           -175.0183   ZZ=           -164.8283
   XY=            -10.5171   XZ=             -1.8388   YZ=            -16.2795

 Summary of Natural Population Analysis:

                                       Natural Population
                Natural  -----------------------------------------------
    Atom  No    Charge         Core      Valence    Rydberg      Total
 -----------------------------------------------------------------------
      C    1   -0.28828      0.99966     2.28419    0.00443     3.28828
      C    2   -0.18623      0.99961     2.17659    0.01003     3.18623
      C    3   -0.08058      0.99952     2.06840    0.01266     3.08058
      C    4   -0.28364      0.99963     2.27644    0.00757     3.28364
      C    5   -0.08298      0.99959     2.06981    0.01358     3.08298
      N    6   -0.42456      0.99977     2.91445    0.01034     3.92456
      C    7    0.36454      0.99961     1.60998    0.02587     2.63546
      O    8   -0.32702      0.99988     3.32173    0.00542     4.32702
      N    9   -0.32182      0.99964     2.81192    0.01026     3.82182
      C   10   -0.02067      0.99953     2.00598    0.01516     3.02067
      C   11   -0.19867      0.99961     2.19110    0.00797     3.19867
      C   12   -0.19545      0.99964     2.18781    0.00800     3.19545
      C   13   -0.19814      0.99962     2.18969    0.00882     3.19814
      C   14   -0.00139      0.99955     1.98666    0.01517     3.00139
      N   15   -0.21077      0.99964     2.70005    0.01107     3.71077
      C   16   -0.03697      0.99956     2.02587    0.01154     3.03697
      C   17   -0.03979      0.99959     2.02699    0.01321     3.03979
      N   18   -0.25620      0.99973     2.74683    0.00964     3.75620
      C   19    0.10043      0.99963     1.88333    0.01661     2.89957
      H   20    0.09364      0.00000     0.40550    0.00086     0.40636
      H   21    0.09605      0.00000     0.40323    0.00072     0.40395
      H   22    0.10753      0.00000     0.39150    0.00096     0.39247
      H   23    0.09561      0.00000     0.40330    0.00109     0.40439
      H   24    0.10237      0.00000     0.39643    0.00120     0.39763
      H   25    0.10310      0.00000     0.39578    0.00112     0.39690
      H   26    0.10413      0.00000     0.39426    0.00161     0.39587
      H   27    0.10214      0.00000     0.39671    0.00115     0.39786
      H   28    0.09372      0.00000     0.40350    0.00278     0.40628
      H   29    0.08500      0.00000     0.41252    0.00248     0.41500
      H   30    0.18002      0.00000     0.31824    0.00174     0.31998
      H   31    0.17567      0.00000     0.32250    0.00183     0.32433
      H   32    0.19429      0.00000     0.30344    0.00227     0.30571
      H   33    0.11059      0.00000     0.38587    0.00354     0.38941
      H   34    0.11799      0.00000     0.38070    0.00131     0.38201
      H   35    0.09532      0.00000     0.40330    0.00138     0.40468
      H   36    0.09584      0.00000     0.40328    0.00088     0.40416
      H   37    0.10681      0.00000     0.39148    0.00171     0.39319
      H   38    0.10332      0.00000     0.39545    0.00122     0.39668
      H   39    0.11446      0.00000     0.38220    0.00334     0.38554
      H   40    0.10947      0.00000     0.38869    0.00184     0.39053
      H   41    0.10902      0.00000     0.38999    0.00098     0.39098
      H   42    0.09583      0.00000     0.40320    0.00097     0.40417
      H   43    0.09625      0.00000     0.40191    0.00184     0.40375
 =======================================================================
   * Total *   -0.00000     18.99302    52.75083    0.25616    72.00000

 Normal termination of Gaussian 16 at Sat Dec 12 11:21:25 2020.
