 Gaussian 16, Revision A.03,

 -----------------------------------------------------------
 # opt freq B3LYP/6-31G(d) empiricaldispersion=gd3bj scf=xqc
 -----------------------------------------------------------

 ------------------------------
 CID_68365613_JID_3943_neutraal
 ------------------------------
 Symbolic Z-matrix:
 Charge =  0 Multiplicity = 1

 SCF Done:  E(RB3LYP) =  -572.987470436     A.U. after   15 cycles
 SCF Done:  E(RB3LYP) =  -572.996588317     A.U. after   12 cycles
 SCF Done:  E(RB3LYP) =  -572.998809238     A.U. after   12 cycles
 SCF Done:  E(RB3LYP) =  -572.999979206     A.U. after   12 cycles
 SCF Done:  E(RB3LYP) =  -573.000492918     A.U. after   11 cycles
 SCF Done:  E(RB3LYP) =  -573.000806150     A.U. after   11 cycles
 SCF Done:  E(RB3LYP) =  -573.000942707     A.U. after   11 cycles
 SCF Done:  E(RB3LYP) =  -573.001016031     A.U. after   11 cycles
 SCF Done:  E(RB3LYP) =  -573.001122260     A.U. after   10 cycles
 SCF Done:  E(RB3LYP) =  -573.001147421     A.U. after   10 cycles
 SCF Done:  E(RB3LYP) =  -573.001161317     A.U. after   10 cycles
 SCF Done:  E(RB3LYP) =  -573.001164962     A.U. after    9 cycles
 SCF Done:  E(RB3LYP) =  -573.001165422     A.U. after    8 cycles
 SCF Done:  E(RB3LYP) =  -573.001165530     A.U. after    7 cycles
 SCF Done:  E(RB3LYP) =  -573.001165568     A.U. after    7 cycles
 Optimization completed.
    -- Stationary point found.
 Normal termination of Gaussian 16 at Mon Dec 14 18:43:45 2020.

 --------------------------------------------------------------------
 #N Geom=AllCheck Guess=TCheck SCRF=Check GenChk RB3LYP/6-31G(d) Freq
 --------------------------------------------------------------------

 Structure from the checkpoint file:  "JID_3943.chk"
 ------------------------------
 CID_68365613_JID_3943_neutraal
 ------------------------------
 Charge =  0 Multiplicity = 1

 SCF Done:  E(RB3LYP) =  -573.001165568     A.U. after    1 cycles

  Exact polarizability: 163.804   7.849 112.727   6.705   4.321  69.101
 Approx polarizability: 228.454  14.103 185.562  18.664  12.285 115.279

                      1                      2                      3
                      A                      A                      A
 Frequencies --     50.1786                69.0672               108.1598
 Red. masses --      4.0797                 3.5570                 2.8454
 Frc consts  --      0.0061                 0.0100                 0.0196
 IR Inten    --      0.0637                 3.8166                 3.3362

                      4                      5                      6
                      A                      A                      A
 Frequencies --    132.1388               175.5520               192.4807
 Red. masses --      1.2629                 2.1318                 1.7312
 Frc consts  --      0.0130                 0.0387                 0.0378
 IR Inten    --      1.4496                 3.6524                 4.1082

                      7                      8                      9
                      A                      A                      A
 Frequencies --    223.9551               252.1664               299.3063
 Red. masses --      2.3814                 3.4286                 3.6826
 Frc consts  --      0.0704                 0.1285                 0.1944
 IR Inten    --      3.4019                 2.9880                 1.4146

                     10                     11                     12
                      A                      A                      A
 Frequencies --    314.8244               379.1641               390.4853
 Red. masses --      5.0023                 3.3607                 2.7546
 Frc consts  --      0.2921                 0.2847                 0.2475
 IR Inten    --      0.1254                 0.1571                 1.0793

                     13                     14                     15
                      A                      A                      A
 Frequencies --    468.7674               522.9416               556.9877
 Red. masses --      2.9617                 2.8602                 5.4045
 Frc consts  --      0.3834                 0.4609                 0.9879
 IR Inten    --      1.1382                25.4804                 2.4698

                     16                     17                     18
                      A                      A                      A
 Frequencies --    565.0747               651.1573               671.3524
 Red. masses --      4.0727                 4.9957                 5.7930
 Frc consts  --      0.7662                 1.2480                 1.5383
 IR Inten    --      0.7788                 5.3655                25.3700

                     19                     20                     21
                      A                      A                      A
 Frequencies --    737.5599               762.6826               774.2941
 Red. masses --      2.6054                 2.6474                 1.9687
 Frc consts  --      0.8350                 0.9073                 0.6954
 IR Inten    --      3.1550                52.5410                15.7343

                     22                     23                     24
                      A                      A                      A
 Frequencies --    793.1628               815.6935               879.5063
 Red. masses --      4.9601                 3.0513                 1.8241
 Frc consts  --      1.8385                 1.1962                 0.8313
 IR Inten    --     23.9912                77.8662                11.4927

                     25                     26                     27
                      A                      A                      A
 Frequencies --    885.2404               907.2401               946.0623
 Red. masses --      2.5816                 3.9250                 1.4311
 Frc consts  --      1.1919                 1.9034                 0.7547
 IR Inten    --     11.5101                26.9571                 2.5817

                     28                     29                     30
                      A                      A                      A
 Frequencies --    983.4762               988.9251               998.6518
 Red. masses --      1.2712                 2.3905                 2.4899
 Frc consts  --      0.7244                 1.3774                 1.4631
 IR Inten    --      0.2496                38.9820                 2.3971

                     31                     32                     33
                      A                      A                      A
 Frequencies --   1013.1876              1026.1744              1075.8303
 Red. masses --      3.1033                 1.5844                 1.5425
 Frc consts  --      1.8770                 0.9830                 1.0518
 IR Inten    --     30.1497                 1.3776                 4.4157

                     34                     35                     36
                      A                      A                      A
 Frequencies --   1083.1388              1092.5292              1119.0483
 Red. masses --      2.2562                 1.7515                 3.0828
 Frc consts  --      1.5596                 1.2318                 2.2745
 IR Inten    --      6.5962                32.0535                21.1412

                     37                     38                     39
                      A                      A                      A
 Frequencies --   1152.8855              1198.1350              1227.1848
 Red. masses --      1.7329                 1.1041                 2.7985
 Frc consts  --      1.3570                 0.9339                 2.4831
 IR Inten    --      1.6076                 0.1505                12.2663

                     40                     41                     42
                      A                      A                      A
 Frequencies --   1248.2962              1284.8162              1313.6683
 Red. masses --      2.2190                 1.7078                 1.5613
 Frc consts  --      2.0373                 1.6610                 1.5875
 IR Inten    --      4.3845                11.6084                 4.6814

                     43                     44                     45
                      A                      A                      A
 Frequencies --   1320.0864              1351.7463              1392.7315
 Red. masses --      1.3944                 4.9329                 1.4272
 Frc consts  --      1.4317                 5.3106                 1.6311
 IR Inten    --     15.1515                11.4741                33.2165

                     46                     47                     48
                      A                      A                      A
 Frequencies --   1422.9040              1437.6839              1440.5983
 Red. masses --      1.4251                 1.4474                 1.2503
 Frc consts  --      1.7000                 1.7627                 1.5288
 IR Inten    --     45.0991                19.1456                 2.7874

                     49                     50                     51
                      A                      A                      A
 Frequencies --   1498.3784              1506.9297              1508.5836
 Red. masses --      1.9430                 1.0805                 1.0497
 Frc consts  --      2.5702                 1.4456                 1.4076
 IR Inten    --     19.6573                 5.4411                 9.3967

                     52                     53                     54
                      A                      A                      A
 Frequencies --   1514.8720              1539.1069              1548.5314
 Red. masses --      1.0928                 1.3441                 1.7805
 Frc consts  --      1.4775                 1.8760                 2.5155
 IR Inten    --      6.1190                22.7572                13.5071

                     55                     56                     57
                      A                      A                      A
 Frequencies --   1641.9900              1670.4801              1745.8482
 Red. masses --      5.6888                 5.7117                 8.8257
 Frc consts  --      9.0368                 9.3906                15.8493
 IR Inten    --      0.8462                 6.2051               122.5144

                     58                     59                     60
                      A                      A                      A
 Frequencies --   2987.8660              3059.1892              3059.3604
 Red. masses --      1.0852                 1.0383                 1.0390
 Frc consts  --      5.7079                 5.7251                 5.7294
 IR Inten    --     63.8362                27.4581                 7.5994

                     61                     62                     63
                      A                      A                      A
 Frequencies --   3115.9716              3119.0798              3143.7070
 Red. masses --      1.0991                 1.0999                 1.1011
 Frc consts  --      6.2875                 6.3045                 6.4114
 IR Inten    --      8.8691                19.7450                 6.7824

                     64                     65                     66
                      A                      A                      A
 Frequencies --   3174.9504              3176.3295              3179.4479
 Red. masses --      1.0858                 1.1008                 1.0886
 Frc consts  --      6.4490                 6.5433                 6.4836
 IR Inten    --     13.6196                 3.7780                 1.8466

                     67                     68                     69
                      A                      A                      A
 Frequencies --   3193.6331              3208.8679              3417.5988
 Red. masses --      1.0916                 1.0974                 1.0765
 Frc consts  --      6.5600                 6.6578                 7.4081
 IR Inten    --     32.1989                31.8962                 2.8920

 - Thermochemistry -
 -------------------
 Temperature   298.150 Kelvin.  Pressure   1.00000 Atm.
 Atom     1 has atomic number  6 and mass  12.00000

 Molecular mass:   176.09496 amu.
 Principal axes and moments of inertia in atomic units:
                           1         2         3
     Eigenvalues --   941.506583514.904263861.01677
           X            0.99995   0.00778  -0.00635
           Y           -0.00772   0.99993   0.00852
           Z            0.00641  -0.00848   0.99994
 This molecule is an asymmetric top.
 Rotational symmetry number  1.
 Warning -- assumption of classical behavior for rotation
           may cause significant error
 Rotational temperatures (Kelvin)      0.09200     0.02464     0.02243
 Rotational constants (GHZ):           1.91687     0.51345     0.46743
 Zero-point vibrational energy     542552.1 (Joules/Mol)
                                  129.67306 (Kcal/Mol)
 Warning -- explicit consideration of  16 degrees of freedom as
           vibrations may cause significant error
 Vibrational temperatures:     72.20    99.37   155.62   190.12   252.58
          (Kelvin)            276.94   322.22   362.81   430.64   452.96
                              545.53   561.82   674.45   752.40   801.38
                              813.02   936.87   965.93  1061.18  1097.33
                             1114.04  1141.18  1173.60  1265.41  1273.66
                             1305.32  1361.17  1415.00  1422.84  1436.84
                             1457.75  1476.44  1547.88  1558.40  1571.91
                             1610.06  1658.75  1723.85  1765.65  1796.02
                             1848.56  1890.08  1899.31  1944.86  2003.83
                             2047.24  2068.51  2072.70  2155.83  2168.14
                             2170.52  2179.56  2214.43  2227.99  2362.46
                             2403.45  2511.89  4298.87  4401.49  4401.74
                             4483.19  4487.66  4523.09  4568.05  4570.03
                             4574.52  4594.93  4616.85  4917.16

 Zero-point correction=                           0.206647 (Hartree/Particle)
 Thermal correction to Energy=                    0.218333
 Thermal correction to Enthalpy=                  0.219277
 Thermal correction to Gibbs Free Energy=         0.168684
 Sum of electronic and zero-point Energies=           -572.794518
 Sum of electronic and thermal Energies=              -572.782832
 Sum of electronic and thermal Enthalpies=            -572.781888
 Sum of electronic and thermal Free Energies=         -572.832481

                     E (Thermal)             CV                S
                      KCal/Mol        Cal/Mol-Kelvin    Cal/Mol-Kelvin
 Total                  137.006             44.699            106.482
 Electronic               0.000              0.000              0.000
 Translational            0.889              2.981             41.405
 Rotational               0.889              2.981             30.925
 Vibrational            135.229             38.737             34.152
 Vibration     1          0.595              1.978              4.810
 Vibration     2          0.598              1.969              4.180
 Vibration     3          0.606              1.943              3.302
 Vibration     4          0.612              1.921              2.915
 Vibration     5          0.628              1.873              2.375
 Vibration     6          0.634              1.850              2.204
 Vibration     7          0.649              1.805              1.927
 Vibration     8          0.664              1.759              1.715
 Vibration     9          0.692              1.675              1.421
 Vibration    10          0.702              1.645              1.337
 Vibration    11          0.749              1.515              1.042
 Vibration    12          0.758              1.491              0.998
 Vibration    13          0.826              1.319              0.741
 Vibration    14          0.878              1.199              0.603
 Vibration    15          0.912              1.124              0.530
 Vibration    16          0.921              1.107              0.514

 Optimization completed.
    -- Stationary point found.
 Normal termination of Gaussian 16 at Mon Dec 14 18:49:56 2020.

 ----------------------------------------------------------------------
 # B3LYP/6-311++G(d,p) empiricaldispersion=gd3bj scf=xqc pop=npa geom=c
 heck
 ----------------------------------------------------------------------

 --------------------------------------
 CID_68365613_JID_3943_Energie_neutraal
 --------------------------------------
 Structure from the checkpoint file:  "JID_3943.chk"
 Charge =  0 Multiplicity = 1

 SCF Done:  E(RB3LYP) =  -573.157608511     A.U. after   16 cycles
 Normal termination of Gaussian 16 at Mon Dec 14 18:52:45 2020.

 ----------------------------------------------------------------------
 # B3LYP/6-311++G(d,p) empiricaldispersion=gd3bj scf=xqc pop=npa geom=c
 heck
 ----------------------------------------------------------------------

 ------------------------------------
 CID_68365613_JID_3943_Energie_kation
 ------------------------------------
 Structure from the checkpoint file:  "JID_3943.chk"
 Charge =  1 Multiplicity = 2

 SCF Done:  E(UB3LYP) =  -572.854947545     A.U. after   27 cycles
 Normal termination of Gaussian 16 at Mon Dec 14 18:59:23 2020.
 Gaussian 16:  ES64L-G16RevA.03 25-Dec-2016

 ----------------------------------------------------------------------
 # B3LYP/6-311++G(d,p) empiricaldispersion=gd3bj scf=xqc pop=npa geom=c
 heck
 ----------------------------------------------------------------------

 -----------------------------------
 CID_68365613_JID_3943_Energie_anion
 -----------------------------------
 Structure from the checkpoint file:  "JID_3943.chk"
 Charge = -1 Multiplicity = 2

                         Standard orientation:
 ---------------------------------------------------------------------
 Center     Atomic      Atomic             Coordinates (Angstroms)
 Number     Number       Type             X           Y           Z
 ---------------------------------------------------------------------
      1          6           0       -0.080721    1.930440    0.294965
      2          6           0       -1.157007    0.892378    0.093581
      3          6           0       -2.493961    1.295202    0.016418
      4          6           0       -3.529552    0.380968   -0.180769
      5          6           0       -3.239401   -0.974819   -0.303106
      6          6           0       -1.911908   -1.393783   -0.224236
      7          6           0       -0.870677   -0.483366   -0.031214
      8          6           0        0.535494   -1.037492    0.037300
      9          7           0        1.452824   -0.517072   -0.963766
     10          6           0        2.486591   -0.105035   -0.341155
     11          7           0        2.410344   -0.142863    1.069129
     12          8           0        1.128608   -0.732881    1.342985
     13          6           0        3.707127    0.484860   -0.969392
     14          1           0        0.552894    2.014845   -0.595075
     15          1           0       -0.525834    2.911815    0.484864
     16          1           0        0.570077    1.676131    1.135753
     17          1           0       -2.725285    2.353171    0.113425
     18          1           0       -4.556897    0.730622   -0.235318
     19          1           0       -4.033548   -1.700444   -0.453050
     20          1           0       -1.675324   -2.451470   -0.313278
     21          1           0        0.482868   -2.131954   -0.078701
     22          1           0        3.112600   -0.765678    1.478701
     23          1           0        3.634229    0.399146   -2.054248
     24          1           0        3.803294    1.539622   -0.690013
     25          1           0        4.613971   -0.029338   -0.628834
 ---------------------------------------------------------------------

 SCF Done:  E(UB3LYP) =  -573.145247818     A.U. after   33 cycles
 SCF Done:  E(UB3LYP) =  -573.145247825     a.u. after    2 cycles

 The electronic state is 2-A.
 Alpha  occ. eigenvalues --  -19.05389 -14.26985 -14.19987 -10.15384 -10.14800
 Alpha  occ. eigenvalues --  -10.09018 -10.08362 -10.08190 -10.08180 -10.08042
 Alpha  occ. eigenvalues --  -10.07868 -10.07216 -10.06268  -0.99469  -0.82086
 Alpha  occ. eigenvalues --   -0.77667  -0.75079  -0.67826  -0.66202  -0.63250
 Alpha  occ. eigenvalues --   -0.59564  -0.55812  -0.50960  -0.48524  -0.48304
 Alpha  occ. eigenvalues --   -0.43174  -0.41751  -0.38560  -0.37568  -0.35215
 Alpha  occ. eigenvalues --   -0.33886  -0.33417  -0.32515  -0.31989  -0.31715
 Alpha  occ. eigenvalues --   -0.30043  -0.28729  -0.27783  -0.26710  -0.26169
 Alpha  occ. eigenvalues --   -0.25014  -0.23625  -0.21321  -0.18848  -0.16191
 Alpha  occ. eigenvalues --   -0.15186  -0.12576   0.04501
 Alpha virt. eigenvalues --    0.05821   0.07156   0.07294   0.07814   0.08252
 Alpha virt. eigenvalues --    0.08527   0.09587   0.10014   0.11063   0.11522
 Alpha virt. eigenvalues --    0.11893   0.12677   0.13190   0.13702   0.14275

  Beta  occ. eigenvalues --  -19.05380 -14.26925 -14.19972 -10.15376 -10.14801
  Beta  occ. eigenvalues --  -10.09004 -10.08343 -10.08180 -10.08154 -10.08031
  Beta  occ. eigenvalues --  -10.07867 -10.07136 -10.06257  -0.99419  -0.82064
  Beta  occ. eigenvalues --   -0.77614  -0.75015  -0.67789  -0.66155  -0.63141
  Beta  occ. eigenvalues --   -0.59530  -0.55769  -0.50932  -0.48457  -0.48235
  Beta  occ. eigenvalues --   -0.43097  -0.41714  -0.38522  -0.37519  -0.35174
  Beta  occ. eigenvalues --   -0.33845  -0.33375  -0.32460  -0.31944  -0.31676
  Beta  occ. eigenvalues --   -0.29984  -0.28699  -0.27734  -0.26656  -0.26114
  Beta  occ. eigenvalues --   -0.24987  -0.23588  -0.21289  -0.18821  -0.16111
  Beta  occ. eigenvalues --   -0.15090  -0.12531
  Beta virt. eigenvalues --    0.06276   0.07245   0.07525   0.07756   0.07833
  Beta virt. eigenvalues --    0.08869   0.09246   0.09935   0.10430   0.11577
  Beta virt. eigenvalues --    0.11895   0.12329   0.12700   0.13860   0.13912

 Mulliken charges and spin densities:
               1          2
     1  C   -0.305675  -0.196569
     2  C   -0.003271   0.606636
     3  C   -0.500939  -0.227934
     4  C    0.560036  -0.781727
     5  C   -0.041926  -0.195237
     6  C   -0.100253  -0.300604
     7  C   -0.012224   1.540908
     8  C   -0.362481  -1.014276
     9  N   -0.103908   0.185181
    10  C   -1.547802   1.449292
    11  N   -0.261309   0.186666
    12  O   -0.004840   0.021355
    13  C    3.736800  -4.402321
    14  H    0.179116  -0.019493
    15  H   -0.152349   0.309095
    16  H    0.158507   0.018597
    17  H    0.027565   0.090855
    18  H   -0.308244   0.460919
    19  H   -0.219189   0.369884
    20  H    0.092773   0.034763
    21  H   -0.095665   0.292680
    22  H   -0.220938   0.542414
    23  H   -0.107361   0.274016
    24  H   -0.422943   0.594940
    25  H   -0.983481   1.159960
 Sum of Mulliken charges =  -1.00000   1.00000

 Dipole moment (field-independent basis, Debye):
    X=             -7.4743    Y=              0.6087    Z=             -0.0507  Tot=              7.4993
 Quadrupole moment (field-independent basis, Debye-Ang):
   XX=           -173.3150   YY=           -104.4618   ZZ=           -107.2623
   XY=              2.8728   XZ=             -1.6256   YZ=              1.6569

 Summary of Natural Population Analysis:

                                       Natural Population
                Natural  -----------------------------------------------
    Atom  No    Charge         Core      Valence    Rydberg      Total
 -----------------------------------------------------------------------
      C    1   -0.30412      0.99963     2.29793    0.00656     3.30412
      C    2   -0.00559      0.99951     1.99507    0.01102     3.00559
      C    3   -0.07467      0.99952     2.07077    0.00437     3.07467
      C    4   -0.10713      0.99961     2.09465    0.01288     3.10713
      C    5   -0.10924      0.99956     2.09898    0.01069     3.10924
      C    6   -0.09002      0.99952     2.08182    0.00868     3.09002
      C    7   -0.02847      0.99943     2.01829    0.01075     3.02847
      C    8    0.13692      0.99955     1.84461    0.01892     2.86308
      N    9   -0.26118      0.99965     2.75136    0.01017     3.76118
      C   10    0.22040      0.99961     1.76299    0.01701     2.77960
      N   11   -0.16910      0.99967     2.65476    0.01467     3.66910
      O   12   -0.23048      0.99990     3.22198    0.00860     4.23048
      C   13   -0.30975      0.99961     2.30345    0.00670     3.30975
      H   14    0.11086      0.00000     0.38805    0.00110     0.38914
      H   15    0.09752      0.00000     0.40153    0.00094     0.40248
      H   16    0.11625      0.00000     0.38197    0.00177     0.38375
      H   17    0.09344      0.00000     0.40512    0.00144     0.40656
      H   18    0.09865      0.00000     0.39996    0.00139     0.40135
      H   19    0.09958      0.00000     0.39943    0.00099     0.40042
      H   20    0.09923      0.00000     0.39956    0.00120     0.40077
      H   21    0.08291      0.00000     0.41490    0.00219     0.41709
      H   22    0.18951      0.00000     0.30296    0.00753     0.31049
      H   23    0.11321      0.00000     0.38542    0.00138     0.38679
      H   24    0.11361      0.00000     0.38445    0.00194     0.38639
      H   25    0.11771      0.00000     0.37369    0.00859     0.38229
 =======================================================================
   * Total *    0.00005     12.99477    33.83369    0.17149    46.99995

 Normal termination of Gaussian 16 at Mon Dec 14 19:14:10 2020.
