 Gaussian 16, Revision A.03,

 -----------------------------------------------------------
 # opt freq B3LYP/6-31G(d) empiricaldispersion=gd3bj scf=xqc
 -----------------------------------------------------------

 --------------------------------
 CID_137373732_JID_10883_neutraal
 --------------------------------
 Symbolic Z-matrix:
 Charge =  0 Multiplicity = 1

 SCF Done:  E(RB3LYP) =  -880.511736708     A.U. after   15 cycles
 SCF Done:  E(RB3LYP) =  -880.536989363     A.U. after   12 cycles
 SCF Done:  E(RB3LYP) =  -880.542644114     A.U. after   12 cycles
 SCF Done:  E(RB3LYP) =  -880.543766137     A.U. after   12 cycles
 SCF Done:  E(RB3LYP) =  -880.544521123     A.U. after   12 cycles
 SCF Done:  E(RB3LYP) =  -880.544988188     A.U. after   11 cycles
 SCF Done:  E(RB3LYP) =  -880.545357099     A.U. after   11 cycles
 SCF Done:  E(RB3LYP) =  -880.545726342     A.U. after   12 cycles
 SCF Done:  E(RB3LYP) =  -880.545839287     A.U. after   11 cycles
 SCF Done:  E(RB3LYP) =  -880.545889546     A.U. after   10 cycles
 SCF Done:  E(RB3LYP) =  -880.546032014     A.U. after    8 cycles
 SCF Done:  E(RB3LYP) =  -880.546032162     A.U. after    7 cycles
 SCF Done:  E(RB3LYP) =  -880.546032225     A.U. after    8 cycles
 SCF Done:  E(RB3LYP) =  -880.546032244     A.U. after    6 cycles
 SCF Done:  E(RB3LYP) =  -880.546032261     A.U. after    6 cycles
 Optimization completed on the basis of negligible forces.
    -- Stationary point found.
 Normal termination of Gaussian 16 at Sun Dec 13 17:04:45 2020.

 --------------------------------------------------------------------
 #N Geom=AllCheck Guess=TCheck SCRF=Check GenChk RB3LYP/6-31G(d) Freq
 --------------------------------------------------------------------

 Structure from the checkpoint file:  "JID_10883.chk"
 --------------------------------
 CID_137373732_JID_10883_neutraal
 --------------------------------
 Charge =  0 Multiplicity = 1

 SCF Done:  E(RB3LYP) =  -880.546032261     A.U. after    1 cycles

  Exact polarizability: 269.512   8.167 165.003   3.521 -17.551 117.675
 Approx polarizability: 352.163  14.422 284.571   8.103 -36.582 183.464

                      1                      2                      3
                      A                      A                      A
 Frequencies --     16.3084                22.7171                30.8619
 Red. masses --      4.6032                 3.5873                 2.0193
 Frc consts  --      0.0007                 0.0011                 0.0011
 IR Inten    --      0.5363                 0.7458                 0.4015

                      4                      5                      6
                      A                      A                      A
 Frequencies --     51.4244                54.4789                87.1721
 Red. masses --      4.3441                 3.4266                 4.7391
 Frc consts  --      0.0068                 0.0060                 0.0212
 IR Inten    --      2.2554                 0.4489                 1.1002

                      7                      8                      9
                      A                      A                      A
 Frequencies --    112.5997               138.2102               157.8184
 Red. masses --      5.1914                 3.9355                 4.3113
 Frc consts  --      0.0388                 0.0443                 0.0633
 IR Inten    --      1.3250                 8.6518                 1.6753

                     10                     11                     12
                      A                      A                      A
 Frequencies --    191.2746               240.4788               274.0692
 Red. masses --      5.6716                 4.0799                 3.8554
 Frc consts  --      0.1223                 0.1390                 0.1706
 IR Inten    --      5.1150                 4.1974                 1.3236

                     13                     14                     15
                      A                      A                      A
 Frequencies --    283.8862               317.5707               365.0802
 Red. masses --      2.6487                 6.6399                 3.2879
 Frc consts  --      0.1258                 0.3945                 0.2582
 IR Inten    --      1.8406                10.3303                 0.6921

                     16                     17                     18
                      A                      A                      A
 Frequencies --    378.3441               396.1285               435.8452
 Red. masses --      3.7768                 1.9386                 3.1045
 Frc consts  --      0.3185                 0.1792                 0.3475
 IR Inten    --      3.2432                 1.7750                 4.2352

                     19                     20                     21
                      A                      A                      A
 Frequencies --    439.5696               481.8569               556.4086
 Red. masses --      3.9209                 4.1873                 4.5162
 Frc consts  --      0.4464                 0.5728                 0.8238
 IR Inten    --      7.6158                 3.5532                11.3574

                     22                     23                     24
                      A                      A                      A
 Frequencies --    564.4433               582.4362               606.5275
 Red. masses --      1.8170                 5.9825                 1.3271
 Frc consts  --      0.3411                 1.1957                 0.2876
 IR Inten    --     83.8259                 7.3770                 2.0212

                     25                     26                     27
                      A                      A                      A
 Frequencies --    622.7783               631.3769               635.7502
 Red. masses --      2.6438                 3.8692                 2.7826
 Frc consts  --      0.6042                 0.9088                 0.6626
 IR Inten    --      3.7139                 1.8993                 1.6598

                     28                     29                     30
                      A                      A                      A
 Frequencies --    645.8230               700.9833               707.4457
 Red. masses --      2.5960                 1.5812                 1.2539
 Frc consts  --      0.6379                 0.4578                 0.3697
 IR Inten    --     27.8811                 5.5265                13.9959

                     31                     32                     33
                      A                      A                      A
 Frequencies --    749.2503               760.7656               767.8018
 Red. masses --     10.3673                 2.8623                 6.1240
 Frc consts  --      3.4290                 0.9760                 2.1271
 IR Inten    --     18.2335                 3.9445                 2.4858

                     34                     35                     36
                      A                      A                      A
 Frequencies --    797.6245               812.2427               821.0440
 Red. masses --      2.5228                 1.7578                 3.7987
 Frc consts  --      0.9457                 0.6833                 1.5087
 IR Inten    --     14.6546                 3.0150                 2.8749

                     37                     38                     39
                      A                      A                      A
 Frequencies --    823.5179               833.8290               884.3999
 Red. masses --      1.6548                 2.8780                 1.7859
 Frc consts  --      0.6612                 1.1789                 0.8230
 IR Inten    --      0.9845                 1.4588                17.9331

                     40                     41                     42
                      A                      A                      A
 Frequencies --    891.4695               911.4156               915.6089
 Red. masses --      2.8532                 1.8379                 3.4432
 Frc consts  --      1.3360                 0.8995                 1.7007
 IR Inten    --      0.1329                 2.6058                16.5774

                     43                     44                     45
                      A                      A                      A
 Frequencies --    931.9580               938.4457               945.0510
 Red. masses --      4.5745                 2.3460                 1.2922
 Frc consts  --      2.3409                 1.2173                 0.6800
 IR Inten    --     12.5449                 2.7262                 0.4876

                     46                     47                     48
                      A                      A                      A
 Frequencies --    962.7459               978.1773               990.9360
 Red. masses --      1.3529                 3.3239                 1.7982
 Frc consts  --      0.7388                 1.8738                 1.0403
 IR Inten    --      0.3960                30.5336                 1.9871

                     49                     50                     51
                      A                      A                      A
 Frequencies --   1017.7104              1049.6690              1074.5281
 Red. masses --      1.7182                 2.4128                 1.5669
 Frc consts  --      1.0485                 1.5663                 1.0659
 IR Inten    --      3.1697                 0.7904                 2.5886

                     52                     53                     54
                      A                      A                      A
 Frequencies --   1085.4104              1095.1816              1141.7053
 Red. masses --      2.6503                 1.9782                 1.7912
 Frc consts  --      1.8397                 1.3980                 1.3756
 IR Inten    --    106.6872                 7.0838                 8.5031

                     55                     56                     57
                      A                      A                      A
 Frequencies --   1150.5262              1151.7247              1170.4319
 Red. masses --      1.4668                 1.1003                 1.4300
 Frc consts  --      1.1440                 0.8599                 1.1542
 IR Inten    --     21.1262                 0.6490                32.3587

                     58                     59                     60
                      A                      A                      A
 Frequencies --   1178.2930              1195.7556              1209.7356
 Red. masses --      1.2579                 2.6252                 2.0010
 Frc consts  --      1.0290                 2.2116                 1.7254
 IR Inten    --      9.1800               448.4019                16.0091

                     61                     62                     63
                      A                      A                      A
 Frequencies --   1211.1154              1239.8953              1249.1888
 Red. masses --      2.4618                 1.6510                 1.8823
 Frc consts  --      2.1275                 1.4954                 1.7306
 IR Inten    --     12.7553                 0.4739                98.3644

                     64                     65                     66
                      A                      A                      A
 Frequencies --   1264.5918              1266.6835              1280.5122
 Red. masses --      1.3011                 1.9018                 1.7004
 Frc consts  --      1.2259                 1.7979                 1.6428
 IR Inten    --      0.7667                88.2622                62.5916

                     67                     68                     69
                      A                      A                      A
 Frequencies --   1288.8659              1306.1725              1325.3783
 Red. masses --      1.5219                 1.5195                 3.6966
 Frc consts  --      1.4895                 1.5274                 3.8259
 IR Inten    --      5.8338                 1.7578                96.2020

                     70                     71                     72
                      A                      A                      A
 Frequencies --   1331.3952              1340.2285              1356.6926
 Red. masses --      1.4529                 1.3030                 1.4359
 Frc consts  --      1.5175                 1.3790                 1.5572
 IR Inten    --      0.2836                 6.0859                 0.2558

                     73                     74                     75
                      A                      A                      A
 Frequencies --   1364.4850              1373.0587              1381.2343
 Red. masses --      1.4566                 2.3575                 2.0924
 Frc consts  --      1.5978                 2.6187                 2.3520
 IR Inten    --      3.2316                22.6450                79.6702

                     76                     77                     78
                      A                      A                      A
 Frequencies --   1393.8693              1433.3796              1463.2650
 Red. masses --      5.6281                 7.9984                 2.9680
 Frc consts  --      6.4426                 9.6823                 3.7442
 IR Inten    --      1.8094               814.5437                10.5408

                     79                     80                     81
                      A                      A                      A
 Frequencies --   1508.1709              1513.9819              1522.6508
 Red. masses --      2.4930                 1.0792                 3.5515
 Frc consts  --      3.3409                 1.4575                 4.8513
 IR Inten    --      2.2214                 0.7368                 1.0150

                     82                     83                     84
                      A                      A                      A
 Frequencies --   1523.5209              1524.7923              1536.5689
 Red. masses --      1.0911                 1.0891                 1.0814
 Frc consts  --      1.4922                 1.4919                 1.5044
 IR Inten    --      2.5916                 2.7788                 1.0185

                     85                     86                     87
                      A                      A                      A
 Frequencies --   1548.7449              1556.1639              1590.3011
 Red. masses --      1.1045                 1.1081                 4.7536
 Frc consts  --      1.5609                 1.5811                 7.0832
 IR Inten    --      6.4497                 8.2025                13.9577

                     88                     89                     90
                      A                      A                      A
 Frequencies --   1600.6947              1702.2855              1824.3322
 Red. masses --      5.7861                 6.8168                12.3786
 Frc consts  --      8.7348                11.6385                24.2733
 IR Inten    --      3.0665                25.2339               441.8538

                     91                     92                     93
                      A                      A                      A
 Frequencies --   3039.9372              3045.5429              3046.9452
 Red. masses --      1.0662                 1.0634                 1.0552
 Frc consts  --      5.8049                 5.8112                 5.7720
 IR Inten    --     18.3760                 5.5060                88.2443

                     94                     95                     96
                      A                      A                      A
 Frequencies --   3054.5418              3060.0297              3072.3662
 Red. masses --      1.0595                 1.0649                 1.0660
 Frc consts  --      5.8246                 5.8748                 5.9287
 IR Inten    --     21.3922                14.5640                48.5939

                     97                     98                     99
                      A                      A                      A
 Frequencies --   3089.7469              3094.6387              3096.1215
 Red. masses --      1.1001                 1.1073                 1.1094
 Frc consts  --      6.1875                 6.2481                 6.2659
 IR Inten    --      7.7915                 7.1199                69.0520

                    100                    101                    102
                      A                      A                      A
 Frequencies --   3098.0898              3103.7313              3120.5392
 Red. masses --      1.0961                 1.1052                 1.1051
 Frc consts  --      6.1984                 6.2728                 6.3402
 IR Inten    --     10.3641                19.3800                82.8165

                    103                    104                    105
                      A                      A                      A
 Frequencies --   3192.7057              3212.9020              3239.6558
 Red. masses --      1.0895                 1.0915                 1.0931
 Frc consts  --      6.5434                 6.6385                 6.7596
 IR Inten    --     14.3163                 7.4381                 7.0316

                    106                    107                    108
                      A                      A                      A
 Frequencies --   3284.7273              3287.5423              3657.6271
 Red. masses --      1.0946                 1.0979                 1.0805
 Frc consts  --      6.9585                 6.9910                 8.5166
 IR Inten    --      1.1797                 1.7566                94.0992

 - Thermochemistry -
 -------------------
 Temperature   298.150 Kelvin.  Pressure   1.00000 Atm.
 Atom     1 has atomic number  6 and mass  12.00000

 Molecular mass:   270.13683 amu.
 Principal axes and moments of inertia in atomic units:
                           1         2         3
     Eigenvalues --  1509.18642********************
           X            0.99999  -0.00307  -0.00238
           Y            0.00292   0.99819  -0.06008
           Z            0.00256   0.06007   0.99819
 This molecule is an asymmetric top.
 Rotational symmetry number  1.
 Warning -- assumption of classical behavior for rotation
           may cause significant error
 Rotational temperatures (Kelvin)      0.05739     0.00583     0.00567
 Rotational constants (GHZ):           1.19584     0.12143     0.11819
 Zero-point vibrational energy     834911.1 (Joules/Mol)
                                  199.54854 (Kcal/Mol)
 Warning -- explicit consideration of  24 degrees of freedom as
           vibrations may cause significant error
 Vibrational temperatures:     23.46    32.68    44.40    73.99    78.38
          (Kelvin)            125.42   162.01   198.85   227.07   275.20
                              346.00   394.32   408.45   456.91   525.27
                              544.35   569.94   627.08   632.44   693.28
                              800.55   812.11   838.00   872.66   896.04
                              908.41   914.70   929.20  1008.56  1017.86
                             1078.00  1094.57  1104.70  1147.60  1168.64
                             1181.30  1184.86  1199.69  1272.45  1282.63
                             1311.32  1317.36  1340.88  1350.21  1359.72
                             1385.18  1407.38  1425.74  1464.26  1510.24
                             1546.01  1561.66  1575.72  1642.66  1655.35
                             1657.07  1683.99  1695.30  1720.43  1740.54
                             1742.52  1783.93  1797.30  1819.47  1822.48
                             1842.37  1854.39  1879.29  1906.92  1915.58
                             1928.29  1951.98  1963.19  1975.53  1987.29
                             2005.47  2062.31  2105.31  2169.92  2178.28
                             2190.75  2192.01  2193.84  2210.78  2228.30
                             2238.97  2288.09  2303.04  2449.21  2624.81
                             4373.79  4381.86  4383.87  4394.80  4402.70
                             4420.45  4445.46  4452.49  4454.63  4457.46
                             4465.58  4489.76  4593.59  4622.65  4661.14
                             4725.99  4730.04  5262.51

 Zero-point correction=                           0.318001 (Hartree/Particle)
 Thermal correction to Energy=                    0.335184
 Thermal correction to Enthalpy=                  0.336128
 Thermal correction to Gibbs Free Energy=         0.269579
 Sum of electronic and zero-point Energies=           -880.228031
 Sum of electronic and thermal Energies=              -880.210848
 Sum of electronic and thermal Enthalpies=            -880.209904
 Sum of electronic and thermal Free Energies=         -880.276454

                     E (Thermal)             CV                S
                      KCal/Mol        Cal/Mol-Kelvin    Cal/Mol-Kelvin
 Total                  210.331             66.856            140.066
 Electronic               0.000              0.000              0.000
 Translational            0.889              2.981             42.680
 Rotational               0.889              2.981             34.193
 Vibrational            208.554             60.895             63.193
 Vibration     1          0.593              1.986              7.039
 Vibration     2          0.593              1.985              6.381
 Vibration     3          0.594              1.984              5.773
 Vibration     4          0.596              1.977              4.762
 Vibration     5          0.596              1.976              4.648
 Vibration     6          0.601              1.958              3.723
 Vibration     7          0.607              1.939              3.224
 Vibration     8          0.614              1.915              2.829
 Vibration     9          0.621              1.894              2.576
 Vibration    10          0.634              1.852              2.215
 Vibration    11          0.658              1.778              1.799
 Vibration    12          0.676              1.721              1.570
 Vibration    13          0.682              1.704              1.510
 Vibration    14          0.704              1.640              1.323
 Vibration    15          0.738              1.544              1.100
 Vibration    16          0.749              1.516              1.046
 Vibration    17          0.763              1.478              0.977
 Vibration    18          0.796              1.392              0.840
 Vibration    19          0.800              1.384              0.828
 Vibration    20          0.838              1.290              0.705
 Vibration    21          0.912              1.126              0.531
 Vibration    22          0.920              1.108              0.515
 Vibration    23          0.939              1.069              0.481
 Vibration    24          0.965              1.018              0.439

 Optimization completed on the basis of negligible forces.
    -- Stationary point found.
 Normal termination of Gaussian 16 at Sun Dec 13 17:20:40 2020.

 ----------------------------------------------------------------------
 # B3LYP/6-311++G(d,p) empiricaldispersion=gd3bj scf=xqc pop=npa geom=c
 heck
 ----------------------------------------------------------------------

 ----------------------------------------
 CID_137373732_JID_10883_Energie_neutraal
 ----------------------------------------
 Structure from the checkpoint file:  "JID_10883.chk"
 Charge =  0 Multiplicity = 1

 SCF Done:  E(RB3LYP) =  -880.782904686     A.U. after   16 cycles
 Normal termination of Gaussian 16 at Sun Dec 13 17:27:17 2020.

 ----------------------------------------------------------------------
 # B3LYP/6-311++G(d,p) empiricaldispersion=gd3bj scf=xqc pop=npa geom=c
 heck
 ----------------------------------------------------------------------

 --------------------------------------
 CID_137373732_JID_10883_Energie_kation
 --------------------------------------
 Structure from the checkpoint file:  "JID_10883.chk"
 Charge =  1 Multiplicity = 2

 SCF Done:  E(UB3LYP) =  -880.528917438     A.U. after   23 cycles
 Normal termination of Gaussian 16 at Sun Dec 13 17:40:51 2020.
 Gaussian 16:  ES64L-G16RevA.03 25-Dec-2016

 ----------------------------------------------------------------------
 # B3LYP/6-311++G(d,p) empiricaldispersion=gd3bj scf=xqc pop=npa geom=c
 heck
 ----------------------------------------------------------------------

 -------------------------------------
 CID_137373732_JID_10883_Energie_anion
 -------------------------------------
 Structure from the checkpoint file:  "JID_10883.chk"
 Charge = -1 Multiplicity = 2

                         Standard orientation:
 ---------------------------------------------------------------------
 Center     Atomic      Atomic             Coordinates (Angstroms)
 Number     Number       Type             X           Y           Z
 ---------------------------------------------------------------------
      1          6           0        5.434201   -0.502519   -1.496979
      2          6           0        5.583976   -1.420575   -0.244766
      3          6           0        4.829472   -0.695759    0.890639
      4          6           0        3.775757    0.139836    0.158896
      5          6           0        4.556182    0.685177   -1.038692
      6          6           0        2.454643   -0.625162   -0.178758
      7          7           0        1.751196    0.278050    0.739260
      8          6           0        2.917318    1.124361    1.000676
      9          6           0        0.459659    0.696044    0.731884
     10          8           0        0.051422    1.714205    1.253694
     11          8           0       -0.307591   -0.223428    0.057252
     12          6           0       -1.679882    0.009795   -0.061045
     13          6           0       -2.520358   -0.995531    0.332272
     14          6           0       -3.915614   -0.819201    0.129010
     15          6           0       -5.025088   -1.616073    0.401595
     16          7           0       -6.130390   -0.917056   -0.012440
     17          6           0       -5.795987    0.299663   -0.544043
     18          6           0       -4.407863    0.405485   -0.476050
     19          6           0       -3.487535    1.415895   -0.866378
     20          6           0       -2.146542    1.216930   -0.663578
     21          1           0        4.944850   -1.047772   -2.311121
     22          1           0        6.400758   -0.163981   -1.882205
     23          1           0        5.127551   -2.397863   -0.436772
     24          1           0        6.630299   -1.607725    0.014829
     25          1           0        5.505825   -0.019589    1.430342
     26          1           0        4.394356   -1.378535    1.628453
     27          1           0        5.185874    1.518255   -0.699333
     28          1           0        3.905396    1.073355   -1.829696
     29          1           0        2.415972   -1.678852    0.119348
     30          1           0        2.119079   -0.536289   -1.218814
     31          1           0        3.179405    1.204370    2.061512
     32          1           0        2.817780    2.133073    0.581312
     33          1           0       -2.115168   -1.896848    0.780400
     34          1           0       -5.112185   -2.594772    0.847915
     35          1           0       -7.076926   -1.257565    0.068865
     36          1           0       -6.548025    0.977638   -0.917806
     37          1           0       -3.842834    2.336799   -1.320283
     38          1           0       -1.422329    1.972922   -0.940347
 ---------------------------------------------------------------------

 SCF Done:  E(UB3LYP) =  -880.772284105     A.U. after   33 cycles
 SCF Done:  E(UB3LYP) =  -880.772279984     a.u. after    3 cycles

 The electronic state is 2-A.
 Alpha  occ. eigenvalues --  -19.06422 -18.99551 -14.27317 -14.23986 -10.21571
 Alpha  occ. eigenvalues --  -10.11998 -10.11089 -10.11056 -10.09529 -10.09477
 Alpha  occ. eigenvalues --  -10.09345 -10.07175 -10.07088 -10.07024 -10.06941
 Alpha  occ. eigenvalues --  -10.06806 -10.06771 -10.06237 -10.06007 -10.05987
 Alpha  occ. eigenvalues --   -1.00744  -0.92056  -0.89064  -0.86621  -0.74859
 Alpha  occ. eigenvalues --   -0.74028  -0.67646  -0.66060  -0.64898  -0.61757
 Alpha  occ. eigenvalues --   -0.61453  -0.60235  -0.57811  -0.54328  -0.51270
 Alpha  occ. eigenvalues --   -0.47633  -0.47565  -0.45693  -0.44897  -0.44460
 Alpha  occ. eigenvalues --   -0.43394  -0.39690  -0.38976  -0.38757  -0.37598
 Alpha  occ. eigenvalues --   -0.36709  -0.35357  -0.34592  -0.34201  -0.33052
 Alpha  occ. eigenvalues --   -0.32801  -0.32510  -0.32115  -0.31562  -0.30107
 Alpha  occ. eigenvalues --   -0.29485  -0.29193  -0.27660  -0.25077  -0.24926
 Alpha  occ. eigenvalues --   -0.24393  -0.24000  -0.23543  -0.23003  -0.22227
 Alpha  occ. eigenvalues --   -0.22179  -0.21028  -0.18369  -0.17219  -0.15290
 Alpha  occ. eigenvalues --   -0.13716  -0.09358   0.04310
 Alpha virt. eigenvalues --    0.05166   0.05465   0.07424   0.07540   0.07804
 Alpha virt. eigenvalues --    0.07818   0.08675   0.09598   0.10201   0.10329
 Alpha virt. eigenvalues --    0.10525   0.10676   0.11004   0.11082   0.12040

  Beta  occ. eigenvalues --  -19.06417 -18.99551 -14.27161 -14.23983 -10.21567
  Beta  occ. eigenvalues --  -10.11968 -10.11083 -10.11038 -10.09437 -10.09412
  Beta  occ. eigenvalues --  -10.09346 -10.07203 -10.07066 -10.07001 -10.06979
  Beta  occ. eigenvalues --  -10.06780 -10.06745 -10.06083 -10.05966 -10.05861
  Beta  occ. eigenvalues --   -1.00729  -0.92046  -0.88826  -0.86608  -0.74785
  Beta  occ. eigenvalues --   -0.73924  -0.67575  -0.65857  -0.64796  -0.61704
  Beta  occ. eigenvalues --   -0.61277  -0.60194  -0.57729  -0.54130  -0.51189
  Beta  occ. eigenvalues --   -0.47496  -0.47487  -0.45647  -0.44767  -0.44416
  Beta  occ. eigenvalues --   -0.43346  -0.39655  -0.38943  -0.38667  -0.37548
  Beta  occ. eigenvalues --   -0.36650  -0.35290  -0.34518  -0.34121  -0.33008
  Beta  occ. eigenvalues --   -0.32489  -0.32325  -0.32013  -0.31507  -0.30064
  Beta  occ. eigenvalues --   -0.29438  -0.29161  -0.27585  -0.24994  -0.24766
  Beta  occ. eigenvalues --   -0.24343  -0.23966  -0.23267  -0.22964  -0.22197
  Beta  occ. eigenvalues --   -0.22141  -0.20898  -0.18273  -0.16734  -0.15262
  Beta  occ. eigenvalues --   -0.13329  -0.08627
  Beta virt. eigenvalues --    0.05155   0.06546   0.07330   0.07476   0.08039
  Beta virt. eigenvalues --    0.08109   0.08277   0.08856   0.09729   0.10391
  Beta virt. eigenvalues --    0.10584   0.10733   0.10903   0.11144   0.11239

 Mulliken charges and spin densities:
               1          2
     1  C    0.438928  -0.816939
     2  C    0.312128  -0.674037
     3  C    0.165533  -0.680540
     4  C   -0.318774   1.364139
     5  C   -0.217180  -0.341806
     6  C    0.664469  -1.303651
     7  N   -0.087746   0.054840
     8  C   -0.413283   0.026630
     9  C   -0.075223   0.013036
    10  O   -0.269067   0.003083
    11  O   -0.001000   0.005758
    12  C   -0.752181  -0.099850
    13  C   -0.717154   0.134585
    14  C    0.032596  -0.067610
    15  C    0.284026   0.047707
    16  N   -0.015824   0.040302
    17  C   -0.305532   0.082820
    18  C    1.104463  -0.068292
    19  C   -1.272567   0.237089
    20  C    0.655741  -0.051452
    21  H   -0.051853   0.186047
    22  H   -0.354908   0.512501
    23  H   -0.051973   0.186177
    24  H   -0.428480   0.591487
    25  H   -0.258927   0.411791
    26  H   -0.066802   0.233736
    27  H   -0.233647   0.393005
    28  H   -0.038939   0.196067
    29  H    0.082136   0.118613
    30  H    0.104720   0.079542
    31  H    0.067634   0.126563
    32  H    0.129530   0.041869
    33  H    0.104224   0.007436
    34  H    0.133312  -0.004260
    35  H    0.276808   0.001888
    36  H    0.130729  -0.004789
    37  H    0.107787  -0.002152
    38  H    0.136297   0.018664
 Sum of Mulliken charges =  -1.00000   1.00000

 Dipole moment (field-independent basis, Debye):
    X=            -11.2132    Y=             -1.2151    Z=             -0.0177  Tot=             11.2789
 Quadrupole moment (field-independent basis, Debye-Ang):
   XX=           -235.9463   YY=           -142.9676   ZZ=           -147.5507
   XY=             11.5612   XZ=              4.9755   YZ=             -6.1353

 Summary of Natural Population Analysis:

                                       Natural Population
                Natural  -----------------------------------------------
    Atom  No    Charge         Core      Valence    Rydberg      Total
 -----------------------------------------------------------------------
      C    1   -0.19349      0.99965     2.18570    0.00814     3.19349
      C    2   -0.19354      0.99965     2.18555    0.00834     3.19354
      C    3   -0.18783      0.99959     2.17873    0.00952     3.18783
      C    4   -0.04666      0.99954     2.03418    0.01294     3.04666
      C    5   -0.18806      0.99959     2.17909    0.00938     3.18806
      C    6   -0.06633      0.99960     2.05812    0.00862     3.06633
      N    7   -0.26405      0.99963     2.75470    0.00972     3.76405
      C    8   -0.06482      0.99960     2.05605    0.00917     3.06482
      C    9    0.46543      0.99963     1.51038    0.02456     2.53457
      O   10   -0.32250      0.99987     3.31772    0.00491     4.32250
      O   11   -0.28289      0.99984     3.27449    0.00856     4.28289
      C   12    0.14868      0.99936     1.83957    0.01239     2.85132
      C   13   -0.09475      0.99947     2.08749    0.00779     3.09475
      C   14   -0.05462      0.99952     2.04744    0.00766     3.05462
      C   15   -0.02677      0.99956     2.01376    0.01344     3.02677
      N   16   -0.23045      0.99970     2.72333    0.00743     3.73045
      C   17   -0.01665      0.99956     2.00373    0.01337     3.01665
      C   18   -0.06351      0.99952     2.05622    0.00777     3.06351
      C   19   -0.06592      0.99954     2.05833    0.00804     3.06592
      C   20   -0.11557      0.99953     2.10679    0.00926     3.11557
      H   21    0.09609      0.00000     0.40269    0.00121     0.40391
      H   22    0.10225      0.00000     0.39609    0.00166     0.39775
      H   23    0.09561      0.00000     0.40313    0.00125     0.40439
      H   24    0.10286      0.00000     0.39530    0.00184     0.39714
      H   25    0.09992      0.00000     0.39854    0.00154     0.40008
      H   26    0.10157      0.00000     0.39733    0.00110     0.39843
      H   27    0.10023      0.00000     0.39832    0.00145     0.39977
      H   28    0.10116      0.00000     0.39768    0.00116     0.39884
      H   29    0.09562      0.00000     0.40299    0.00139     0.40438
      H   30    0.09656      0.00000     0.40221    0.00122     0.40344
      H   31    0.09542      0.00000     0.40329    0.00130     0.40458
      H   32    0.09670      0.00000     0.40212    0.00118     0.40330
      H   33    0.10069      0.00000     0.39789    0.00141     0.39931
      H   34    0.09491      0.00000     0.40419    0.00090     0.40509
      H   35    0.19250      0.00000     0.30634    0.00116     0.30750
      H   36    0.09394      0.00000     0.40514    0.00093     0.40606
      H   37    0.09297      0.00000     0.40557    0.00145     0.40703
      H   38    0.10530      0.00000     0.39361    0.00109     0.39470
 =======================================================================
   * Total *    0.00000     19.99192    51.78380    0.22428    72.00000

 Normal termination of Gaussian 16 at Sun Dec 13 18:38:49 2020.
