 Gaussian 16, Revision A.03,

 -----------------------------------------------------------
 # opt freq B3LYP/6-31G(d) empiricaldispersion=gd3bj scf=xqc
 -----------------------------------------------------------

 ------------------------------
 CID_15896745_JID_2250_neutraal
 ------------------------------
 Symbolic Z-matrix:
 Charge =  0 Multiplicity = 1

 SCF Done:  E(RB3LYP) =  -504.063788568     A.U. after   14 cycles
 SCF Done:  E(RB3LYP) =  -504.068198402     A.U. after   12 cycles
 SCF Done:  E(RB3LYP) =  -504.068671782     A.U. after   11 cycles
 SCF Done:  E(RB3LYP) =  -504.068934339     A.U. after   11 cycles
 SCF Done:  E(RB3LYP) =  -504.068999481     A.U. after   10 cycles
 SCF Done:  E(RB3LYP) =  -504.069028994     A.U. after   10 cycles
 SCF Done:  E(RB3LYP) =  -504.069034147     A.U. after    9 cycles
 SCF Done:  E(RB3LYP) =  -504.069037167     A.U. after    8 cycles
 SCF Done:  E(RB3LYP) =  -504.069037526     A.U. after    7 cycles
 Optimization completed.
    -- Stationary point found.
 Normal termination of Gaussian 16 at Wed Dec  9 16:57:00 2020.

 --------------------------------------------------------------------
 #N Geom=AllCheck Guess=TCheck SCRF=Check GenChk RB3LYP/6-31G(d) Freq
 --------------------------------------------------------------------

 Structure from the checkpoint file:  "JID_2250.chk"
 ------------------------------
 CID_15896745_JID_2250_neutraal
 ------------------------------
 Charge =  0 Multiplicity = 1

 SCF Done:  E(RB3LYP) =  -504.069037526     A.U. after    1 cycles

  Exact polarizability: 114.751   0.934 102.048  -2.824   0.229 101.349
 Approx polarizability: 160.241  -4.021 149.977 -13.138   5.587 157.884

                      1                      2                      3
                      A                      A                      A
 Frequencies --     55.1618               130.9503               187.6641
 Red. masses --      3.3468                 4.0755                 1.2847
 Frc consts  --      0.0060                 0.0412                 0.0267
 IR Inten    --      1.2169                 2.2499                 0.1548

                      4                      5                      6
                      A                      A                      A
 Frequencies --    206.5650               252.1275               266.0332
 Red. masses --      1.8286                 2.5408                 1.0585
 Frc consts  --      0.0460                 0.0952                 0.0441
 IR Inten    --      0.2771                 1.7041                 0.0108

                      7                      8                      9
                      A                      A                      A
 Frequencies --    283.6118               297.6732               311.3487
 Red. masses --      1.8369                 1.4573                 2.2872
 Frc consts  --      0.0871                 0.0761                 0.1306
 IR Inten    --      2.0157                 0.5552                 0.2208

                     10                     11                     12
                      A                      A                      A
 Frequencies --    353.4106               388.8795               404.3922
 Red. masses --      2.3234                 1.9779                 2.5097
 Frc consts  --      0.1710                 0.1762                 0.2418
 IR Inten    --      0.3057                 0.0277                 1.0702

                     13                     14                     15
                      A                      A                      A
 Frequencies --    462.3388               463.5567               502.5960
 Red. masses --      4.0027                 4.2770                 2.9101
 Frc consts  --      0.5041                 0.5415                 0.4331
 IR Inten    --      4.4964                 0.7009                 2.4672

                     16                     17                     18
                      A                      A                      A
 Frequencies --    536.1655               610.9932               658.0737
 Red. masses --      3.5211                 4.2007                 5.5260
 Frc consts  --      0.5964                 0.9239                 1.4100
 IR Inten    --      1.3005                 1.5057                 0.5407

                     19                     20                     21
                      A                      A                      A
 Frequencies --    714.4277               750.2478               802.5918
 Red. masses --      3.3652                 2.7463                 3.1833
 Frc consts  --      1.0120                 0.9108                 1.2081
 IR Inten    --      2.4991                 0.9696                 4.6458

                     22                     23                     24
                      A                      A                      A
 Frequencies --    834.0111               857.3731               881.6382
 Red. masses --      3.0899                 2.2911                 2.0723
 Frc consts  --      1.2663                 0.9923                 0.9490
 IR Inten    --      3.8957                 5.2673                10.2020

                     25                     26                     27
                      A                      A                      A
 Frequencies --    918.0766               930.1656               948.5319
 Red. masses --      1.9034                 1.7586                 1.9766
 Frc consts  --      0.9452                 0.8965                 1.0478
 IR Inten    --      1.3046                 9.9285                 4.4383

                     28                     29                     30
                      A                      A                      A
 Frequencies --    956.9798               967.9481               987.9078
 Red. masses --      1.9329                 1.5870                 2.0201
 Frc consts  --      1.0430                 0.8761                 1.1616
 IR Inten    --     14.0803                 1.0824                 0.4858

                     31                     32                     33
                      A                      A                      A
 Frequencies --   1004.0727              1028.8621              1040.9721
 Red. masses --      2.0995                 1.4436                 1.4224
 Frc consts  --      1.2471                 0.9004                 0.9081
 IR Inten    --      4.7778                 0.2967                 2.1372

                     34                     35                     36
                      A                      A                      A
 Frequencies --   1060.2658              1114.0007              1120.3955
 Red. masses --      1.4876                 1.2494                 1.5007
 Frc consts  --      0.9853                 0.9135                 1.1099
 IR Inten    --      5.0645                 3.2589                 2.0009

                     37                     38                     39
                      A                      A                      A
 Frequencies --   1134.3148              1153.0648              1173.7327
 Red. masses --      1.4440                 1.8544                 1.6832
 Frc consts  --      1.0947                 1.4527                 1.3662
 IR Inten    --      4.9220                 8.4513                 0.3702

                     40                     41                     42
                      A                      A                      A
 Frequencies --   1205.3546              1231.3145              1241.9460
 Red. masses --      2.0665                 2.6946                 2.8338
 Frc consts  --      1.7690                 2.4071                 2.5753
 IR Inten    --     12.3630                 6.4166                 2.9474

                     43                     44                     45
                      A                      A                      A
 Frequencies --   1269.1098              1290.3313              1313.1863
 Red. masses --      1.9792                 2.6991                 1.5020
 Frc consts  --      1.8782                 2.6477                 1.5260
 IR Inten    --      3.2687                 1.2010                 1.3786

                     46                     47                     48
                      A                      A                      A
 Frequencies --   1329.8553              1335.7315              1368.4849
 Red. masses --      1.5204                 1.8482                 1.8255
 Frc consts  --      1.5843                 1.9428                 2.0143
 IR Inten    --      2.3805                11.6694                 0.9856

                     49                     50                     51
                      A                      A                      A
 Frequencies --   1403.0801              1428.3102              1435.6391
 Red. masses --      1.7752                 1.2382                 1.7583
 Frc consts  --      2.0590                 1.4883                 2.1352
 IR Inten    --      2.2824                 5.6702                 3.6513

                     52                     53                     54
                      A                      A                      A
 Frequencies --   1441.4906              1454.7201              1514.8535
 Red. masses --      1.4117                 1.4115                 1.0703
 Frc consts  --      1.7283                 1.7599                 1.4470
 IR Inten    --      4.1413                 0.9472                 0.8990

                     55                     56                     57
                      A                      A                      A
 Frequencies --   1516.5669              1520.8645              1524.8641
 Red. masses --      1.0487                 1.0528                 1.0508
 Frc consts  --      1.4211                 1.4348                 1.4396
 IR Inten    --      0.2677                 3.4331                 4.1857

                     58                     59                     60
                      A                      A                      A
 Frequencies --   1525.5246              1531.8954              1535.3188
 Red. masses --      1.0677                 1.0813                 1.0630
 Frc consts  --      1.4639                 1.4951                 1.4763
 IR Inten    --      5.3183                 4.5343                 5.5525

                     61                     62                     63
                      A                      A                      A
 Frequencies --   1540.5656              1831.3259              3038.6869
 Red. masses --      1.0661                12.0258                 1.0348
 Frc consts  --      1.4907                23.7627                 5.6296
 IR Inten    --      2.8801               244.0216                19.0867

                     64                     65                     66
                      A                      A                      A
 Frequencies --   3040.6688              3043.8805              3047.1351
 Red. masses --      1.0479                 1.0544                 1.0472
 Frc consts  --      5.7084                 5.7559                 5.7288
 IR Inten    --     12.9429                40.1688                25.2937

                     67                     68                     69
                      A                      A                      A
 Frequencies --   3053.7046              3082.4854              3086.6517
 Red. masses --      1.0405                 1.1060                 1.1046
 Frc consts  --      5.7165                 6.1918                 6.2006
 IR Inten    --     47.1640                23.1500                20.6848

                     70                     71                     72
                      A                      A                      A
 Frequencies --   3105.0575              3110.1046              3114.4701
 Red. masses --      1.1026                 1.1019                 1.1026
 Frc consts  --      6.2636                 6.2798                 6.3016
 IR Inten    --      1.9064                53.9014                28.0359

                     73                     74                     75
                      A                      A                      A
 Frequencies --   3117.9211              3118.1990              3131.9173
 Red. masses --      1.1022                 1.1024                 1.1017
 Frc consts  --      6.3134                 6.3151                 6.3668
 IR Inten    --     11.1284                47.1921                18.3855

                     76                     77                     78
                      A                      A                      A
 Frequencies --   3150.6081              3188.3184              3219.9474
 Red. masses --      1.0883                 1.0912                 1.0930
 Frc consts  --      6.3649                 6.5356                 6.6771
 IR Inten    --     20.3107                20.2347                 9.1302

 - Thermochemistry -
 -------------------
 Temperature   298.150 Kelvin.  Pressure   1.00000 Atm.
 Atom     1 has atomic number  6 and mass  12.00000

 Molecular mass:   164.12012 amu.
 Principal axes and moments of inertia in atomic units:
                           1         2         3
     Eigenvalues --  1274.218132053.205222097.68120
           X            0.99880   0.04185   0.02554
           Y           -0.03679   0.98406  -0.17399
           Z           -0.03241   0.17284   0.98442
 This molecule is an asymmetric top.
 Rotational symmetry number  1.
 Warning -- assumption of classical behavior for rotation
           may cause significant error
 Rotational temperatures (Kelvin)      0.06797     0.04218     0.04129
 Rotational constants (GHZ):           1.41635     0.87899     0.86035
 Zero-point vibrational energy     653108.5 (Joules/Mol)
                                  156.09668 (Kcal/Mol)
 Warning -- explicit consideration of  17 degrees of freedom as
           vibrations may cause significant error
 Vibrational temperatures:     79.37   188.41   270.01   297.20   362.76
          (Kelvin)            382.76   408.05   428.29   447.96   508.48
                              559.51   581.83   665.20   666.95   723.12
                              771.42   879.08   946.82  1027.90  1079.44
                             1154.75  1199.96  1233.57  1268.48  1320.91
                             1338.30  1364.73  1376.88  1392.66  1421.38
                             1444.64  1480.30  1497.73  1525.49  1602.80
                             1612.00  1632.03  1659.00  1688.74  1734.24
                             1771.59  1786.88  1825.97  1856.50  1889.38
                             1913.37  1921.82  1968.94  2018.72  2055.02
                             2065.56  2073.98  2093.02  2179.54  2182.00
                             2188.18  2193.94  2194.89  2204.06  2208.98
                             2216.53  2634.87  4371.99  4374.84  4379.47
                             4384.15  4393.60  4435.01  4441.00  4467.49
                             4474.75  4481.03  4485.99  4486.39  4506.13
                             4533.02  4587.28  4632.79

 Zero-point correction=                           0.248756 (Hartree/Particle)
 Thermal correction to Energy=                    0.259784
 Thermal correction to Enthalpy=                  0.260728
 Thermal correction to Gibbs Free Energy=         0.213034
 Sum of electronic and zero-point Energies=           -503.820282
 Sum of electronic and thermal Energies=              -503.809254
 Sum of electronic and thermal Enthalpies=            -503.808310
 Sum of electronic and thermal Free Energies=         -503.856004

                     E (Thermal)             CV                S
                      KCal/Mol        Cal/Mol-Kelvin    Cal/Mol-Kelvin
 Total                  163.017             45.134            100.381
 Electronic               0.000              0.000              0.000
 Translational            0.889              2.981             41.195
 Rotational               0.889              2.981             30.085
 Vibrational            161.239             39.173             29.101
 Vibration     1          0.596              1.976              4.623
 Vibration     2          0.612              1.922              2.932
 Vibration     3          0.632              1.857              2.251
 Vibration     4          0.641              1.831              2.074
 Vibration     5          0.664              1.759              1.716
 Vibration     6          0.672              1.735              1.622
 Vibration     7          0.682              1.704              1.512
 Vibration     8          0.691              1.678              1.430
 Vibration     9          0.700              1.652              1.355
 Vibration    10          0.730              1.568              1.151
 Vibration    11          0.757              1.494              1.004
 Vibration    12          0.770              1.461              0.947
 Vibration    13          0.820              1.334              0.759
 Vibration    14          0.821              1.331              0.756
 Vibration    15          0.858              1.244              0.652
 Vibration    16          0.891              1.170              0.574
 Vibration    17          0.970              1.009              0.431

 Optimization completed.
    -- Stationary point found.
 Normal termination of Gaussian 16 at Wed Dec  9 17:05:33 2020.

 ----------------------------------------------------------------------
 # B3LYP/6-311++G(d,p) empiricaldispersion=gd3bj scf=xqc pop=npa geom=c
 heck
 ----------------------------------------------------------------------

 --------------------------------------
 CID_15896745_JID_2250_Energie_neutraal
 --------------------------------------
 Structure from the checkpoint file:  "JID_2250.chk"
 Charge =  0 Multiplicity = 1

 SCF Done:  E(RB3LYP) =  -504.204522146     A.U. after   14 cycles
 Normal termination of Gaussian 16 at Wed Dec  9 17:09:47 2020.

 ----------------------------------------------------------------------
 # B3LYP/6-311++G(d,p) empiricaldispersion=gd3bj scf=xqc pop=npa geom=c
 heck
 ----------------------------------------------------------------------

 ------------------------------------
 CID_15896745_JID_2250_Energie_kation
 ------------------------------------
 Structure from the checkpoint file:  "JID_2250.chk"
 Charge =  1 Multiplicity = 2

 SCF Done:  E(UB3LYP) =  -503.887008570     A.U. after   21 cycles
 Normal termination of Gaussian 16 at Wed Dec  9 17:17:44 2020.
 Gaussian 16:  ES64L-G16RevA.03 25-Dec-2016

 ----------------------------------------------------------------------
 # B3LYP/6-311++G(d,p) empiricaldispersion=gd3bj scf=xqc pop=npa geom=c
 heck
 ----------------------------------------------------------------------

 -----------------------------------
 CID_15896745_JID_2250_Energie_anion
 -----------------------------------
 Structure from the checkpoint file:  "JID_2250.chk"
 Charge = -1 Multiplicity = 2

                         Standard orientation:
 ---------------------------------------------------------------------
 Center     Atomic      Atomic             Coordinates (Angstroms)
 Number     Number       Type             X           Y           Z
 ---------------------------------------------------------------------
      1          6           0       -1.987131   -0.333267   -1.603895
      2          6           0       -1.458583    0.209366   -0.265069
      3          6           0       -0.254909    1.171945   -0.524646
      4          6           0        1.078568    0.660827    0.077531
      5          6           0        0.864480    0.424102    1.588275
      6          6           0        0.044874   -0.861711    1.632619
      7          6           0       -1.018421   -0.979388    0.593531
      8          6           0        0.339853   -1.639435    0.345716
      9          6           0        1.254510   -0.777743   -0.450848
     10          8           0        2.006441   -1.125913   -1.339602
     11          6           0        2.245115    1.569046   -0.278143
     12          6           0       -2.584457    0.952243    0.474463
     13          1           0       -1.197884   -0.864089   -2.147673
     14          1           0       -2.347048    0.484295   -2.239639
     15          1           0       -2.818933   -1.030803   -1.447778
     16          1           0       -0.123416    1.320794   -1.602461
     17          1           0       -0.458019    2.160517   -0.094587
     18          1           0        1.827684    0.272937    2.091349
     19          1           0        0.361438    1.269709    2.073489
     20          1           0       -0.066152   -1.393940    2.572633
     21          1           0       -1.816498   -1.687395    0.810573
     22          1           0        0.426865   -2.718505    0.291798
     23          1           0        2.060607    2.594264    0.062937
     24          1           0        3.172434    1.214340    0.184065
     25          1           0        2.400793    1.583297   -1.361273
     26          1           0       -2.939014    1.806927   -0.113448
     27          1           0       -3.440804    0.291645    0.655981
     28          1           0       -2.236971    1.327400    1.443653
 ---------------------------------------------------------------------

 SCF Done:  E(UB3LYP) =  -504.190580909     A.U. after   33 cycles
 SCF Done:  E(UB3LYP) =  -504.190580909     a.u. after    1 cycles

 The electronic state is 2-A.
 Alpha  occ. eigenvalues --  -19.00881 -10.15136 -10.08842 -10.08705 -10.08474
 Alpha  occ. eigenvalues --  -10.08342 -10.07948 -10.07321 -10.07106 -10.06379
 Alpha  occ. eigenvalues --  -10.05698 -10.05349  -0.94013  -0.80737  -0.70895
 Alpha  occ. eigenvalues --   -0.69962  -0.60401  -0.59049  -0.58443  -0.56456
 Alpha  occ. eigenvalues --   -0.51036  -0.47314  -0.44850  -0.40722  -0.38518
 Alpha  occ. eigenvalues --   -0.37140  -0.35734  -0.34463  -0.33422  -0.32390
 Alpha  occ. eigenvalues --   -0.31258  -0.29901  -0.29821  -0.29219  -0.28656
 Alpha  occ. eigenvalues --   -0.27349  -0.26453  -0.26319  -0.25109  -0.24167
 Alpha  occ. eigenvalues --   -0.21817  -0.21090  -0.18489  -0.18103  -0.14031
 Alpha  occ. eigenvalues --    0.04565
 Alpha virt. eigenvalues --    0.07049   0.07176   0.08119   0.08287   0.09241
 Alpha virt. eigenvalues --    0.09732   0.10141   0.10329   0.11099   0.11890
 Alpha virt. eigenvalues --    0.12432   0.12931   0.13395   0.13980   0.14567

  Beta  occ. eigenvalues --  -19.00866 -10.15122 -10.08841 -10.08706 -10.08452
  Beta  occ. eigenvalues --  -10.08322 -10.07941 -10.07301 -10.07083 -10.06365
  Beta  occ. eigenvalues --  -10.05675 -10.05309  -0.93985  -0.80699  -0.70868
  Beta  occ. eigenvalues --   -0.69940  -0.60357  -0.59006  -0.58390  -0.56395
  Beta  occ. eigenvalues --   -0.50990  -0.47266  -0.44797  -0.40649  -0.38481
  Beta  occ. eigenvalues --   -0.37100  -0.35691  -0.34425  -0.33390  -0.32358
  Beta  occ. eigenvalues --   -0.31215  -0.29866  -0.29788  -0.29177  -0.28618
  Beta  occ. eigenvalues --   -0.27305  -0.26421  -0.26274  -0.25077  -0.24133
  Beta  occ. eigenvalues --   -0.21786  -0.21054  -0.18458  -0.18067  -0.14009
  Beta virt. eigenvalues --    0.06973   0.07663   0.08162   0.08421   0.08886
  Beta virt. eigenvalues --    0.10078   0.10296   0.10684   0.10773   0.11472
  Beta virt. eigenvalues --    0.12359   0.13021   0.13395   0.13701   0.14135

 Mulliken charges and spin densities:
               1          2
     1  C    0.133070  -0.831515
     2  C   -1.680373   2.643107
     3  C    0.164403  -1.228188
     4  C   -0.900309   1.705008
     5  C    1.415623  -2.159779
     6  C   -0.316412   0.262515
     7  C    1.447552  -1.697940
     8  C   -0.016691  -0.008225
     9  C   -0.194823  -0.318864
    10  O   -0.312567   0.015052
    11  C    1.172028  -1.504693
    12  C    0.972964  -1.575565
    13  H    0.168091   0.008855
    14  H   -0.155748   0.288310
    15  H   -0.095312   0.242133
    16  H    0.098246   0.092533
    17  H   -0.241467   0.449876
    18  H   -0.090480   0.250271
    19  H   -0.087107   0.255029
    20  H   -1.046172   1.296785
    21  H   -0.467575   0.730178
    22  H   -0.269963   0.498513
    23  H   -0.064412   0.206075
    24  H    0.050552   0.099415
    25  H    0.115485   0.048185
    26  H   -0.207519   0.346991
    27  H   -0.400465   0.552470
    28  H   -0.190618   0.333470
 Sum of Mulliken charges =  -1.00000   1.00000

 Dipole moment (field-independent basis, Debye):
    X=              3.3609    Y=              1.7728    Z=             -3.2677  Tot=              5.0116
 Quadrupole moment (field-independent basis, Debye-Ang):
   XX=           -127.3745   YY=           -118.7189   ZZ=           -119.4653
   XY=              0.1682   XZ=              6.4630   YZ=              2.7466

 Summary of Natural Population Analysis:

                                       Natural Population
                Natural  -----------------------------------------------
    Atom  No    Charge         Core      Valence    Rydberg      Total
 -----------------------------------------------------------------------
      C    1   -0.28078      0.99962     2.27431    0.00684     3.28078
      C    2   -0.04945      0.99956     2.03637    0.01352     3.04945
      C    3   -0.17688      0.99957     2.16643    0.01089     3.17688
      C    4   -0.08052      0.99952     2.06803    0.01298     3.08052
      C    5   -0.18393      0.99960     2.17432    0.01001     3.18393
      C    6   -0.09321      0.99956     2.08027    0.01337     3.09321
      C    7   -0.09405      0.99953     2.07907    0.01545     3.09405
      C    8   -0.15697      0.99952     2.14502    0.01243     3.15697
      C    9    0.30276      0.99956     1.67317    0.02450     2.69724
      O   10   -0.29294      0.99987     3.28663    0.00643     4.29294
      C   11   -0.28374      0.99963     2.27523    0.00888     3.28374
      C   12   -0.27932      0.99962     2.27242    0.00728     3.27932
      H   13    0.10136      0.00000     0.39774    0.00090     0.39864
      H   14    0.09822      0.00000     0.40098    0.00081     0.40178
      H   15    0.10172      0.00000     0.39727    0.00101     0.39828
      H   16    0.10190      0.00000     0.39673    0.00137     0.39810
      H   17    0.10437      0.00000     0.39411    0.00151     0.39563
      H   18    0.10150      0.00000     0.39698    0.00152     0.39850
      H   19    0.10267      0.00000     0.39579    0.00154     0.39733
      H   20    0.11276      0.00000     0.38428    0.00296     0.38724
      H   21    0.11836      0.00000     0.37809    0.00355     0.38164
      H   22    0.11497      0.00000     0.38374    0.00129     0.38503
      H   23    0.10027      0.00000     0.39888    0.00084     0.39973
      H   24    0.10176      0.00000     0.39743    0.00081     0.39824
      H   25    0.10567      0.00000     0.39343    0.00090     0.39433
      H   26    0.09891      0.00000     0.39984    0.00125     0.40109
      H   27    0.10242      0.00000     0.39595    0.00163     0.39758
      H   28    0.10215      0.00000     0.39629    0.00156     0.39785
 =======================================================================
   * Total *    0.00000     11.99516    32.83881    0.16604    45.00000

 Normal termination of Gaussian 16 at Wed Dec  9 17:30:05 2020.
