 Gaussian 16, Revision A.03,

 -----------------------------------------------------------
 # opt freq B3LYP/6-31G(d) empiricaldispersion=gd3bj scf=xqc
 -----------------------------------------------------------

 ------------------------------
 CID_115824740_JID_358_neutraal
 ------------------------------
 Symbolic Z-matrix:
 Charge =  0 Multiplicity = 1

 SCF Done:  E(RB3LYP) =  -407.956347783     A.U. after   13 cycles
 SCF Done:  E(RB3LYP) =  -407.959108965     A.U. after   11 cycles
 SCF Done:  E(RB3LYP) =  -407.959400655     A.U. after   11 cycles
 SCF Done:  E(RB3LYP) =  -407.959697146     A.U. after   10 cycles
 SCF Done:  E(RB3LYP) =  -407.959893000     A.U. after   11 cycles
 SCF Done:  E(RB3LYP) =  -407.960098905     A.U. after   12 cycles
 SCF Done:  E(RB3LYP) =  -407.960290731     A.U. after   11 cycles
 SCF Done:  E(RB3LYP) =  -407.960575320     A.U. after   11 cycles
 SCF Done:  E(RB3LYP) =  -407.960630988     A.U. after   10 cycles
 SCF Done:  E(RB3LYP) =  -407.960611734     A.U. after   10 cycles
 SCF Done:  E(RB3LYP) =  -407.960635764     A.U. after   10 cycles
 SCF Done:  E(RB3LYP) =  -407.960641185     A.U. after    9 cycles
 SCF Done:  E(RB3LYP) =  -407.960641011     A.U. after    9 cycles
 SCF Done:  E(RB3LYP) =  -407.960642133     A.U. after    9 cycles
 SCF Done:  E(RB3LYP) =  -407.960642338     A.U. after    7 cycles
 Optimization completed.
    -- Stationary point found.

 1\1\GINC-NODE312\FOpt\RB3LYP\6-31G(d)\C9H17N1\VSC10255\08-Dec-2020\0\\
 # opt freq B3LYP/6-31G(d) empiricaldispersion=gd3bj scf=xqc\\CID_11582
 4740_JID_358_neutraal\\0,1\C,1.4229601859,0.0531234674,0.0200134081\C,
 1.2039213334,-0.4908650454,1.4349764785\C,0.9330063775,0.6106320706,2.
 4811562906\C,-0.4493354466,1.2657874014,2.2897919271\C,1.1014012787,0.
 1565887129,3.9197379015\C,0.6446826751,-0.9551865173,4.5018190059\C,0.
 816992837,-1.2905008986,5.9767337055\C,0.4920770811,-2.7882868659,6.03
 13291721\N,-0.5698476793,-2.8997016287,5.0264283578\C,-0.1173727232,-2

 Normal termination of Gaussian 16 at Tue Dec  8 10:29:14 2020.

 --------------------------------------------------------------------
 #N Geom=AllCheck Guess=TCheck SCRF=Check GenChk RB3LYP/6-31G(d) Freq
 --------------------------------------------------------------------

 Structure from the checkpoint file:  "JID_358.chk"
 ------------------------------
 CID_115824740_JID_358_neutraal
 ------------------------------
 Charge =  0 Multiplicity = 1

 SCF Done:  E(RB3LYP) =  -407.960642338     A.U. after    1 cycles

  Exact polarizability: 127.107  -3.121  92.792  -0.918  -3.528  81.345
 Approx polarizability: 156.473  -9.547 132.142   2.754  -8.608 121.320

                      1                      2                      3
                      A                      A                      A
 Frequencies --     35.2876                75.1127                98.0850
 Red. masses --      2.5500                 2.2049                 2.1524
 Frc consts  --      0.0019                 0.0073                 0.0122
 IR Inten    --      0.2839                 0.3699                 0.5916

                      4                      5                      6
                      A                      A                      A
 Frequencies --    127.4980               145.4247               229.6915
 Red. masses --      3.0658                 2.6241                 1.0725
 Frc consts  --      0.0294                 0.0327                 0.0333
 IR Inten    --      0.2610                 0.1617                 0.0126

                      7                      8                      9
                      A                      A                      A
 Frequencies --    252.6971               259.1587               280.3312
 Red. masses --      2.1491                 1.3878                 1.8883
 Frc consts  --      0.0809                 0.0549                 0.0874
 IR Inten    --      0.0699                 0.2950                 3.0402

                     10                     11                     12
                      A                      A                      A
 Frequencies --    325.6439               369.6193               410.6143
 Red. masses --      3.2306                 2.4080                 2.1247
 Frc consts  --      0.2018                 0.1938                 0.2111
 IR Inten    --      0.1788                 1.9309                 1.9381

                     13                     14                     15
                      A                      A                      A
 Frequencies --    481.1491               558.5437               592.8158
 Red. masses --      2.1118                 3.3152                 2.1727
 Frc consts  --      0.2881                 0.6094                 0.4499
 IR Inten    --      2.3645                 1.0567                43.8343

                     16                     17                     18
                      A                      A                      A
 Frequencies --    674.7768               751.9757               784.8549
 Red. masses --      3.2056                 2.3563                 1.3724
 Frc consts  --      0.8600                 0.7850                 0.4981
 IR Inten    --      3.8568                14.3890                 2.4441

                     19                     20                     21
                      A                      A                      A
 Frequencies --    831.7332               858.9260               870.2594
 Red. masses --      1.5325                 1.7198                 2.3169
 Frc consts  --      0.6246                 0.7476                 1.0339
 IR Inten    --     16.6204                 2.4869                39.6582

                     22                     23                     24
                      A                      A                      A
 Frequencies --    907.0269               951.5116               958.9198
 Red. masses --      1.8561                 2.0352                 1.9982
 Frc consts  --      0.8997                 1.0857                 1.0826
 IR Inten    --     20.3204                 2.8649                 2.6965

                     25                     26                     27
                      A                      A                      A
 Frequencies --    984.2039               995.7653              1017.7289
 Red. masses --      1.1983                 1.7508                 1.8386
 Frc consts  --      0.6839                 1.0228                 1.1220
 IR Inten    --      1.8365                 2.0144                16.2113

                     28                     29                     30
                      A                      A                      A
 Frequencies --   1036.7985              1049.7195              1083.5000
 Red. masses --      1.5366                 2.7980                 1.7091
 Frc consts  --      0.9732                 1.8165                 1.1822
 IR Inten    --      8.6232                 0.3472                 2.8532

                     31                     32                     33
                      A                      A                      A
 Frequencies --   1109.0412              1133.5471              1152.5935
 Red. masses --      1.8194                 2.7761                 2.0320
 Frc consts  --      1.3185                 2.1017                 1.5904
 IR Inten    --      0.3280                20.3355                 1.8701

                     34                     35                     36
                      A                      A                      A
 Frequencies --   1173.5949              1205.2458              1218.8839
 Red. masses --      2.2769                 1.1282                 1.7448
 Frc consts  --      1.8477                 0.9656                 1.5273
 IR Inten    --      0.5199                 1.5782                 2.5139

                     37                     38                     39
                      A                      A                      A
 Frequencies --   1224.9806              1251.5255              1300.7935
 Red. masses --      1.6407                 1.2550                 1.3407
 Frc consts  --      1.4506                 1.1581                 1.3366
 IR Inten    --      5.7317                 3.9542                20.5419

                     40                     41                     42
                      A                      A                      A
 Frequencies --   1314.8025              1327.4132              1347.8835
 Red. masses --      1.2247                 1.3128                 1.3103
 Frc consts  --      1.2474                 1.3629                 1.4025
 IR Inten    --      1.4701                15.3419                 0.9689

                     43                     44                     45
                      A                      A                      A
 Frequencies --   1370.3023              1386.8974              1407.6752
 Red. masses --      1.2783                 1.3913                 1.4581
 Frc consts  --      1.4143                 1.5768                 1.7023
 IR Inten    --      2.2828                 1.4849                 4.3651

                     46                     47                     48
                      A                      A                      A
 Frequencies --   1417.1763              1434.0895              1442.4136
 Red. masses --      1.4203                 1.2581                 1.2195
 Frc consts  --      1.6807                 1.5245                 1.4949
 IR Inten    --      0.9030                 3.3568                 0.9275

                     49                     50                     51
                      A                      A                      A
 Frequencies --   1461.6742              1502.6659              1516.4585
 Red. masses --      1.4113                 1.0956                 1.0664
 Frc consts  --      1.7765                 1.4576                 1.4448
 IR Inten    --      3.6262                 2.7964                 0.0907

                     52                     53                     54
                      A                      A                      A
 Frequencies --   1524.8409              1527.9303              1531.5792
 Red. masses --      1.0425                 1.0546                 1.0805
 Frc consts  --      1.4282                 1.4506                 1.4933
 IR Inten    --      6.3733                 2.9222                 1.5601

                     55                     56                     57
                      A                      A                      A
 Frequencies --   1537.7473              1538.8284              1552.1281
 Red. masses --      1.0589                 1.0574                 1.1024
 Frc consts  --      1.4753                 1.4753                 1.5647
 IR Inten    --      5.6008                 2.5239                 1.9015

                     58                     59                     60
                      A                      A                      A
 Frequencies --   1764.0328              2939.3155              2948.9492
 Red. masses --      8.5884                 1.0740                 1.0736
 Frc consts  --     15.7462                 5.4671                 5.5007
 IR Inten    --      0.4610                81.5051                82.1104

                     61                     62                     63
                      A                      A                      A
 Frequencies --   3012.4214              3044.5801              3046.5079
 Red. masses --      1.0829                 1.0386                 1.0538
 Frc consts  --      5.7901                 5.6722                 5.7628
 IR Inten    --     25.1152                20.9588                51.1114

                     64                     65                     66
                      A                      A                      A
 Frequencies --   3047.9136              3049.7209              3064.9275
 Red. masses --      1.0659                 1.0411                 1.0872
 Frc consts  --      5.8343                 5.7053                 6.0172
 IR Inten    --     20.5448                 7.9006                39.3798

                     67                     68                     69
                      A                      A                      A
 Frequencies --   3083.1521              3093.4590              3108.3951
 Red. masses --      1.1001                 1.0887                 1.0990
 Frc consts  --      6.1613                 6.1384                 6.2565
 IR Inten    --      9.5931                56.5736                21.9506

                     70                     71                     72
                      A                      A                      A
 Frequencies --   3110.7808              3113.9168              3118.1762
 Red. masses --      1.1017                 1.1026                 1.1019
 Frc consts  --      6.2812                 6.2993                 6.3122
 IR Inten    --     34.5096                60.7879                39.4110

                     73                     74                     75
                      A                      A                      A
 Frequencies --   3122.1135              3132.7627              3518.3147
 Red. masses --      1.1016                 1.0884                 1.0751
 Frc consts  --      6.3268                 6.2938                 7.8407
 IR Inten    --     41.0804                35.7833                 1.7148

 - Thermochemistry -
 -------------------
 Temperature   298.150 Kelvin.  Pressure   1.00000 Atm.
 Atom     1 has atomic number  6 and mass  12.00000

 Molecular mass:   139.13610 amu.
 Principal axes and moments of inertia in atomic units:
                           1         2         3
     Eigenvalues --   689.627062707.203742920.15538
           X            0.99995   0.00606  -0.00760
           Y           -0.00586   0.99965   0.02565
           Z            0.00775  -0.02560   0.99964
 This molecule is an asymmetric top.
 Rotational symmetry number  1.
 Warning -- assumption of classical behavior for rotation
           may cause significant error
 Rotational temperatures (Kelvin)      0.12560     0.03199     0.02966
 Rotational constants (GHZ):           2.61698     0.66664     0.61803
 Zero-point vibrational energy     653349.6 (Joules/Mol)
                                  156.15430 (Kcal/Mol)
 Warning -- explicit consideration of  15 degrees of freedom as
           vibrations may cause significant error
 Vibrational temperatures:     50.77   108.07   141.12   183.44   209.23
          (Kelvin)            330.47   363.57   372.87   403.33   468.53
                              531.80   590.78   692.27   803.62   852.93
                              970.85  1081.93  1129.23  1196.68  1235.80
                             1252.11  1305.01  1369.01  1379.67  1416.05
                             1432.68  1464.28  1491.72  1510.31  1558.91
                             1595.66  1630.92  1658.33  1688.54  1734.08
                             1753.70  1762.47  1800.67  1871.55  1891.71
                             1909.85  1939.30  1971.56  1995.44  2025.33
                             2039.00  2063.33  2075.31  2103.02  2162.00
                             2181.85  2193.91  2198.35  2203.60  2212.48
                             2214.03  2233.17  2538.05  4229.02  4242.88
                             4334.20  4380.47  4383.25  4385.27  4387.87
                             4409.75  4435.97  4450.80  4472.29  4475.72
                             4480.23  4486.36  4492.02  4507.35  5062.07

 Zero-point correction=                           0.248848 (Hartree/Particle)
 Thermal correction to Energy=                    0.260040
 Thermal correction to Enthalpy=                  0.260984
 Thermal correction to Gibbs Free Energy=         0.211509
 Sum of electronic and zero-point Energies=           -407.711795
 Sum of electronic and thermal Energies=              -407.700603
 Sum of electronic and thermal Enthalpies=            -407.699659
 Sum of electronic and thermal Free Energies=         -407.749133

                     E (Thermal)             CV                S
                      KCal/Mol        Cal/Mol-Kelvin    Cal/Mol-Kelvin
 Total                  163.177             41.768            104.128
 Electronic               0.000              0.000              0.000
 Translational            0.889              2.981             40.703
 Rotational               0.889              2.981             30.079
 Vibrational            161.400             35.807             33.347
 Vibration     1          0.594              1.982              5.507
 Vibration     2          0.599              1.966              4.015
 Vibration     3          0.604              1.951              3.492
 Vibration     4          0.611              1.926              2.983
 Vibration     5          0.617              1.908              2.731
 Vibration     6          0.652              1.796              1.881
 Vibration     7          0.664              1.758              1.712
 Vibration     8          0.668              1.747              1.667
 Vibration     9          0.680              1.710              1.532
 Vibration    10          0.710              1.624              1.282
 Vibration    11          0.742              1.535              1.081
 Vibration    12          0.775              1.447              0.924
 Vibration    13          0.837              1.292              0.707
 Vibration    14          0.914              1.121              0.527
 Vibration    15          0.950              1.047              0.462

 Optimization completed.
    -- Stationary point found.

 1\1\GINC-NODE312\Freq\RB3LYP\6-31G(d)\C9H17N1\VSC10255\08-Dec-2020\0\\
 #N Geom=AllCheck Guess=TCheck SCRF=Check GenChk RB3LYP/6-31G(d) Freq\\
 CID_115824740_JID_358_neutraal\\0,1\C,1.4229601859,0.0531234674,0.0200
 134081\C,1.2039213334,-0.4908650454,1.4349764785\C,0.9330063775,0.6106
 320706,2.4811562906\C,-0.4493354466,1.2657874014,2.2897919271\C,1.1014
 012787,0.1565887129,3.9197379015\C,0.6446826751,-0.9551865173,4.501819
 0059\C,0.816992837,-1.2905008986,5.9767337055\C,0.4920770811,-2.788286
 8659,6.0313291721\N,-0.5698476793,-2.8997016287,5.0264283578\C,-0.1173

 Normal termination of Gaussian 16 at Tue Dec  8 10:33:56 2020.

 ----------------------------------------------------------------------
 # B3LYP/6-311++G(d,p) empiricaldispersion=gd3bj scf=xqc pop=npa geom=c
 heck
 ----------------------------------------------------------------------

 --------------------------------------
 CID_115824740_JID_358_Energie_neutraal
 --------------------------------------
 Structure from the checkpoint file:  "JID_358.chk"
 Charge =  0 Multiplicity = 1

 SCF Done:  E(RB3LYP) =  -408.077208200     A.U. after   14 cycles
 Normal termination of Gaussian 16 at Tue Dec  8 10:37:59 2020.

 ----------------------------------------------------------------------
 # B3LYP/6-311++G(d,p) empiricaldispersion=gd3bj scf=xqc pop=npa geom=c
 heck
 ----------------------------------------------------------------------

 ------------------------------------
 CID_115824740_JID_358_Energie_kation
 ------------------------------------
 Structure from the checkpoint file:  "JID_358.chk"
 Charge =  1 Multiplicity = 2

 SCF Done:  E(UB3LYP) =  -407.779733946     A.U. after   20 cycles
 Normal termination of Gaussian 16 at Tue Dec  8 10:44:38 2020.
 Gaussian 16:  ES64L-G16RevA.03 25-Dec-2016

 -----------------------------------
 CID_115824740_JID_358_Energie_anion
 -----------------------------------
 Structure from the checkpoint file:  "JID_358.chk"
 Charge = -1 Multiplicity = 2

                         Standard orientation:
 ---------------------------------------------------------------------
 Center     Atomic      Atomic             Coordinates (Angstroms)
 Number     Number       Type             X           Y           Z
 ---------------------------------------------------------------------
      1          6           0       -3.486637   -1.059489   -0.474382
      2          6           0       -1.982034   -0.775681   -0.433842
      3          6           0       -1.643766    0.708704   -0.182131
      4          6           0       -1.980424    1.144847    1.257716
      5          6           0       -0.213370    1.086542   -0.521597
      6          6           0        0.915080    0.444832   -0.208129
      7          6           0        2.313466    0.942690   -0.545998
      8          6           0        3.183254   -0.303795   -0.341893
      9          7           0        2.523110   -0.944115    0.800089
     10          6           0        1.081172   -0.880776    0.521394
     11          1           0       -3.971418   -0.828266    0.480355
     12          1           0       -3.681445   -2.115156   -0.694356
     13          1           0       -3.979111   -0.460686   -1.250406
     14          1           0       -1.521078   -1.399578    0.341058
     15          1           0       -1.531024   -1.080940   -1.386466
     16          1           0       -2.287937    1.291752   -0.856391
     17          1           0       -1.370486    0.589356    1.979411
     18          1           0       -1.773738    2.210688    1.401189
     19          1           0       -3.035445    0.971882    1.497561
     20          1           0       -0.104822    2.035218   -1.049204
     21          1           0        2.386073    1.359531   -1.555126
     22          1           0        2.618218    1.721303    0.165071
     23          1           0        4.226686   -0.071643   -0.105119
     24          1           0        3.169456   -0.921765   -1.259932
     25          1           0        2.836569   -1.901938    0.934459
     26          1           0        0.507537   -0.931544    1.454291
     27          1           0        0.729750   -1.706654   -0.123843
 ---------------------------------------------------------------------

 SCF Done:  E(UB3LYP) =  -408.060195836     A.U. after   32 cycles

 The electronic state is 2-A.
 Alpha  occ. eigenvalues --  -14.18855 -10.08475 -10.08437 -10.07140 -10.06840
 Alpha  occ. eigenvalues --  -10.06398 -10.05729 -10.05551 -10.05385 -10.05332
 Alpha  occ. eigenvalues --   -0.81272  -0.71346  -0.66782  -0.62997  -0.61625
 Alpha  occ. eigenvalues --   -0.56462  -0.52829  -0.48676  -0.46982  -0.42539
 Alpha  occ. eigenvalues --   -0.38311  -0.37544  -0.35203  -0.34442  -0.32470
 Alpha  occ. eigenvalues --   -0.31653  -0.29338  -0.28407  -0.28194  -0.27596
 Alpha  occ. eigenvalues --   -0.26453  -0.25848  -0.25467  -0.24892  -0.22445
 Alpha  occ. eigenvalues --   -0.21602  -0.20325  -0.13501  -0.11828   0.04732
 Alpha virt. eigenvalues --    0.06697   0.07466   0.07956   0.08718   0.09273
 Alpha virt. eigenvalues --    0.09660   0.10384   0.11162   0.11369   0.11636
 Alpha virt. eigenvalues --    0.12310   0.12559   0.12886   0.14110   0.14683

  Beta  occ. eigenvalues --  -14.18829 -10.08452 -10.08409 -10.07131 -10.06842
  Beta  occ. eigenvalues --  -10.06385 -10.05714 -10.05528 -10.05379 -10.05298
  Beta  occ. eigenvalues --   -0.81238  -0.71320  -0.66751  -0.62954  -0.61579
  Beta  occ. eigenvalues --   -0.56416  -0.52762  -0.48595  -0.46929  -0.42479
  Beta  occ. eigenvalues --   -0.38267  -0.37513  -0.35170  -0.34408  -0.32429
  Beta  occ. eigenvalues --   -0.31613  -0.29306  -0.28369  -0.28160  -0.27555
  Beta  occ. eigenvalues --   -0.26415  -0.25805  -0.25420  -0.24862  -0.22416
  Beta  occ. eigenvalues --   -0.21564  -0.20296  -0.13482  -0.11787
  Beta virt. eigenvalues --    0.06892   0.07657   0.08099   0.08447   0.09333
  Beta virt. eigenvalues --    0.09825   0.10150   0.10894   0.11576   0.11826
  Beta virt. eigenvalues --    0.11900   0.12737   0.12998   0.13179   0.14406

 Mulliken charges and spin densities:
               1          2
     1  C    1.760691  -2.439266
     2  C   -1.423644   1.171417
     3  C    0.454874  -0.081564
     4  C    0.543398  -1.212785
     5  C   -1.924026   1.505287
     6  C    0.924429  -0.469526
     7  C    0.243282  -0.663048
     8  C    0.643451  -1.038402
     9  N   -0.355693   0.287135
    10  C    0.597708  -1.171362
    11  H   -0.197092   0.333924
    12  H   -0.344837   0.484863
    13  H   -0.235416   0.367689
    14  H    0.188570  -0.062655
    15  H   -0.123174   0.279176
    16  H   -0.052580   0.208520
    17  H   -0.070817   0.213700
    18  H   -0.044217   0.174188
    19  H   -0.000663   0.121875
    20  H   -0.380105   0.570655
    21  H   -0.073483   0.212895
    22  H    0.120689   0.048212
    23  H   -0.238177   0.409825
    24  H   -0.256683   0.380171
    25  H   -0.266129   0.502723
    26  H   -0.080935   0.271186
    27  H   -0.409423   0.595166
 Sum of Mulliken charges =  -1.00000   1.00000

 Dipole moment (field-independent basis, Debye):
    X=              0.0457    Y=              3.1812    Z=              0.6451  Tot=              3.2463
 Quadrupole moment (field-independent basis, Debye-Ang):
   XX=           -134.4473   YY=           -104.3415   ZZ=            -98.2513
   XY=              2.1390   XZ=             -2.5924   YZ=             -0.7742

 Summary of Natural Population Analysis:

                                       Natural Population
                Natural  -----------------------------------------------
    Atom  No    Charge         Core      Valence    Rydberg      Total
 -----------------------------------------------------------------------
      C    1   -0.28215      0.99967     2.27818    0.00430     3.28215
      C    2   -0.18952      0.99962     2.18029    0.00961     3.18952
      C    3   -0.12371      0.99959     2.11336    0.01075     3.12371
      C    4   -0.27903      0.99964     2.27466    0.00473     3.27903
      C    5   -0.09335      0.99944     2.08278    0.01113     3.09335
      C    6   -0.00380      0.99950     1.99357    0.01073     3.00380
      C    7   -0.20307      0.99960     2.19581    0.00766     3.20307
      C    8   -0.08616      0.99964     2.07500    0.01152     3.08616
      N    9   -0.34274      0.99976     2.83055    0.01243     3.84274
      C   10   -0.10677      0.99958     2.09544    0.01174     3.10677
      H   11    0.09485      0.00000     0.40375    0.00140     0.40515
      H   12    0.09950      0.00000     0.39926    0.00123     0.40050
      H   13    0.09431      0.00000     0.40419    0.00150     0.40569
      H   14    0.09540      0.00000     0.40285    0.00176     0.40460
      H   15    0.09933      0.00000     0.39917    0.00151     0.40067
      H   16    0.09370      0.00000     0.40421    0.00208     0.40630
      H   17    0.09712      0.00000     0.40168    0.00120     0.40288
      H   18    0.09806      0.00000     0.40089    0.00106     0.40194
      H   19    0.09690      0.00000     0.40195    0.00115     0.40310
      H   20    0.09356      0.00000     0.40533    0.00111     0.40644
      H   21    0.10374      0.00000     0.39488    0.00138     0.39626
      H   22    0.10200      0.00000     0.39655    0.00146     0.39800
      H   23    0.09320      0.00000     0.40544    0.00137     0.40680
      H   24    0.07898      0.00000     0.41863    0.00239     0.42102
      H   25    0.17886      0.00000     0.31753    0.00361     0.32114
      H   26    0.09872      0.00000     0.39949    0.00179     0.40128
      H   27    0.09209      0.00000     0.40565    0.00226     0.40791
 =======================================================================
   * Total *   -0.00000      9.99604    28.88111    0.12285    39.00000

 Normal termination of Gaussian 16 at Tue Dec  8 10:51:39 2020.
