 Gaussian 16, Revision A.03,

 -----------------------------------------------------------
 # opt freq B3LYP/6-31G(d) empiricaldispersion=gd3bj scf=xqc
 -----------------------------------------------------------

 -------------------------------
 CID_146989048_JID_7505_neutraal
 -------------------------------
 Symbolic Z-matrix:
 Charge =  0 Multiplicity = 1

 SCF Done:  E(RB3LYP) =  -817.955384932     A.U. after   15 cycles
 SCF Done:  E(RB3LYP) =  -817.967014020     A.U. after   13 cycles
 SCF Done:  E(RB3LYP) =  -817.970251438     A.U. after   13 cycles
 SCF Done:  E(RB3LYP) =  -817.973508563     A.U. after   13 cycles
 SCF Done:  E(RB3LYP) =  -817.975156880     A.U. after   13 cycles
 SCF Done:  E(RB3LYP) =  -817.975044666     A.U. after   13 cycles
 SCF Done:  E(RB3LYP) =  -817.975694206     A.U. after   13 cycles
 SCF Done:  E(RB3LYP) =  -817.978054367     A.U. after   15 cycles
 SCF Done:  E(RB3LYP) =  -817.979032214     A.U. after   12 cycles
 SCF Done:  E(RB3LYP) =  -817.979314774     A.U. after   13 cycles
 SCF Done:  E(RB3LYP) =  -817.980260036     A.U. after   11 cycles
 SCF Done:  E(RB3LYP) =  -817.980267593     A.U. after   11 cycles
 SCF Done:  E(RB3LYP) =  -817.980267983     A.U. after   11 cycles
 SCF Done:  E(RB3LYP) =  -817.980268628     A.U. after   10 cycles
 SCF Done:  E(RB3LYP) =  -817.980268752     A.U. after    8 cycles
 SCF Done:  E(RB3LYP) =  -817.980268771     A.U. after    7 cycles
 Optimization completed.
    -- Stationary point found.
 Normal termination of Gaussian 16 at Fri Dec 11 12:49:46 2020.

 --------------------------------------------------------------------
 #N Geom=AllCheck Guess=TCheck SCRF=Check GenChk RB3LYP/6-31G(d) Freq
 --------------------------------------------------------------------

 Structure from the checkpoint file:  "JID_7505.chk"
 -------------------------------
 CID_146989048_JID_7505_neutraal
 -------------------------------
 Charge =  0 Multiplicity = 1

 SCF Done:  E(RB3LYP) =  -817.980268771     A.U. after    1 cycles

  Exact polarizability: 169.683  17.593 133.247  -3.536   8.339 125.957
 Approx polarizability: 218.719  24.570 189.835  -7.491  20.758 205.198

                      1                      2                      3
                      A                      A                      A
 Frequencies --     21.4600                38.5453                48.4640
 Red. masses --      4.0441                 4.8791                 5.9183
 Frc consts  --      0.0011                 0.0043                 0.0082
 IR Inten    --      0.0898                 2.2832                 1.3555

                      4                      5                      6
                      A                      A                      A
 Frequencies --     52.2691                65.5191                82.9466
 Red. masses --      8.3040                 4.8557                 3.9570
 Frc consts  --      0.0134                 0.0123                 0.0160
 IR Inten    --      0.5866                 2.2308                 2.7609

                      7                      8                      9
                      A                      A                      A
 Frequencies --     99.1143               104.6088               119.9967
 Red. masses --      3.0439                 4.4741                 5.4383
 Frc consts  --      0.0176                 0.0288                 0.0461
 IR Inten    --     22.5364                 0.7223                11.1679

                     10                     11                     12
                      A                      A                      A
 Frequencies --    145.9182               148.5882               180.4419
 Red. masses --      3.9189                 3.1518                 1.3718
 Frc consts  --      0.0492                 0.0410                 0.0263
 IR Inten    --      5.5053                 1.0622                 1.2654

                     13                     14                     15
                      A                      A                      A
 Frequencies --    193.3671               212.5712               245.9433
 Red. masses --      1.9287                 2.7426                 3.3413
 Frc consts  --      0.0425                 0.0730                 0.1191
 IR Inten    --      2.7489                 2.9374                 3.9908

                     16                     17                     18
                      A                      A                      A
 Frequencies --    279.7487               284.3597               323.8183
 Red. masses --      2.7769                 2.5372                 2.5709
 Frc consts  --      0.1280                 0.1209                 0.1588
 IR Inten    --      5.2952                 1.3898                 0.7180

                     19                     20                     21
                      A                      A                      A
 Frequencies --    334.1406               371.8904               387.9739
 Red. masses --      2.0285                 2.3409                 3.1375
 Frc consts  --      0.1334                 0.1907                 0.2783
 IR Inten    --      5.4459                 0.5800                12.0094

                     22                     23                     24
                      A                      A                      A
 Frequencies --    446.1610               507.9788               529.7246
 Red. masses --      2.1407                 2.3497                 4.8388
 Frc consts  --      0.2511                 0.3572                 0.8000
 IR Inten    --      1.8480                11.9452                13.6302

                     25                     26                     27
                      A                      A                      A
 Frequencies --    532.0516               544.9742               563.6021
 Red. masses --      1.4579                 2.0796                 2.8036
 Frc consts  --      0.2431                 0.3639                 0.5247
 IR Inten    --      9.4799                22.5987                17.9728

                     28                     29                     30
                      A                      A                      A
 Frequencies --    596.9215               652.8783               659.1708
 Red. masses --      2.5099                 1.6174                 1.8146
 Frc consts  --      0.5269                 0.4062                 0.4645
 IR Inten    --     12.2263                29.1434               124.8706

                     31                     32                     33
                      A                      A                      A
 Frequencies --    677.5077               727.0875               750.4172
 Red. masses --      2.5459                 1.4736                 1.9978
 Frc consts  --      0.6885                 0.4590                 0.6628
 IR Inten    --     46.3875                16.7812                40.9182

                     34                     35                     36
                      A                      A                      A
 Frequencies --    765.3251               802.9468               816.1870
 Red. masses --      1.8145                 3.8856                 2.5510
 Frc consts  --      0.6262                 1.4760                 1.0013
 IR Inten    --     60.8128                18.0302                19.4413

                     37                     38                     39
                      A                      A                      A
 Frequencies --    819.2256               849.6670               865.8164
 Red. masses --      3.4964                 1.9343                 2.6131
 Frc consts  --      1.3825                 0.8228                 1.1541
 IR Inten    --     61.9564                27.9426                 6.8526

                     40                     41                     42
                      A                      A                      A
 Frequencies --    876.6711               913.7282               924.3644
 Red. masses --      1.8417                 2.2304                 1.7625
 Frc consts  --      0.8339                 1.0972                 0.8873
 IR Inten    --     43.9741                 2.9818                 5.7357

                     43                     44                     45
                      A                      A                      A
 Frequencies --    973.3657              1024.8848              1050.4405
 Red. masses --      2.0747                 1.8118                 1.6041
 Frc consts  --      1.1581                 1.1212                 1.0429
 IR Inten    --     25.3592                 9.3163                 8.9634

                     46                     47                     48
                      A                      A                      A
 Frequencies --   1059.1638              1096.4706              1112.3153
 Red. masses --      2.2115                 1.9840                 2.4458
 Frc consts  --      1.4617                 1.4053                 1.7829
 IR Inten    --     28.5636                29.3061                 1.9218

                     49                     50                     51
                      A                      A                      A
 Frequencies --   1116.2347              1132.3178              1149.9950
 Red. masses --      1.3564                 2.1193                 2.2316
 Frc consts  --      0.9957                 1.6010                 1.7388
 IR Inten    --      9.6757                 7.7459                49.9330

                     52                     53                     54
                      A                      A                      A
 Frequencies --   1162.9488              1170.4369              1184.8885
 Red. masses --      1.5100                 2.6132                 2.8575
 Frc consts  --      1.2032                 2.1092                 2.3637
 IR Inten    --     46.8431                13.3465                33.7602

                     55                     56                     57
                      A                      A                      A
 Frequencies --   1198.5358              1232.2236              1238.9597
 Red. masses --      2.1830                 1.4018                 1.3917
 Frc consts  --      1.8476                 1.2540                 1.2587
 IR Inten    --     19.6294                 5.7459                 1.0640

                     58                     59                     60
                      A                      A                      A
 Frequencies --   1242.3849              1275.7673              1290.1392
 Red. masses --      1.3220                 1.3780                 1.2459
 Frc consts  --      1.2022                 1.3215                 1.2218
 IR Inten    --      7.0896                42.1899                16.7175

                     61                     62                     63
                      A                      A                      A
 Frequencies --   1328.5069              1354.1366              1361.5692
 Red. masses --      1.1999                 1.1861                 1.7683
 Frc consts  --      1.2477                 1.2815                 1.9315
 IR Inten    --     22.5481                 3.5329               121.1938

                     64                     65                     66
                      A                      A                      A
 Frequencies --   1384.5910              1399.9075              1402.8277
 Red. masses --      1.5252                 1.4874                 1.3418
 Frc consts  --      1.7227                 1.7174                 1.5558
 IR Inten    --    141.9616                 4.0310                20.4173

                     67                     68                     69
                      A                      A                      A
 Frequencies --   1413.1721              1419.0101              1435.7851
 Red. masses --      1.5818                 1.4955                 1.4200
 Frc consts  --      1.8612                 1.7743                 1.7247
 IR Inten    --     13.5876                92.7288                58.7263

                     70                     71                     72
                      A                      A                      A
 Frequencies --   1444.8236              1472.1454              1484.5466
 Red. masses --      1.3223                 1.5160                 1.1729
 Frc consts  --      1.6263                 1.9357                 1.5229
 IR Inten    --      5.5493                67.6254                43.1474

                     73                     74                     75
                      A                      A                      A
 Frequencies --   1487.1958              1493.0517              1499.6348
 Red. masses --      1.3157                 1.3407                 1.2606
 Frc consts  --      1.7145                 1.7609                 1.6703
 IR Inten    --      6.6606                36.3160                48.2910

                     76                     77                     78
                      A                      A                      A
 Frequencies --   1512.4894              1513.7717              1521.2482
 Red. masses --      1.1685                 1.3148                 1.1140
 Frc consts  --      1.5750                 1.7751                 1.5190
 IR Inten    --      7.8951                 8.8115                10.5259

                     79                     80                     81
                      A                      A                      A
 Frequencies --   1524.2532              1526.5323              1529.9202
 Red. masses --      1.1103                 1.1397                 1.1338
 Frc consts  --      1.5198                 1.5647                 1.5636
 IR Inten    --     25.8979                 7.9099                 6.1130

                     82                     83                     84
                      A                      A                      A
 Frequencies --   1536.8238              1552.1715              1554.6610
 Red. masses --      1.1610                 1.0782                 1.0665
 Frc consts  --      1.6156                 1.5305                 1.5188
 IR Inten    --     46.7733                32.1483                 2.2119

                     85                     86                     87
                      A                      A                      A
 Frequencies --   1713.2877              1796.1920              1797.1450
 Red. masses --      6.4166                 7.3027                 6.3052
 Frc consts  --     11.0973                13.8816                11.9983
 IR Inten    --     43.8002               227.5993               524.2057

                     88                     89                     90
                      A                      A                      A
 Frequencies --   2977.4908              3030.8145              3040.5320
 Red. masses --      1.0712                 1.0627                 1.0622
 Frc consts  --      5.5952                 5.7515                 5.7857
 IR Inten    --     46.5844                30.4003                26.1795

                     91                     92                     93
                      A                      A                      A
 Frequencies --   3041.3443              3048.6813              3050.9768
 Red. masses --      1.0413                 1.0726                 1.0734
 Frc consts  --      5.6749                 5.8737                 5.8868
 IR Inten    --     42.9323                90.7209                11.7689

                     94                     95                     96
                      A                      A                      A
 Frequencies --   3062.7443              3076.0700              3078.9385
 Red. masses --      1.0798                 1.1034                 1.0963
 Frc consts  --      5.9677                 6.1513                 6.1234
 IR Inten    --     44.5154                35.8856                25.8183

                     97                     98                     99
                      A                      A                      A
 Frequencies --   3098.1634              3099.8572              3101.8912
 Red. masses --      1.0568                 1.1030                 1.0973
 Frc consts  --      5.9763                 6.2449                 6.2205
 IR Inten    --     17.2555                33.7144                30.8280

                    100                    101                    102
                      A                      A                      A
 Frequencies --   3109.8467              3143.7400              3147.6654
 Red. masses --      1.0628                 1.1036                 1.1031
 Frc consts  --      6.0561                 6.4261                 6.4395
 IR Inten    --     32.7606                40.2342                 2.7359

                    103                    104                    105
                      A                      A                      A
 Frequencies --   3178.8696              3203.4306              3499.4952
 Red. masses --      1.0911                 1.1170                 1.0729
 Frc consts  --      6.4961                 6.7536                 7.7416
 IR Inten    --      3.3896                 8.1878                 0.8527

                    106                    107                    108
                      A                      A                      A
 Frequencies --   3570.9074              3595.3240              3621.1198
 Red. masses --      1.0742                 1.0756                 1.0761
 Frc consts  --      8.0704                 8.1915                 8.3136
 IR Inten    --     14.5154                29.9110                32.8444

 - Thermochemistry -
 -------------------
 Temperature   298.150 Kelvin.  Pressure   1.00000 Atm.
 Atom     1 has atomic number  6 and mass  12.00000

 Molecular mass:   243.16953 amu.
 Principal axes and moments of inertia in atomic units:
                           1         2         3
     Eigenvalues --  2748.186856161.385497460.24254
           X            0.99945   0.02823   0.01713
           Y           -0.02818   0.99960  -0.00341
           Z           -0.01722   0.00293   0.99985
 This molecule is an asymmetric top.
 Rotational symmetry number  1.
 Warning -- assumption of classical behavior for rotation
           may cause significant error
 Rotational temperatures (Kelvin)      0.03152     0.01406     0.01161
 Rotational constants (GHZ):           0.65670     0.29291     0.24191
 Zero-point vibrational energy     876341.6 (Joules/Mol)
                                  209.45066 (Kcal/Mol)
 Warning -- explicit consideration of  28 degrees of freedom as
           vibrations may cause significant error
 Vibrational temperatures:     30.88    55.46    69.73    75.20    94.27
          (Kelvin)            119.34   142.60   150.51   172.65   209.94
                              213.79   259.62   278.21   305.84   353.86
                              402.50   409.13   465.90   480.75   535.07
                              558.21   641.93   730.87   762.16   765.50
                              784.10   810.90   858.84   939.35   948.40
                              974.78  1046.12  1079.68  1101.13  1155.26
                             1174.31  1178.68  1222.48  1245.72  1261.33
                             1314.65  1329.95  1400.46  1474.58  1511.35
                             1523.90  1577.58  1600.37  1606.01  1629.15
                             1654.59  1673.22  1684.00  1704.79  1724.43
                             1772.89  1782.59  1787.51  1835.54  1856.22
                             1911.43  1948.30  1958.99  1992.12  2014.15
                             2018.36  2033.24  2041.64  2065.77  2078.78
                             2118.09  2135.93  2139.74  2148.17  2157.64
                             2176.13  2177.98  2188.74  2193.06  2196.34
                             2201.21  2211.15  2233.23  2236.81  2465.04
                             2584.32  2585.69  4283.95  4360.67  4374.65
                             4375.82  4386.37  4389.68  4406.61  4425.78
                             4429.91  4457.57  4460.00  4462.93  4474.38
                             4523.14  4528.79  4573.68  4609.02  5034.99
                             5137.74  5172.87  5209.98

 Zero-point correction=                           0.333781 (Hartree/Particle)
 Thermal correction to Energy=                    0.352717
 Thermal correction to Enthalpy=                  0.353661
 Thermal correction to Gibbs Free Energy=         0.284749
 Sum of electronic and zero-point Energies=           -817.646488
 Sum of electronic and thermal Energies=              -817.627552
 Sum of electronic and thermal Enthalpies=            -817.626607
 Sum of electronic and thermal Free Energies=         -817.695520

                     E (Thermal)             CV                S
                      KCal/Mol        Cal/Mol-Kelvin    Cal/Mol-Kelvin
 Total                  221.333             68.739            145.038
 Electronic               0.000              0.000              0.000
 Translational            0.889              2.981             42.367
 Rotational               0.889              2.981             33.201
 Vibrational            219.556             62.778             69.470
 Vibration     1          0.593              1.985              6.494
 Vibration     2          0.594              1.981              5.332
 Vibration     3          0.595              1.978              4.879
 Vibration     4          0.596              1.977              4.730
 Vibration     5          0.597              1.971              4.284
 Vibration     6          0.600              1.961              3.820
 Vibration     7          0.604              1.950              3.472
 Vibration     8          0.605              1.946              3.367
 Vibration     9          0.609              1.933              3.100
 Vibration    10          0.617              1.907              2.725
 Vibration    11          0.618              1.904              2.690
 Vibration    12          0.629              1.866              2.324
 Vibration    13          0.635              1.849              2.195
 Vibration    14          0.644              1.822              2.021
 Vibration    15          0.660              1.769              1.759
 Vibration    16          0.680              1.711              1.535
 Vibration    17          0.683              1.703              1.507
 Vibration    18          0.708              1.628              1.291
 Vibration    19          0.716              1.607              1.240
 Vibration    20          0.744              1.530              1.072
 Vibration    21          0.756              1.496              1.008
 Vibration    22          0.805              1.369              0.807
 Vibration    23          0.863              1.232              0.638
 Vibration    24          0.885              1.184              0.588
 Vibration    25          0.887              1.179              0.583
 Vibration    26          0.900              1.151              0.555
 Vibration    27          0.919              1.110              0.517
 Vibration    28          0.955              1.038              0.455

 Optimization completed.
    -- Stationary point found.
 Normal termination of Gaussian 16 at Fri Dec 11 13:05:24 2020.

 ----------------------------------------------------------------------
 # B3LYP/6-311++G(d,p) empiricaldispersion=gd3bj scf=xqc pop=npa geom=c
 heck
 ----------------------------------------------------------------------

 ---------------------------------------
 CID_146989048_JID_7505_Energie_neutraal
 ---------------------------------------
 Structure from the checkpoint file:  "JID_7505.chk"
 Charge =  0 Multiplicity = 1

 SCF Done:  E(RB3LYP) =  -818.230892888     A.U. after   14 cycles
 Normal termination of Gaussian 16 at Fri Dec 11 13:11:48 2020.

 ----------------------------------------------------------------------
 # B3LYP/6-311++G(d,p) empiricaldispersion=gd3bj scf=xqc pop=npa geom=c
 heck
 ----------------------------------------------------------------------

 -------------------------------------
 CID_146989048_JID_7505_Energie_kation
 -------------------------------------
 Structure from the checkpoint file:  "JID_7505.chk"
 Charge =  1 Multiplicity = 2

 SCF Done:  E(UB3LYP) =  -817.931516083     A.U. after   28 cycles
 Normal termination of Gaussian 16 at Fri Dec 11 13:28:34 2020.
 Gaussian 16:  ES64L-G16RevA.03 25-Dec-2016

 ----------------------------------------------------------------------
 # B3LYP/6-311++G(d,p) empiricaldispersion=gd3bj scf=xqc pop=npa geom=c
 heck
 ----------------------------------------------------------------------

 ------------------------------------
 CID_146989048_JID_7505_Energie_anion
 ------------------------------------
 Structure from the checkpoint file:  "JID_7505.chk"
 Charge = -1 Multiplicity = 2

                         Standard orientation:
 ---------------------------------------------------------------------
 Center     Atomic      Atomic             Coordinates (Angstroms)
 Number     Number       Type             X           Y           Z
 ---------------------------------------------------------------------
      1          6           0       -3.978845   -1.169960   -1.183121
      2          7           0       -3.951091   -0.075935   -0.220930
      3          6           0       -2.960776    0.139502    0.712131
      4          8           0       -3.187942    0.686562    1.787284
      5          7           0       -1.683205   -0.315784    0.366254
      6          6           0       -1.067620    0.063690   -0.915570
      7          6           0       -0.978493    1.578984   -1.154071
      8          6           0       -0.378699    2.387534    0.009135
      9          6           0        0.983131    1.898705    0.511706
     10          7           0        1.982767    1.876739   -0.556851
     11          6           0        3.334471    1.564787   -0.118216
     12          6           0        3.544061    0.184280    0.541671
     13          7           0        3.132005   -0.900025   -0.340349
     14          6           0        2.068982   -1.739487   -0.214145
     15          8           0        1.737400   -2.524397   -1.093527
     16          7           0        1.394274   -1.592381    1.057494
     17          6           0        0.437305   -2.414258    1.237349
     18          1           0       -3.813101   -0.824705   -2.211504
     19          1           0       -4.953309   -1.667150   -1.145567
     20          1           0       -3.210151   -1.905202   -0.932548
     21          1           0       -4.843497    0.253585    0.120601
     22          1           0       -1.070665   -0.098974    1.145181
     23          1           0       -0.076016   -0.394698   -0.923991
     24          1           0       -1.615782   -0.404252   -1.736084
     25          1           0       -0.395624    1.746763   -2.069903
     26          1           0       -1.985791    1.962506   -1.357814
     27          1           0       -0.280937    3.430749   -0.312498
     28          1           0       -1.079291    2.375203    0.852939
     29          1           0        1.343280    2.593375    1.281569
     30          1           0        0.871988    0.921630    1.012274
     31          1           0        1.704172    1.202549   -1.266993
     32          1           0        3.997482    1.647287   -0.990377
     33          1           0        3.656343    2.335488    0.594513
     34          1           0        4.604051    0.059638    0.799782
     35          1           0        2.964035    0.089424    1.458291
     36          1           0        3.610117   -0.998299   -1.228002
     37          1           0        0.159886   -3.165109    0.491573
     38          1           0       -0.127206   -2.368096    2.167967
 ---------------------------------------------------------------------

 SCF Done:  E(UB3LYP) =  -818.237790102     A.U. after   32 cycles

 The electronic state is 2-A.
 Alpha  occ. eigenvalues --  -18.97860 -18.94310 -14.23229 -14.21276 -14.20752
 Alpha  occ. eigenvalues --  -14.19824 -14.14612 -10.18618 -10.13653 -10.10735
 Alpha  occ. eigenvalues --  -10.09857 -10.09482 -10.09444 -10.08659 -10.06871
 Alpha  occ. eigenvalues --  -10.06544 -10.03624  -0.94225  -0.90573  -0.82687
 Alpha  occ. eigenvalues --   -0.81704  -0.79694  -0.78938  -0.75074  -0.68605
 Alpha  occ. eigenvalues --   -0.63523  -0.61041  -0.60129  -0.54952  -0.52340
 Alpha  occ. eigenvalues --   -0.51383  -0.49813  -0.46895  -0.42386  -0.40299
 Alpha  occ. eigenvalues --   -0.39581  -0.38873  -0.38344  -0.37734  -0.36404
 Alpha  occ. eigenvalues --   -0.35115  -0.34902  -0.34420  -0.34264  -0.31686
 Alpha  occ. eigenvalues --   -0.31303  -0.30617  -0.29846  -0.29678  -0.28700
 Alpha  occ. eigenvalues --   -0.28197  -0.28062  -0.27037  -0.26561  -0.25949
 Alpha  occ. eigenvalues --   -0.24319  -0.23268  -0.22580  -0.17797  -0.17452
 Alpha  occ. eigenvalues --   -0.15612  -0.15407  -0.14174  -0.13902  -0.12254
 Alpha  occ. eigenvalues --   -0.10493   0.04269
 Alpha virt. eigenvalues --    0.05823   0.06870   0.08106   0.08334   0.08893
 Alpha virt. eigenvalues --    0.09593   0.10361   0.10791   0.11137   0.11508
 Alpha virt. eigenvalues --    0.12430   0.12875   0.13134   0.13745   0.14217

  Beta  occ. eigenvalues --  -18.97858 -18.94205 -14.23216 -14.21258 -14.20682
  Beta  occ. eigenvalues --  -14.19822 -14.14472 -10.18613 -10.13448 -10.10704
  Beta  occ. eigenvalues --  -10.09850 -10.09478 -10.09446 -10.08657 -10.06867
  Beta  occ. eigenvalues --  -10.06544 -10.03059  -0.94215  -0.90289  -0.82670
  Beta  occ. eigenvalues --   -0.81654  -0.79663  -0.78812  -0.74492  -0.68592
  Beta  occ. eigenvalues --   -0.63486  -0.60993  -0.60093  -0.54930  -0.51955
  Beta  occ. eigenvalues --   -0.50958  -0.49738  -0.46873  -0.41794  -0.40261
  Beta  occ. eigenvalues --   -0.39526  -0.38825  -0.38297  -0.37683  -0.36200
  Beta  occ. eigenvalues --   -0.35088  -0.34772  -0.34314  -0.34118  -0.31639
  Beta  occ. eigenvalues --   -0.31266  -0.30561  -0.29741  -0.29610  -0.28530
  Beta  occ. eigenvalues --   -0.27972  -0.27659  -0.26715  -0.26345  -0.25820
  Beta  occ. eigenvalues --   -0.24273  -0.23254  -0.22566  -0.17624  -0.15917
  Beta  occ. eigenvalues --   -0.15386  -0.15162  -0.14002  -0.13623  -0.12015
  Beta  occ. eigenvalues --   -0.10329
  Beta virt. eigenvalues --    0.06504   0.06832   0.08245   0.08283   0.09092
  Beta virt. eigenvalues --    0.09669   0.10201   0.10598   0.10817   0.11131
  Beta virt. eigenvalues --    0.11545   0.12379   0.12874   0.13159   0.13765

 Mulliken charges and spin densities:
               1          2
     1  C    0.332926  -0.766463
     2  N   -0.389570   0.141005
     3  C    0.077645  -0.082043
     4  O   -0.342469   0.001394
     5  N    0.031586   0.018264
     6  C   -0.011006  -0.347165
     7  C   -0.495475   0.136605
     8  C   -0.415058  -0.036951
     9  C   -0.351927  -0.075051
    10  N    0.046061   0.008045
    11  C   -0.450846  -0.035603
    12  C   -0.017472  -0.047245
    13  N   -0.196396   0.031625
    14  C   -0.269540   0.116959
    15  O   -0.364516   0.048607
    16  N   -0.121061   0.005394
    17  C   -0.395223   0.575973
    18  H   -0.125463   0.282380
    19  H   -0.433531   0.578491
    20  H    0.132742   0.069713
    21  H    0.129868   0.176973
    22  H    0.391343  -0.084699
    23  H    0.105549   0.092037
    24  H    0.186616  -0.062404
    25  H    0.056588   0.100727
    26  H    0.121822   0.033684
    27  H    0.109793   0.036680
    28  H    0.198550   0.003577
    29  H    0.154683  -0.005708
    30  H    0.035556   0.020744
    31  H    0.267467  -0.030082
    32  H    0.114828   0.041197
    33  H    0.039556   0.072835
    34  H    0.118523   0.033075
    35  H    0.228282  -0.004610
    36  H    0.260900   0.003886
    37  H    0.112884  -0.029425
    38  H    0.125784  -0.022420
 Sum of Mulliken charges =  -1.00000   1.00000

 Dipole moment (field-independent basis, Debye):
    X=              3.0356    Y=              5.2454    Z=             -1.3546  Tot=              6.2100
 Quadrupole moment (field-independent basis, Debye-Ang):
   XX=           -155.5536   YY=           -145.5193   ZZ=           -130.6357
   XY=              5.3074   XZ=              3.0876   YZ=             -2.0797

 Summary of Natural Population Analysis:

                                       Natural Population
                Natural  -----------------------------------------------
    Atom  No    Charge         Core      Valence    Rydberg      Total
 -----------------------------------------------------------------------
      C    1   -0.18411      0.99965     2.17604    0.00842     3.18411
      N    2   -0.33303      0.99967     2.82332    0.01003     3.83303
      C    3    0.40621      0.99969     1.56967    0.02442     2.59379
      O    4   -0.34206      0.99987     3.33696    0.00523     4.34206
      N    5   -0.33454      0.99969     2.82448    0.01037     3.83454
      C    6   -0.09817      0.99960     2.08719    0.01138     3.09817
      C    7   -0.20194      0.99963     2.19412    0.00819     3.20194
      C    8   -0.19714      0.99963     2.18934    0.00817     3.19714
      C    9   -0.09831      0.99962     2.08839    0.01029     3.09831
      N   10   -0.34517      0.99975     2.83270    0.01272     3.84517
      C   11   -0.08771      0.99963     2.07728    0.01079     3.08771
      C   12   -0.10215      0.99962     2.09321    0.00932     3.10215
      N   13   -0.31903      0.99966     2.80870    0.01067     3.81903
      C   14    0.41751      0.99969     1.55448    0.02833     2.58249
      O   15   -0.33729      0.99987     3.33182    0.00560     4.33729
      N   16   -0.30421      0.99968     2.79299    0.01154     3.80421
      C   17    0.12151      0.99969     1.86468    0.01413     2.87849
      H   18    0.08966      0.00000     0.40916    0.00119     0.41034
      H   19    0.09652      0.00000     0.40224    0.00125     0.40348
      H   20    0.10708      0.00000     0.39160    0.00132     0.39292
      H   21    0.19241      0.00000     0.30533    0.00225     0.30759
      H   22    0.19638      0.00000     0.30120    0.00242     0.30362
      H   23    0.10889      0.00000     0.38886    0.00225     0.39111
      H   24    0.09590      0.00000     0.40287    0.00123     0.40410
      H   25    0.09693      0.00000     0.40190    0.00117     0.40307
      H   26    0.09893      0.00000     0.39997    0.00110     0.40107
      H   27    0.09619      0.00000     0.40260    0.00121     0.40381
      H   28    0.10510      0.00000     0.39380    0.00110     0.39490
      H   29    0.08822      0.00000     0.41075    0.00103     0.41178
      H   30    0.09493      0.00000     0.40313    0.00194     0.40507
      H   31    0.17392      0.00000     0.32299    0.00309     0.32608
      H   32    0.08677      0.00000     0.41198    0.00125     0.41323
      H   33    0.08810      0.00000     0.41050    0.00140     0.41190
      H   34    0.08442      0.00000     0.41378    0.00180     0.41558
      H   35    0.11745      0.00000     0.38112    0.00143     0.38255
      H   36    0.18426      0.00000     0.31382    0.00192     0.31574
      H   37    0.07266      0.00000     0.42566    0.00168     0.42734
      H   38    0.06488      0.00000     0.43401    0.00111     0.43512
 =======================================================================
   * Total *   -0.00000     16.99464    48.77261    0.23275    66.00000

 Normal termination of Gaussian 16 at Fri Dec 11 13:47:05 2020.
