 Gaussian 16, Revision A.03,

 -----------------------------------------------------------
 # opt freq B3LYP/6-31G(d) empiricaldispersion=gd3bj scf=xqc
 -----------------------------------------------------------

 -------------------------------
 CID_102272953_JID_6147_neutraal
 -------------------------------
 Symbolic Z-matrix:
 Charge =  0 Multiplicity = 1

 SCF Done:  E(RB3LYP) =  -764.194268587     A.U. after   15 cycles
 SCF Done:  E(RB3LYP) =  -764.197693740     A.U. after   12 cycles
 SCF Done:  E(RB3LYP) =  -764.197898168     A.U. after   12 cycles
 SCF Done:  E(RB3LYP) =  -764.198143332     A.U. after   11 cycles
 SCF Done:  E(RB3LYP) =  -764.198186785     A.U. after   11 cycles
 SCF Done:  E(RB3LYP) =  -764.198169343     A.U. after   11 cycles
 SCF Done:  E(RB3LYP) =  -764.198215465     A.U. after   11 cycles
 SCF Done:  E(RB3LYP) =  -764.198221259     A.U. after   11 cycles
 SCF Done:  E(RB3LYP) =  -764.198224728     A.U. after   11 cycles
 SCF Done:  E(RB3LYP) =  -764.198225861     A.U. after    9 cycles
 SCF Done:  E(RB3LYP) =  -764.198226322     A.U. after    8 cycles
 SCF Done:  E(RB3LYP) =  -764.198226718     A.U. after    8 cycles
 SCF Done:  E(RB3LYP) =  -764.198226953     A.U. after    8 cycles
 SCF Done:  E(RB3LYP) =  -764.198226996     A.U. after    7 cycles
 Optimization completed.
    -- Stationary point found.
 Normal termination of Gaussian 16 at Thu Dec 10 21:11:11 2020.

 --------------------------------------------------------------------
 #N Geom=AllCheck Guess=TCheck SCRF=Check GenChk RB3LYP/6-31G(d) Freq
 --------------------------------------------------------------------

 Structure from the checkpoint file:  "JID_6147.chk"
 -------------------------------
 CID_102272953_JID_6147_neutraal
 -------------------------------
 Charge =  0 Multiplicity = 1

 SCF Done:  E(RB3LYP) =  -764.198226996     A.U. after    1 cycles

  Exact polarizability: 229.102  -1.274 150.374  -1.009   1.940  59.745
 Approx polarizability: 373.902 -29.917 262.492  -9.553   8.712  93.016

                      1                      2                      3
                      A                      A                      A
 Frequencies --     41.3936                55.0796                68.6752
 Red. masses --      2.4809                 7.3039                 3.6056
 Frc consts  --      0.0025                 0.0131                 0.0100
 IR Inten    --      2.9988                 0.4914                 7.9235

                      4                      5                      6
                      A                      A                      A
 Frequencies --     93.0717               140.9920               156.2796
 Red. masses --      3.5140                 2.7544                 2.7944
 Frc consts  --      0.0179                 0.0323                 0.0402
 IR Inten    --      1.4139                 0.0623                 1.9830

                      7                      8                      9
                      A                      A                      A
 Frequencies --    167.2850               207.6401               225.7775
 Red. masses --      3.9292                 2.3713                 3.0555
 Frc consts  --      0.0648                 0.0602                 0.0918
 IR Inten    --      7.4279                 2.4445                 1.2102

                     10                     11                     12
                      A                      A                      A
 Frequencies --    264.3326               308.5615               314.7171
 Red. masses --      1.4047                 3.8966                 5.9919
 Frc consts  --      0.0578                 0.2186                 0.3497
 IR Inten    --      0.6485                 3.5595                 0.5267

                     13                     14                     15
                      A                      A                      A
 Frequencies --    344.1420               361.1433               362.1157
 Red. masses --      6.4708                 4.3721                 8.6673
 Frc consts  --      0.4515                 0.3360                 0.6696
 IR Inten    --      1.2898                 0.0218                 2.4484

                     16                     17                     18
                      A                      A                      A
 Frequencies --    386.8549               457.9602               490.6150
 Red. masses --      4.9354                 5.9975                 4.2246
 Frc consts  --      0.4352                 0.7411                 0.5991
 IR Inten    --      7.2650                 5.7457                 1.0617

                     19                     20                     21
                      A                      A                      A
 Frequencies --    500.3106               553.7018               563.1254
 Red. masses --      6.0456                 5.8822                 5.9238
 Frc consts  --      0.8916                 1.0625                 1.1068
 IR Inten    --      5.0551                15.8380                 1.1559

                     22                     23                     24
                      A                      A                      A
 Frequencies --    605.8788               628.3543               666.9845
 Red. masses --      6.4609                 3.9578                 5.1007
 Frc consts  --      1.3974                 0.9207                 1.3369
 IR Inten    --     12.5054                 5.2648                 5.2148

                     25                     26                     27
                      A                      A                      A
 Frequencies --    718.5675               728.4911               782.1009
 Red. masses --      5.8867                 5.5568                 5.1019
 Frc consts  --      1.7908                 1.7375                 1.8387
 IR Inten    --      3.4557                 4.5870                28.2017

                     28                     29                     30
                      A                      A                      A
 Frequencies --    798.4832               835.1078               857.4616
 Red. masses --      2.4684                 6.8017                 2.6819
 Frc consts  --      0.9272                 2.7948                 1.1618
 IR Inten    --     12.3416                 2.9631                 3.6350

                     31                     32                     33
                      A                      A                      A
 Frequencies --    896.4743               919.1385               957.4127
 Red. masses --      1.3811                 1.4601                 4.2261
 Frc consts  --      0.6540                 0.7267                 2.2824
 IR Inten    --      8.6111                33.4745                30.7753

                     34                     35                     36
                      A                      A                      A
 Frequencies --   1011.4116              1042.5156              1068.0853
 Red. masses --      1.3000                 5.5938                 5.3400
 Frc consts  --      0.7835                 3.5819                 3.5893
 IR Inten    --      0.1275                21.9343                88.0468

                     37                     38                     39
                      A                      A                      A
 Frequencies --   1125.2685              1180.1374              1184.7492
 Red. masses --      2.6499                 1.2607                 1.2700
 Frc consts  --      1.9769                 1.0345                 1.0503
 IR Inten    --     15.0577                 2.7020                 1.4461

                     40                     41                     42
                      A                      A                      A
 Frequencies --   1189.4635              1200.5254              1219.4973
 Red. masses --      1.8329                 1.5531                 1.5962
 Frc consts  --      1.5279                 1.3188                 1.3986
 IR Inten    --    125.9840                 2.1295                14.6577

                     43                     44                     45
                      A                      A                      A
 Frequencies --   1226.3266              1259.8512              1272.0825
 Red. masses --      1.4823                 2.8362                 3.9074
 Frc consts  --      1.3134                 2.6523                 3.7253
 IR Inten    --      6.0495                30.8888                87.8547

                     46                     47                     48
                      A                      A                      A
 Frequencies --   1293.6744              1352.0597              1380.5851
 Red. masses --      1.4766                 4.6514                 8.6941
 Frc consts  --      1.4560                 5.0099                 9.7634
 IR Inten    --      4.6860               648.0498                27.8497

                     49                     50                     51
                      A                      A                      A
 Frequencies --   1416.9714              1460.4895              1499.0056
 Red. masses --      2.6500                 2.4108                 1.2484
 Frc consts  --      3.1349                 3.0298                 1.6527
 IR Inten    --    124.8090                 2.9342                11.7412

                     52                     53                     54
                      A                      A                      A
 Frequencies --   1512.2472              1516.7869              1521.4628
 Red. masses --      1.3507                 1.1151                 1.0469
 Frc consts  --      1.8200                 1.5115                 1.4279
 IR Inten    --      7.7740                 3.1123                 6.8916

                     55                     56                     57
                      A                      A                      A
 Frequencies --   1532.6343              1533.7035              1562.0445
 Red. masses --      1.0525                 1.0691                 3.3779
 Frc consts  --      1.4566                 1.4817                 4.8560
 IR Inten    --     19.4306                68.2837               129.4230

                     58                     59                     60
                      A                      A                      A
 Frequencies --   1606.7155              1645.3190              1675.4778
 Red. masses --      9.0158                 5.9900                 6.5851
 Frc consts  --     13.7129                 9.5538                10.8915
 IR Inten    --    109.7253               134.3448                23.5631

                     61                     62                     63
                      A                      A                      A
 Frequencies --   1757.6791              1786.5468              3040.3874
 Red. masses --     12.6288                12.3972                 1.0336
 Frc consts  --     22.9874                23.3131                 5.6295
 IR Inten    --    327.8683                26.7118                45.8740

                     64                     65                     66
                      A                      A                      A
 Frequencies --   3058.1793              3105.3886              3142.6013
 Red. masses --      1.0358                 1.1073                 1.0988
 Frc consts  --      5.7074                 6.2915                 6.3938
 IR Inten    --     65.2275                30.4309                38.9266

                     67                     68                     69
                      A                      A                      A
 Frequencies --   3169.2977              3169.9998              3179.1718
 Red. masses --      1.1074                 1.1018                 1.0886
 Frc consts  --      6.5538                 6.5236                 6.4825
 IR Inten    --     20.5262                17.5662                10.8174

                     70                     71                     72
                      A                      A                      A
 Frequencies --   3211.3863              3217.4892              3242.0766
 Red. masses --      1.0909                 1.0949                 1.0892
 Frc consts  --      6.6283                 6.6780                 6.7454
 IR Inten    --      4.4863                 7.1836                 3.8718

 - Thermochemistry -
 -------------------
 Temperature   298.150 Kelvin.  Pressure   1.00000 Atm.
 Atom     1 has atomic number  6 and mass  12.00000

 Molecular mass:   218.05791 amu.
 Principal axes and moments of inertia in atomic units:
                           1         2         3
     Eigenvalues --  1672.078775340.137956927.30600
           X            0.99977   0.02076   0.00586
           Y           -0.02072   0.99977  -0.00592
           Z           -0.00598   0.00580   0.99997
 This molecule is an asymmetric top.
 Rotational symmetry number  1.
 Warning -- assumption of classical behavior for rotation
           may cause significant error
 Rotational temperatures (Kelvin)      0.05180     0.01622     0.01250
 Rotational constants (GHZ):           1.07934     0.33796     0.26053
 Zero-point vibrational energy     520540.2 (Joules/Mol)
                                  124.41209 (Kcal/Mol)
 Warning -- explicit consideration of  22 degrees of freedom as
           vibrations may cause significant error
 Vibrational temperatures:     59.56    79.25    98.81   133.91   202.86
          (Kelvin)            224.85   240.69   298.75   324.84   380.32
                              443.95   452.81   495.14   519.60   521.00
                              556.60   658.90   705.89   719.84   796.65
                              810.21   871.72   904.06   959.64  1033.86
                             1048.14  1125.27  1148.84  1201.53  1233.70
                             1289.83  1322.44  1377.50  1455.20  1499.95
                             1536.74  1619.01  1697.95  1704.59  1711.37
                             1727.29  1754.58  1764.41  1812.64  1830.24
                             1861.31  1945.31  1986.35  2038.71  2101.32
                             2156.73  2175.79  2182.32  2189.05  2205.12
                             2206.66  2247.43  2311.71  2367.25  2410.64
                             2528.91  2570.44  4374.44  4400.04  4467.96
                             4521.50  4559.91  4560.92  4574.12  4620.47
                             4629.25  4664.63

 Zero-point correction=                           0.198263 (Hartree/Particle)
 Thermal correction to Energy=                    0.212446
 Thermal correction to Enthalpy=                  0.213390
 Thermal correction to Gibbs Free Energy=         0.156554
 Sum of electronic and zero-point Energies=           -763.999964
 Sum of electronic and thermal Energies=              -763.985781
 Sum of electronic and thermal Enthalpies=            -763.984837
 Sum of electronic and thermal Free Energies=         -764.041673

                     E (Thermal)             CV                S
                      KCal/Mol        Cal/Mol-Kelvin    Cal/Mol-Kelvin
 Total                  133.312             52.923            119.621
 Electronic               0.000              0.000              0.000
 Translational            0.889              2.981             42.042
 Rotational               0.889              2.981             32.492
 Vibrational            131.534             46.961             45.088
 Vibration     1          0.594              1.981              5.191
 Vibration     2          0.596              1.976              4.626
 Vibration     3          0.598              1.969              4.191
 Vibration     4          0.602              1.954              3.594
 Vibration     5          0.615              1.912              2.790
 Vibration     6          0.620              1.896              2.594
 Vibration     7          0.624              1.883              2.466
 Vibration     8          0.641              1.829              2.064
 Vibration     9          0.650              1.802              1.912
 Vibration    10          0.671              1.738              1.633
 Vibration    11          0.698              1.657              1.370
 Vibration    12          0.702              1.646              1.337
 Vibration    13          0.723              1.587              1.193
 Vibration    14          0.735              1.552              1.117
 Vibration    15          0.736              1.550              1.113
 Vibration    16          0.755              1.498              1.012
 Vibration    17          0.816              1.343              0.772
 Vibration    18          0.846              1.271              0.682
 Vibration    19          0.856              1.249              0.657
 Vibration    20          0.909              1.132              0.537
 Vibration    21          0.919              1.111              0.518
 Vibration    22          0.965              1.019              0.440

                           ! Non-Optimized Parameters !
 Normal termination of Gaussian 16 at Thu Dec 10 21:19:10 2020.

 ----------------------------------------------------------------------
 # B3LYP/6-311++G(d,p) empiricaldispersion=gd3bj scf=xqc pop=npa geom=c
 heck
 ----------------------------------------------------------------------

 ---------------------------------------
 CID_102272953_JID_6147_Energie_neutraal
 ---------------------------------------
 Structure from the checkpoint file:  "JID_6147.chk"
 Charge =  0 Multiplicity = 1

 SCF Done:  E(RB3LYP) =  -764.408707335     A.U. after   17 cycles
 Normal termination of Gaussian 16 at Thu Dec 10 21:22:20 2020.

 ----------------------------------------------------------------------
 # B3LYP/6-311++G(d,p) empiricaldispersion=gd3bj scf=xqc pop=npa geom=c
 heck
 ----------------------------------------------------------------------

 -------------------------------------
 CID_102272953_JID_6147_Energie_kation
 -------------------------------------
 Structure from the checkpoint file:  "JID_6147.chk"
 Charge =  1 Multiplicity = 2

 SCF Done:  E(UB3LYP) =  -764.108959084     A.U. after   31 cycles
 Normal termination of Gaussian 16 at Thu Dec 10 21:30:13 2020.
 Gaussian 16:  ES64L-G16RevA.03 25-Dec-2016

 ----------------------------------------------------------------------
 # B3LYP/6-311++G(d,p) empiricaldispersion=gd3bj scf=xqc pop=npa geom=c
 heck
 ----------------------------------------------------------------------

 ------------------------------------
 CID_102272953_JID_6147_Energie_anion
 ------------------------------------
 Structure from the checkpoint file:  "JID_6147.chk"
 Charge = -1 Multiplicity = 2

                         Standard orientation:
 ---------------------------------------------------------------------
 Center     Atomic      Atomic             Coordinates (Angstroms)
 Number     Number       Type             X           Y           Z
 ---------------------------------------------------------------------
      1          6           0        3.999750   -1.206053    0.574733
      2          8           0        2.900308   -1.588763   -0.261544
      3          6           0        1.720099   -0.923883   -0.152632
      4          6           0        1.608917    0.489249   -0.105841
      5          6           0        0.343172    1.066943   -0.019574
      6          6           0       -0.808915    0.277437   -0.011849
      7          6           0       -0.709904   -1.126181   -0.091446
      8          6           0        0.562494   -1.702030   -0.153728
      9          6           0       -1.911691   -1.950690   -0.091376
     10          6           0       -3.159930   -1.440754   -0.021121
     11          6           0       -3.387665    0.006375    0.063467
     12          8           0       -4.499023    0.504432    0.127725
     13          6           0       -2.134735    0.929149    0.070472
     14          8           0       -2.278417    2.137670    0.142732
     15          8           0        2.769813    1.195566   -0.171170
     16          6           0        2.688892    2.615193   -0.122824
     17          1           0        4.661052   -2.074599    0.598075
     18          1           0        3.655819   -0.981742    1.590769
     19          1           0        4.527503   -0.340984    0.170523
     20          1           0        0.210992    2.140950    0.025047
     21          1           0        0.684952   -2.779556   -0.201659
     22          1           0       -1.768381   -3.027422   -0.153323
     23          1           0       -4.042223   -2.072990   -0.023796
     24          1           0        2.111108    3.008082   -0.967871
     25          1           0        2.237231    2.956681    0.816437
     26          1           0        3.717588    2.971804   -0.185842
 ---------------------------------------------------------------------

 SCF Done:  E(UB3LYP) =  -764.472397420     A.U. after   23 cycles

 The electronic state is 2-A.
 Alpha  occ. eigenvalues --  -19.05492 -19.04100 -18.93218 -18.92714 -10.13587
 Alpha  occ. eigenvalues --  -10.12561 -10.11655 -10.11080 -10.07434 -10.07092
 Alpha  occ. eigenvalues --  -10.05167 -10.04880 -10.04708 -10.03768 -10.03566
 Alpha  occ. eigenvalues --  -10.02407  -0.97622  -0.95212  -0.88002  -0.85389
 Alpha  occ. eigenvalues --   -0.73845  -0.67757  -0.64562  -0.63434  -0.60362
 Alpha  occ. eigenvalues --   -0.57435  -0.53185  -0.49690  -0.46688  -0.44926
 Alpha  occ. eigenvalues --   -0.41981  -0.40545  -0.39143  -0.38091  -0.36487
 Alpha  occ. eigenvalues --   -0.34971  -0.33984  -0.33397  -0.32812  -0.30602
 Alpha  occ. eigenvalues --   -0.29240  -0.28503  -0.27397  -0.26649  -0.26241
 Alpha  occ. eigenvalues --   -0.25742  -0.24774  -0.23129  -0.22232  -0.21689
 Alpha  occ. eigenvalues --   -0.20889  -0.19353  -0.15393  -0.12172  -0.11466
 Alpha  occ. eigenvalues --   -0.08824  -0.06870  -0.00132
 Alpha virt. eigenvalues --    0.06462   0.07691   0.09465   0.09487   0.10170
 Alpha virt. eigenvalues --    0.10445   0.11376   0.11645   0.12308   0.12868
 Alpha virt. eigenvalues --    0.13850   0.14565   0.14789   0.15166   0.15645

  Beta  occ. eigenvalues --  -19.05489 -19.04079 -18.92659 -18.92113 -10.13585
  Beta  occ. eigenvalues --  -10.12554 -10.11644 -10.10985 -10.07312 -10.07001
  Beta  occ. eigenvalues --  -10.05195 -10.04808 -10.04661 -10.03566 -10.03478
  Beta  occ. eigenvalues --  -10.02358  -0.97600  -0.95159  -0.87040  -0.84334
  Beta  occ. eigenvalues --   -0.73656  -0.67441  -0.64425  -0.63289  -0.60222
  Beta  occ. eigenvalues --   -0.57229  -0.52506  -0.49572  -0.46387  -0.44689
  Beta  occ. eigenvalues --   -0.41795  -0.40361  -0.39005  -0.38037  -0.36419
  Beta  occ. eigenvalues --   -0.34920  -0.33802  -0.33270  -0.32638  -0.30418
  Beta  occ. eigenvalues --   -0.29035  -0.28056  -0.27082  -0.26091  -0.25641
  Beta  occ. eigenvalues --   -0.24985  -0.24469  -0.22927  -0.21951  -0.20746
  Beta  occ. eigenvalues --   -0.19244  -0.18521  -0.14079  -0.11383  -0.10887
  Beta  occ. eigenvalues --   -0.07851  -0.06325
  Beta virt. eigenvalues --    0.06077   0.06507   0.07701   0.09478   0.10036
  Beta virt. eigenvalues --    0.10206   0.10488   0.11373   0.11663   0.12383
  Beta virt. eigenvalues --    0.12873   0.14584   0.15036   0.15263   0.15357

 Mulliken charges and spin densities:
               1          2
     1  C   -0.301779  -0.002346
     2  O   -0.187920   0.005148
     3  C   -0.456604   0.060872
     4  C   -0.348445  -0.012983
     5  C    0.735838   0.069591
     6  C    1.300175   0.079213
     7  C   -0.746531   0.062034
     8  C   -0.029097  -0.003451
     9  C   -0.339913   0.095309
    10  C   -0.045398   0.045632
    11  C   -0.172571   0.129877
    12  O   -0.370287   0.215168
    13  C   -0.535429   0.059025
    14  O   -0.349026   0.211928
    15  O   -0.182342   0.001819
    16  C   -0.304908  -0.001706
    17  H    0.123435   0.001143
    18  H    0.127920   0.002641
    19  H    0.161542   0.000165
    20  H    0.119835  -0.005434
    21  H    0.141241   0.002133
    22  H    0.075050  -0.014623
    23  H    0.129668  -0.004004
    24  H    0.152839   0.002118
    25  H    0.157816   0.001034
    26  H    0.144892  -0.000303
 Sum of Mulliken charges =  -1.00000   1.00000

 Dipole moment (field-independent basis, Debye):
    X=             12.1338    Y=             -1.9493    Z=              0.4727  Tot=             12.2985
 Quadrupole moment (field-independent basis, Debye-Ang):
   XX=           -152.2681   YY=           -105.7194   ZZ=            -98.8681
   XY=             19.1832   XZ=              5.2720   YZ=             -2.3688

 Summary of Natural Population Analysis:

                                       Natural Population
                Natural  -----------------------------------------------
    Atom  No    Charge         Core      Valence    Rydberg      Total
 -----------------------------------------------------------------------
      C    1   -0.09592      0.99960     2.08834    0.00798     3.09592
      O    2   -0.28509      0.99985     3.27358    0.01166     4.28509
      C    3    0.15192      0.99937     1.83661    0.01211     2.84808
      C    4    0.12665      0.99937     1.86286    0.01112     2.87335
      C    5   -0.10646      0.99945     2.09890    0.00811     3.10646
      C    6   -0.03682      0.99947     2.02868    0.00867     3.03682
      C    7   -0.01745      0.99949     2.01027    0.00769     3.01745
      C    8   -0.11400      0.99951     2.10617    0.00832     3.11400
      C    9   -0.04540      0.99955     2.03727    0.00859     3.04540
      C   10   -0.12215      0.99953     2.11283    0.00979     3.12215
      C   11    0.21964      0.99962     1.75800    0.02274     2.78036
      O   12   -0.21052      0.99988     3.20283    0.00781     4.21052
      C   13    0.24222      0.99959     1.73579    0.02240     2.75778
      O   14   -0.21802      0.99988     3.21105    0.00709     4.21802
      O   15   -0.28269      0.99985     3.27268    0.01015     4.28269
      C   16   -0.10036      0.99961     2.09259    0.00815     3.10036
      H   17    0.08175      0.00000     0.41736    0.00088     0.41825
      H   18    0.08166      0.00000     0.41703    0.00132     0.41834
      H   19    0.08812      0.00000     0.41058    0.00130     0.41188
      H   20    0.11050      0.00000     0.38752    0.00198     0.38950
      H   21    0.09841      0.00000     0.39995    0.00164     0.40159
      H   22    0.08534      0.00000     0.41279    0.00187     0.41466
      H   23    0.09162      0.00000     0.40567    0.00271     0.40838
      H   24    0.08612      0.00000     0.41243    0.00145     0.41388
      H   25    0.08492      0.00000     0.41363    0.00145     0.41508
      H   26    0.08600      0.00000     0.41319    0.00082     0.41400
 =======================================================================
   * Total *    0.00000     15.99360    40.81860    0.18779    57.00000

 Normal termination of Gaussian 16 at Thu Dec 10 21:36:06 2020.
