 Gaussian 16, Revision A.03,

 -----------------------------------------------------------
 # opt freq B3LYP/6-31G(d) empiricaldispersion=gd3bj scf=xqc
 -----------------------------------------------------------

 -------------------------------
 CID_113636846_JID_8430_neutraal
 -------------------------------
 Symbolic Z-matrix:
 Charge =  0 Multiplicity = 1

 SCF Done:  E(RB3LYP) =  -1242.22711616     A.U. after   14 cycles
 SCF Done:  E(RB3LYP) =  -1242.23368544     A.U. after   12 cycles
 SCF Done:  E(RB3LYP) =  -1242.23627985     A.U. after   13 cycles
 SCF Done:  E(RB3LYP) =  -1242.23765223     A.U. after   14 cycles
 SCF Done:  E(RB3LYP) =  -1242.23874233     A.U. after   12 cycles
 SCF Done:  E(RB3LYP) =  -1242.23936796     A.U. after   12 cycles
 SCF Done:  E(RB3LYP) =  -1242.24144814     A.U. after   12 cycles
 SCF Done:  E(RB3LYP) =  -1242.24175423     A.U. after   12 cycles
 SCF Done:  E(RB3LYP) =  -1242.24229063     A.U. after   12 cycles
 SCF Done:  E(RB3LYP) =  -1242.24249404     A.U. after   12 cycles
 SCF Done:  E(RB3LYP) =  -1242.24324385     A.U. after    8 cycles
 SCF Done:  E(RB3LYP) =  -1242.24324384     A.U. after    9 cycles
 SCF Done:  E(RB3LYP) =  -1242.24324413     A.U. after    9 cycles
 SCF Done:  E(RB3LYP) =  -1242.24324419     A.U. after    7 cycles
 SCF Done:  E(RB3LYP) =  -1242.24324423     A.U. after    7 cycles
 Optimization completed.
    -- Stationary point found.
 Normal termination of Gaussian 16 at Fri Dec 11 21:17:29 2020.

 --------------------------------------------------------------------
 #N Geom=AllCheck Guess=TCheck SCRF=Check GenChk RB3LYP/6-31G(d) Freq
 --------------------------------------------------------------------

 Structure from the checkpoint file:  "JID_8430.chk"
 -------------------------------
 CID_113636846_JID_8430_neutraal
 -------------------------------
 Charge =  0 Multiplicity = 1

 SCF Done:  E(RB3LYP) =  -1242.24324423     A.U. after    1 cycles

  Exact polarizability: 181.250  -6.344 162.163  -3.519  -1.162 124.279
 Approx polarizability: 226.006   3.024 225.741  -6.278   2.148 203.789

                      1                      2                      3
                      A                      A                      A
 Frequencies --     18.6164                24.5290                30.2557
 Red. masses --      3.3596                 4.4743                 6.1965
 Frc consts  --      0.0007                 0.0016                 0.0033
 IR Inten    --      0.0847                 0.5589                 0.4004

                      4                      5                      6
                      A                      A                      A
 Frequencies --     41.1595                49.7626                62.4477
 Red. masses --      2.8314                 4.4938                 3.7624
 Frc consts  --      0.0028                 0.0066                 0.0086
 IR Inten    --      0.6055                 0.8095                 0.6816

                      7                      8                      9
                      A                      A                      A
 Frequencies --     73.0158                76.8716               100.8281
 Red. masses --      3.9459                 4.7919                 2.6513
 Frc consts  --      0.0124                 0.0167                 0.0159
 IR Inten    --      2.0727                 0.2097                 0.6275

                     10                     11                     12
                      A                      A                      A
 Frequencies --    115.8292               145.7293               192.2646
 Red. masses --      3.6036                 4.2001                 3.5042
 Frc consts  --      0.0285                 0.0526                 0.0763
 IR Inten    --      1.7431                 1.8902                 3.8771

                     13                     14                     15
                      A                      A                      A
 Frequencies --    203.6672               225.2741               238.4026
 Red. masses --      2.8225                 1.4795                 1.4856
 Frc consts  --      0.0690                 0.0442                 0.0497
 IR Inten    --      4.8212                 0.4111                 1.5243

                     16                     17                     18
                      A                      A                      A
 Frequencies --    242.8401               248.3232               265.8047
 Red. masses --      1.8878                 2.7251                 2.8807
 Frc consts  --      0.0656                 0.0990                 0.1199
 IR Inten    --      3.0760                 1.3553                 1.1627

                     19                     20                     21
                      A                      A                      A
 Frequencies --    269.0610               282.4533               294.9478
 Red. masses --      1.5466                 2.9545                 1.6495
 Frc consts  --      0.0660                 0.1389                 0.0845
 IR Inten    --      1.8393                 0.7045                 3.6828

                     22                     23                     24
                      A                      A                      A
 Frequencies --    337.1626               380.2381               386.1804
 Red. masses --      3.6445                 2.3233                 2.1743
 Frc consts  --      0.2441                 0.1979                 0.1910
 IR Inten    --      7.0641                 4.1806                 1.7214

                     25                     26                     27
                      A                      A                      A
 Frequencies --    410.6715               430.0563               437.8022
 Red. masses --      2.5838                 1.9415                 3.3267
 Frc consts  --      0.2567                 0.2116                 0.3757
 IR Inten    --     16.5929                 1.4047                 0.7356

                     28                     29                     30
                      A                      A                      A
 Frequencies --    472.0490               499.1235               520.4319
 Red. masses --      3.6895                 2.6227                 2.0934
 Frc consts  --      0.4844                 0.3850                 0.3341
 IR Inten    --     33.0804                12.1951                16.0801

                     31                     32                     33
                      A                      A                      A
 Frequencies --    528.7006               554.3330               595.6658
 Red. masses --      4.8032                 2.7861                 1.8313
 Frc consts  --      0.7910                 0.5044                 0.3828
 IR Inten    --     41.9750                 7.3130                29.1935

                     34                     35                     36
                      A                      A                      A
 Frequencies --    600.0623               615.9446               678.0265
 Red. masses --      3.4151                 2.8260                 3.2601
 Frc consts  --      0.7245                 0.6317                 0.8830
 IR Inten    --     91.6867               116.3939                20.4948

                     37                     38                     39
                      A                      A                      A
 Frequencies --    685.2779               755.8533               785.3128
 Red. masses --      1.5016                 1.4646                 2.7306
 Frc consts  --      0.4155                 0.4930                 0.9922
 IR Inten    --     79.3482                 8.3645                24.4368

                     40                     41                     42
                      A                      A                      A
 Frequencies --    803.6833               849.3859               857.3706
 Red. masses --      1.9670                 1.9010                 2.5518
 Frc consts  --      0.7486                 0.8081                 1.1052
 IR Inten    --     65.9070                91.4073                14.6097

                     43                     44                     45
                      A                      A                      A
 Frequencies --    874.2495               893.2952               917.0163
 Red. masses --      2.0674                 2.5617                 2.3402
 Frc consts  --      0.9310                 1.2044                 1.1595
 IR Inten    --     46.3828                 4.9985                 3.0631

                     46                     47                     48
                      A                      A                      A
 Frequencies --    924.1825               939.3864               941.6833
 Red. masses --      2.0174                 1.4653                 1.2411
 Frc consts  --      1.0152                 0.7619                 0.6485
 IR Inten    --     11.1681                22.5374                 4.9096

                     49                     50                     51
                      A                      A                      A
 Frequencies --    968.6796               984.5648              1018.9111
 Red. masses --      1.8516                 1.5524                 2.0061
 Frc consts  --      1.0236                 0.8866                 1.2271
 IR Inten    --     11.1887                 3.0504                73.5089

                     52                     53                     54
                      A                      A                      A
 Frequencies --   1041.0475              1056.8550              1094.4981
 Red. masses --      1.8137                 2.2922                 2.9036
 Frc consts  --      1.1581                 1.5085                 2.0493
 IR Inten    --     26.4283                 9.1880                62.9983

                     55                     56                     57
                      A                      A                      A
 Frequencies --   1099.4015              1125.0525              1132.2059
 Red. masses --      2.8989                 6.7624                 2.7203
 Frc consts  --      2.0644                 5.0431                 2.0546
 IR Inten    --     19.4304               140.8957                65.8182

                     58                     59                     60
                      A                      A                      A
 Frequencies --   1139.3977              1154.4608              1164.7348
 Red. masses --      2.3293                 2.2266                 1.7364
 Frc consts  --      1.7816                 1.7484                 1.3879
 IR Inten    --     27.0804                 1.2747                 0.7561

                     61                     62                     63
                      A                      A                      A
 Frequencies --   1179.0679              1191.1046              1207.9205
 Red. masses --      2.4558                 2.0880                 1.7965
 Frc consts  --      2.0115                 1.7453                 1.5444
 IR Inten    --    252.2894                 5.2715                 8.6468

                     64                     65                     66
                      A                      A                      A
 Frequencies --   1240.8188              1270.1265              1282.9415
 Red. masses --      1.2958                 1.4707                 1.2790
 Frc consts  --      1.1754                 1.3979                 1.2403
 IR Inten    --      5.1395                17.9364                13.0698

                     67                     68                     69
                      A                      A                      A
 Frequencies --   1304.2603              1312.8738              1316.7503
 Red. masses --      1.2883                 1.8845                 1.4799
 Frc consts  --      1.2913                 1.9138                 1.5118
 IR Inten    --     68.5618                62.0013                60.0626

                     70                     71                     72
                      A                      A                      A
 Frequencies --   1324.2661              1346.5421              1370.6443
 Red. masses --      1.3435                 1.3332                 1.3707
 Frc consts  --      1.3882                 1.4243                 1.5172
 IR Inten    --     50.4836                 5.5295                10.3048

                     73                     74                     75
                      A                      A                      A
 Frequencies --   1384.4784              1394.1258              1397.5523
 Red. masses --      1.4559                 1.3133                 1.3452
 Frc consts  --      1.6442                 1.5039                 1.5480
 IR Inten    --      0.6875                 0.9596                 1.0534

                     76                     77                     78
                      A                      A                      A
 Frequencies --   1409.7960              1418.7031              1430.1829
 Red. masses --      1.5669                 1.3242                 1.3117
 Frc consts  --      1.8348                 1.5703                 1.5807
 IR Inten    --     20.8280                 2.2965                 2.4070

                     79                     80                     81
                      A                      A                      A
 Frequencies --   1431.5484              1441.2482              1442.4320
 Red. masses --      1.3065                 1.6078                 1.3282
 Frc consts  --      1.5775                 1.9677                 1.6282
 IR Inten    --      1.0345                51.3258                 9.0155

                     82                     83                     84
                      A                      A                      A
 Frequencies --   1453.0151              1463.1344              1467.1644
 Red. masses --      1.2378                 1.2713                 1.2993
 Frc consts  --      1.5397                 1.6034                 1.6479
 IR Inten    --      4.3044                42.7453                49.1675

                     85                     86                     87
                      A                      A                      A
 Frequencies --   1483.5924              1512.5907              1515.1595
 Red. masses --      1.0857                 1.0766                 1.0654
 Frc consts  --      1.4080                 1.4512                 1.4411
 IR Inten    --     20.3130                 2.5648                 2.0535

                     88                     89                     90
                      A                      A                      A
 Frequencies --   1517.8527              1522.2989              1524.2463
 Red. masses --      1.0729                 1.0462                 1.0696
 Frc consts  --      1.4563                 1.4285                 1.4641
 IR Inten    --      4.1450                 2.7323                 5.7123

                     91                     92                     93
                      A                      A                      A
 Frequencies --   1529.3487              1534.3774              1535.9349
 Red. masses --      1.0697                 1.0671                 1.0570
 Frc consts  --      1.4741                 1.4802                 1.4692
 IR Inten    --      6.3402                 3.3341                 2.2200

                     94                     95                     96
                      A                      A                      A
 Frequencies --   1542.5286              1544.1136              1837.8262
 Red. masses --      1.0502                 1.0480                 9.4090
 Frc consts  --      1.4722                 1.4722                18.7241
 IR Inten    --      3.9405                13.5317               286.8228

                     97                     98                     99
                      A                      A                      A
 Frequencies --   2999.2574              3027.8750              3029.6023
 Red. masses --      1.0812                 1.0722                 1.0658
 Frc consts  --      5.7304                 5.7916                 5.7636
 IR Inten    --     31.9583                52.2781                26.1580

                    100                    101                    102
                      A                      A                      A
 Frequencies --   3040.2507              3040.3755              3046.5912
 Red. masses --      1.0378                 1.0366                 1.0393
 Frc consts  --      5.6518                 5.6458                 5.6834
 IR Inten    --     36.3108                23.6460                24.1779

                    103                    104                    105
                      A                      A                      A
 Frequencies --   3048.9732              3060.3875              3063.8250
 Red. masses --      1.0675                 1.0630                 1.0691
 Frc consts  --      5.8469                 5.8659                 5.9129
 IR Inten    --     34.0156                14.4217                31.1170

                    106                    107                    108
                      A                      A                      A
 Frequencies --   3079.1396              3093.0488              3095.5579
 Red. masses --      1.0962                 1.0953                 1.0983
 Frc consts  --      6.1237                 6.1741                 6.2008
 IR Inten    --     17.3801                 1.7211                17.8134

                    109                    110                    111
                      A                      A                      A
 Frequencies --   3103.5356              3109.1013              3110.8196
 Red. masses --      1.1017                 1.1011                 1.0864
 Frc consts  --      6.2524                 6.2712                 6.1941
 IR Inten    --      3.7449                64.0584                 4.5814

                    112                    113                    114
                      A                      A                      A
 Frequencies --   3115.6372              3116.4674              3121.3380
 Red. masses --      1.1025                 1.1011                 1.0986
 Frc consts  --      6.3053                 6.3006                 6.3063
 IR Inten    --     48.2736                40.7825                27.1262

                    115                    116                    117
                      A                      A                      A
 Frequencies --   3129.2466              3146.3763              3155.1720
 Red. masses --      1.0976                 1.0960                 1.0924
 Frc consts  --      6.3325                 6.3924                 6.4073
 IR Inten    --     48.7750                 5.2888                 2.3757

                    118                    119                    120
                      A                      A                      A
 Frequencies --   3546.6708              3561.0025              3683.9454
 Red. masses --      1.0748                 1.0750                 1.0640
 Frc consts  --      7.9653                 8.0315                 8.5077
 IR Inten    --     20.1990                25.0777                44.7873

 - Thermochemistry -
 -------------------
 Temperature   298.150 Kelvin.  Pressure   1.00000 Atm.
 Atom     1 has atomic number  6 and mass  12.00000

 Molecular mass:   280.14568 amu.
 Principal axes and moments of inertia in atomic units:
                           1         2         3
     Eigenvalues --  4303.217506698.547539979.70579
           X            0.99888  -0.04712   0.00290
           Y            0.04714   0.99888  -0.00394
           Z           -0.00271   0.00407   0.99999
 This molecule is an asymmetric top.
 Rotational symmetry number  1.
 Warning -- assumption of classical behavior for rotation
           may cause significant error
 Rotational temperatures (Kelvin)      0.02013     0.01293     0.00868
 Rotational constants (GHZ):           0.41939     0.26942     0.18084
 Zero-point vibrational energy     959762.8 (Joules/Mol)
                                  229.38880 (Kcal/Mol)
 Warning -- explicit consideration of  35 degrees of freedom as
           vibrations may cause significant error
 Vibrational temperatures:     26.78    35.29    43.53    59.22    71.60
          (Kelvin)             89.85   105.05   110.60   145.07   166.65
                              209.67   276.63   293.03   324.12   343.01
                              349.39   357.28   382.43   387.12   406.39
                              424.36   485.10   547.08   555.63   590.86
                              618.76   629.90   679.17   718.13   748.79
                              760.68   797.56   857.03   863.36   886.21
                              975.53   985.96  1087.50  1129.89  1156.32
                             1222.08  1233.57  1257.85  1285.25  1319.38
                             1329.69  1351.57  1354.87  1393.71  1416.57
                             1465.99  1497.84  1520.58  1574.74  1581.79
                             1618.70  1628.99  1639.34  1661.01  1675.79
                             1696.42  1713.73  1737.93  1785.26  1827.43
                             1845.87  1876.54  1888.93  1894.51  1905.32
                             1937.37  1972.05  1991.96  2005.84  2010.77
                             2028.38  2041.20  2057.71  2059.68  2073.63
                             2075.34  2090.56  2105.12  2110.92  2134.56
                             2176.28  2179.98  2183.85  2190.25  2193.05
                             2200.39  2207.63  2209.87  2219.35  2221.64
                             2644.22  4315.26  4356.44  4358.92  4374.24
                             4374.42  4383.37  4386.79  4403.21  4408.16
                             4430.20  4450.21  4453.82  4465.30  4473.30
                             4475.78  4482.71  4483.90  4490.91  4502.29
                             4526.93  4539.59  5102.87  5123.49  5300.38

 Zero-point correction=                           0.365554 (Hartree/Particle)
 Thermal correction to Energy=                    0.387110
 Thermal correction to Enthalpy=                  0.388054
 Thermal correction to Gibbs Free Energy=         0.312279
 Sum of electronic and zero-point Energies=          -1241.877690
 Sum of electronic and thermal Energies=             -1241.856134
 Sum of electronic and thermal Enthalpies=           -1241.855190
 Sum of electronic and thermal Free Energies=        -1241.930965

                     E (Thermal)             CV                S
                      KCal/Mol        Cal/Mol-Kelvin    Cal/Mol-Kelvin
 Total                  242.915             78.528            159.482
 Electronic               0.000              0.000              0.000
 Translational            0.889              2.981             42.789
 Rotational               0.889              2.981             34.019
 Vibrational            241.138             72.566             82.674
 Vibration     1          0.593              1.986              6.777
 Vibration     2          0.593              1.985              6.229
 Vibration     3          0.594              1.984              5.813
 Vibration     4          0.594              1.981              5.202
 Vibration     5          0.595              1.978              4.827
 Vibration     6          0.597              1.972              4.378
 Vibration     7          0.599              1.967              4.070
 Vibration     8          0.599              1.965              3.969
 Vibration     9          0.604              1.948              3.438
 Vibration    10          0.608              1.936              3.169
 Vibration    11          0.617              1.907              2.727
 Vibration    12          0.634              1.851              2.206
 Vibration    13          0.639              1.835              2.100
 Vibration    14          0.650              1.803              1.916
 Vibration    15          0.656              1.782              1.815
 Vibration    16          0.659              1.775              1.782
 Vibration    17          0.662              1.766              1.742
 Vibration    18          0.672              1.736              1.623
 Vibration    19          0.673              1.730              1.602
 Vibration    20          0.681              1.706              1.519
 Vibration    21          0.689              1.683              1.445
 Vibration    22          0.718              1.601              1.226
 Vibration    23          0.750              1.512              1.038
 Vibration    24          0.755              1.500              1.015
 Vibration    25          0.775              1.447              0.924
 Vibration    26          0.791              1.405              0.858
 Vibration    27          0.798              1.388              0.834
 Vibration    28          0.829              1.312              0.732
 Vibration    29          0.855              1.252              0.660
 Vibration    30          0.875              1.205              0.609
 Vibration    31          0.884              1.186              0.590
 Vibration    32          0.910              1.130              0.535
 Vibration    33          0.953              1.041              0.457
 Vibration    34          0.958              1.032              0.450
 Vibration    35          0.976              0.998              0.423

 Optimization completed.
    -- Stationary point found.
 Normal termination of Gaussian 16 at Fri Dec 11 21:39:55 2020.

 ----------------------------------------------------------------------
 # B3LYP/6-311++G(d,p) empiricaldispersion=gd3bj scf=xqc pop=npa geom=c
 heck
 ----------------------------------------------------------------------

 ---------------------------------------
 CID_113636846_JID_8430_Energie_neutraal
 ---------------------------------------
 Structure from the checkpoint file:  "JID_8430.chk"
 Charge =  0 Multiplicity = 1

 SCF Done:  E(RB3LYP) =  -1242.53169899     A.U. after   16 cycles
 Normal termination of Gaussian 16 at Fri Dec 11 21:51:42 2020.

 ----------------------------------------------------------------------
 # B3LYP/6-311++G(d,p) empiricaldispersion=gd3bj scf=xqc pop=npa geom=c
 heck
 ----------------------------------------------------------------------

 -------------------------------------
 CID_113636846_JID_8430_Energie_kation
 -------------------------------------
 Structure from the checkpoint file:  "JID_8430.chk"
 Charge =  1 Multiplicity = 2

 SCF Done:  E(UB3LYP) =  -1242.20248345     A.U. after   27 cycles
 Normal termination of Gaussian 16 at Fri Dec 11 22:21:30 2020.
 Gaussian 16:  ES64L-G16RevA.03 25-Dec-2016

 ----------------------------------------------------------------------
 # B3LYP/6-311++G(d,p) empiricaldispersion=gd3bj scf=xqc pop=npa geom=c
 heck
 ----------------------------------------------------------------------

 ------------------------------------
 CID_113636846_JID_8430_Energie_anion
 ------------------------------------
 Structure from the checkpoint file:  "JID_8430.chk"
 Charge = -1 Multiplicity = 2

                         Standard orientation:
 ---------------------------------------------------------------------
 Center     Atomic      Atomic             Coordinates (Angstroms)
 Number     Number       Type             X           Y           Z
 ---------------------------------------------------------------------
      1          6           0       -4.563672    0.936805   -1.112204
      2          6           0       -3.864137    0.898856    0.248759
      3          6           0       -3.338043   -0.486112    0.627885
      4          7           0       -2.341685   -0.945354   -0.354936
      5         16           0       -1.061535   -1.895691    0.136005
      6          8           0       -0.770143   -1.509898    1.521204
      7          8           0       -1.224005   -3.314622   -0.188492
      8          7           0        0.067829   -1.344090   -0.973390
      9          6           0        0.500642    0.059964   -0.941376
     10          6           0        1.229421    0.538227    0.327851
     11          6           0        2.403617   -0.373710    0.738837
     12          6           0        3.435880   -0.804091   -0.322288
     13          6           0        4.239277    0.359151   -0.918790
     14          6           0        4.385908   -1.843012    0.290693
     15          6           0        1.600910    2.020006    0.177347
     16          6           0        0.408189    2.946072    0.282761
     17          8           0       -0.736852    2.627457    0.523175
     18          8           0        0.769290    4.236591    0.077925
     19          1           0       -3.866674    0.697900   -1.924355
     20          1           0       -4.971324    1.932106   -1.318512
     21          1           0       -5.394702    0.220957   -1.156327
     22          1           0       -3.024888    1.602034    0.264642
     23          1           0       -4.566811    1.211630    1.032599
     24          1           0       -2.831434   -0.443775    1.592955
     25          1           0       -4.161757   -1.209650    0.709055
     26          1           0       -2.722163   -1.300668   -1.227233
     27          1           0        0.820103   -2.026500   -1.027218
     28          1           0        1.140772    0.187792   -1.822256
     29          1           0       -0.394750    0.665379   -1.094365
     30          1           0        0.506240    0.483920    1.145920
     31          1           0        2.941270    0.105510    1.569770
     32          1           0        1.959953   -1.281656    1.164426
     33          1           0        2.906324   -1.297407   -1.152215
     34          1           0        4.706822    0.957343   -0.126473
     35          1           0        5.039253   -0.015408   -1.567671
     36          1           0        3.618406    1.028294   -1.521526
     37          1           0        3.834981   -2.702305    0.689513
     38          1           0        5.101962   -2.213014   -0.451820
     39          1           0        4.958813   -1.403075    1.116858
     40          1           0        2.312138    2.322764    0.956319
     41          1           0        2.100643    2.241754   -0.772215
     42          1           0       -0.045905    4.764071    0.174968
 ---------------------------------------------------------------------

 SCF Done:  E(UB3LYP) =  -1242.52382111     A.U. after   33 cycles
 SCF Done:  E(UB3LYP) =  -1242.52382111     a.u. after    1 cycles

 The electronic state is 2-A.
 Alpha  occ. eigenvalues --  -88.99452 -19.07890 -19.03246 -19.03176 -19.02892
 Alpha  occ. eigenvalues --  -14.25921 -14.25913 -10.22028 -10.12405 -10.11965
 Alpha  occ. eigenvalues --  -10.09873 -10.09355 -10.08982 -10.08138 -10.07997
 Alpha  occ. eigenvalues --  -10.07646 -10.07594 -10.07288  -8.05362  -6.01623
 Alpha  occ. eigenvalues --   -6.01601  -6.01559  -1.04397  -1.02140  -0.93278
 Alpha  occ. eigenvalues --   -0.92510  -0.85544  -0.83459  -0.74194  -0.70620
 Alpha  occ. eigenvalues --   -0.69803  -0.64264  -0.61795  -0.60401  -0.59987
 Alpha  occ. eigenvalues --   -0.55688  -0.53399  -0.50417  -0.49659  -0.47303
 Alpha  occ. eigenvalues --   -0.45896  -0.43889  -0.42122  -0.41498  -0.40597
 Alpha  occ. eigenvalues --   -0.40068  -0.38796  -0.37752  -0.36699  -0.35446
 Alpha  occ. eigenvalues --   -0.35353  -0.34906  -0.34567  -0.34153  -0.33084
 Alpha  occ. eigenvalues --   -0.31437  -0.30971  -0.30710  -0.30276  -0.28962
 Alpha  occ. eigenvalues --   -0.28267  -0.27309  -0.26987  -0.26692  -0.26556
 Alpha  occ. eigenvalues --   -0.25878  -0.25350  -0.24552  -0.24356  -0.23932
 Alpha  occ. eigenvalues --   -0.23521  -0.22752  -0.22355  -0.19757  -0.19205
 Alpha  occ. eigenvalues --   -0.17553   0.03687
 Alpha virt. eigenvalues --    0.05426   0.05718   0.06868   0.07480   0.07698
 Alpha virt. eigenvalues --    0.08024   0.08342   0.08555   0.09739   0.09866
 Alpha virt. eigenvalues --    0.10205   0.10523   0.10850   0.11232   0.11896

  Beta  occ. eigenvalues --  -88.99451 -19.07838 -19.03241 -19.03173 -19.02878
  Beta  occ. eigenvalues --  -14.25913 -14.25896 -10.22026 -10.12400 -10.11948
  Beta  occ. eigenvalues --  -10.09846 -10.09344 -10.08978 -10.08131 -10.07991
  Beta  occ. eigenvalues --  -10.07618 -10.07574 -10.07256  -8.05360  -6.01622
  Beta  occ. eigenvalues --   -6.01599  -6.01558  -1.04385  -1.02076  -0.93222
  Beta  occ. eigenvalues --   -0.92499  -0.85524  -0.83438  -0.74172  -0.70589
  Beta  occ. eigenvalues --   -0.69779  -0.64215  -0.61762  -0.60355  -0.59943
  Beta  occ. eigenvalues --   -0.55650  -0.53336  -0.50372  -0.49586  -0.47264
  Beta  occ. eigenvalues --   -0.45871  -0.43869  -0.42103  -0.41465  -0.40573
  Beta  occ. eigenvalues --   -0.40045  -0.38758  -0.37720  -0.36671  -0.35417
  Beta  occ. eigenvalues --   -0.35325  -0.34879  -0.34543  -0.34125  -0.33061
  Beta  occ. eigenvalues --   -0.31397  -0.30940  -0.30679  -0.30247  -0.28935
  Beta  occ. eigenvalues --   -0.28249  -0.27291  -0.26963  -0.26664  -0.26527
  Beta  occ. eigenvalues --   -0.25860  -0.25327  -0.24532  -0.24321  -0.23898
  Beta  occ. eigenvalues --   -0.23504  -0.22738  -0.22335  -0.19715  -0.19187
  Beta  occ. eigenvalues --   -0.17539
  Beta virt. eigenvalues --    0.05638   0.06035   0.06748   0.07286   0.07889
  Beta virt. eigenvalues --    0.07970   0.08162   0.08494   0.08960   0.10053
  Beta virt. eigenvalues --    0.10063   0.10366   0.10616   0.11097   0.11354

 Mulliken charges and spin densities:
               1          2
     1  C    0.531377  -1.070028
     2  C   -0.568391   0.356745
     3  C   -0.135148  -0.207814
     4  N   -0.282317  -0.041063
     5  S    0.487402  -0.153096
     6  O   -0.215105  -0.001486
     7  O   -0.094595   0.003831
     8  N   -0.296884   0.118962
     9  C   -0.464799  -0.766439
    10  C    0.504695   0.842078
    11  C    0.186657  -1.513297
    12  C   -1.062178   1.722986
    13  C    0.487001  -1.131856
    14  C    0.089539  -0.727528
    15  C    1.062070  -1.752549
    16  C   -0.745855   0.635010
    17  O   -0.243655  -0.024619
    18  O   -0.124255   0.009056
    19  H   -0.146217   0.278892
    20  H   -0.208235   0.359513
    21  H   -0.044312   0.179398
    22  H    0.105551   0.124569
    23  H    0.015178   0.115964
    24  H    0.140402   0.036229
    25  H    0.065276   0.103123
    26  H    0.180905   0.153346
    27  H    0.207602   0.090080
    28  H   -0.450848   0.681831
    29  H    0.500149  -0.255989
    30  H    0.287759   0.013671
    31  H    0.055327   0.119971
    32  H    0.231545  -0.063507
    33  H   -0.080222   0.205890
    34  H    0.010353   0.138616
    35  H   -0.313283   0.458590
    36  H    0.066101   0.049717
    37  H    0.031071   0.106487
    38  H   -0.136458   0.286949
    39  H    0.009853   0.119039
    40  H   -0.090345   0.304090
    41  H   -0.032623   0.270275
    42  H   -0.520090   0.824364
 Sum of Mulliken charges =  -1.00000   1.00000

 Dipole moment (field-independent basis, Debye):
    X=             -1.0610    Y=             -3.8205    Z=              2.0860  Tot=              4.4804
 Quadrupole moment (field-independent basis, Debye-Ang):
   XX=           -192.8894   YY=           -200.4229   ZZ=           -153.8425
   XY=              4.5561   XZ=              2.5785   YZ=              3.6131

 Summary of Natural Population Analysis:

                                       Natural Population
                Natural  -----------------------------------------------
    Atom  No    Charge         Core      Valence    Rydberg      Total
 -----------------------------------------------------------------------
      C    1   -0.28804      0.99967     2.28403    0.00433     3.28804
      C    2   -0.20093      0.99963     2.19243    0.00886     3.20093
      C    3   -0.08943      0.99961     2.07970    0.01012     3.08943
      N    4   -0.43904      0.99974     2.92729    0.01201     3.93904
      S    5    1.16385      4.99933     1.73263    0.10419     6.83615
      O    6   -0.46334      0.99990     3.45829    0.00515     4.46334
      O    7   -0.46225      0.99990     3.45725    0.00509     4.46225
      N    8   -0.42902      0.99975     2.91705    0.01222     3.92902
      C    9   -0.09764      0.99958     2.08463    0.01342     3.09764
      C   10   -0.12773      0.99958     2.11654    0.01162     3.12773
      C   11   -0.18846      0.99960     2.18047    0.00839     3.18846
      C   12   -0.11755      0.99961     2.10807    0.00986     3.11755
      C   13   -0.28527      0.99965     2.27947    0.00615     3.28527
      C   14   -0.28060      0.99965     2.27612    0.00483     3.28060
      C   15   -0.24099      0.99955     2.23209    0.00935     3.24099
      C   16    0.41303      0.99972     1.56281    0.02444     2.58697
      O   17   -0.31084      0.99986     3.30472    0.00626     4.31084
      O   18   -0.34358      0.99988     3.33719    0.00651     4.34358
      H   19    0.09709      0.00000     0.40159    0.00133     0.40291
      H   20    0.10293      0.00000     0.39597    0.00110     0.39707
      H   21    0.09243      0.00000     0.40628    0.00129     0.40757
      H   22    0.11375      0.00000     0.38376    0.00249     0.38625
      H   23    0.09447      0.00000     0.40456    0.00097     0.40553
      H   24    0.11341      0.00000     0.38527    0.00132     0.38659
      H   25    0.08484      0.00000     0.41394    0.00122     0.41516
      H   26    0.19925      0.00000     0.29904    0.00171     0.30075
      H   27    0.19686      0.00000     0.30109    0.00205     0.30314
      H   28    0.10050      0.00000     0.39813    0.00137     0.39950
      H   29    0.11456      0.00000     0.38370    0.00173     0.38544
      H   30    0.11794      0.00000     0.37986    0.00220     0.38206
      H   31    0.09785      0.00000     0.40117    0.00098     0.40215
      H   32    0.10580      0.00000     0.39293    0.00127     0.39420
      H   33    0.08709      0.00000     0.41069    0.00222     0.41291
      H   34    0.09669      0.00000     0.40235    0.00095     0.40331
      H   35    0.10068      0.00000     0.39834    0.00098     0.39932
      H   36    0.09900      0.00000     0.39967    0.00132     0.40100
      H   37    0.09873      0.00000     0.40036    0.00091     0.40127
      H   38    0.09959      0.00000     0.39953    0.00088     0.40041
      H   39    0.09600      0.00000     0.40312    0.00088     0.40400
      H   40    0.11779      0.00000     0.38116    0.00105     0.38221
      H   41    0.11522      0.00000     0.38323    0.00155     0.38478
      H   42    0.24535      0.00000     0.23739    0.01726     0.25465
 =======================================================================
   * Total *   -0.00000     21.99422    53.69395    0.31184    76.00000

 Normal termination of Gaussian 16 at Fri Dec 11 22:57:20 2020.
