 Gaussian 16, Revision A.03,

 -----------------------------------------------------------
 # opt freq B3LYP/6-31G(d) empiricaldispersion=gd3bj scf=xqc
 -----------------------------------------------------------

 ------------------------------
 CID_64081709_JID_8064_neutraal
 ------------------------------
 Symbolic Z-matrix:
 Charge =  0 Multiplicity = 1

 SCF Done:  E(RB3LYP) =  -862.346541073     A.U. after   14 cycles
 SCF Done:  E(RB3LYP) =  -862.350908510     A.U. after   12 cycles
 SCF Done:  E(RB3LYP) =  -862.350671733     A.U. after   12 cycles
 SCF Done:  E(RB3LYP) =  -862.352431988     A.U. after   12 cycles
 SCF Done:  E(RB3LYP) =  -862.353349706     A.U. after   12 cycles
 SCF Done:  E(RB3LYP) =  -862.354005188     A.U. after   11 cycles
 SCF Done:  E(RB3LYP) =  -862.353990695     A.U. after   12 cycles
 SCF Done:  E(RB3LYP) =  -862.354249288     A.U. after   12 cycles
 SCF Done:  E(RB3LYP) =  -862.354349834     A.U. after   11 cycles
 SCF Done:  E(RB3LYP) =  -862.354387783     A.U. after   11 cycles
 SCF Done:  E(RB3LYP) =  -862.354510860     A.U. after    9 cycles
 SCF Done:  E(RB3LYP) =  -862.354515042     A.U. after   10 cycles
 SCF Done:  E(RB3LYP) =  -862.354515712     A.U. after    9 cycles
 SCF Done:  E(RB3LYP) =  -862.354516577     A.U. after    9 cycles
 SCF Done:  E(RB3LYP) =  -862.354516739     A.U. after    7 cycles
 SCF Done:  E(RB3LYP) =  -862.354516667     A.U. after    8 cycles
 Optimization completed.
    -- Stationary point found.
 Normal termination of Gaussian 16 at Fri Dec 11 18:59:12 2020.

 --------------------------------------------------------------------
 #N Geom=AllCheck Guess=TCheck SCRF=Check GenChk RB3LYP/6-31G(d) Freq
 --------------------------------------------------------------------

 Structure from the checkpoint file:  "JID_8064.chk"
 ------------------------------
 CID_64081709_JID_8064_neutraal
 ------------------------------
 Charge =  0 Multiplicity = 1

 SCF Done:  E(RB3LYP) =  -862.354516667     A.U. after    1 cycles

  Exact polarizability: 174.392   1.706 150.090   8.349  -5.510 135.052
 Approx polarizability: 201.012  -0.503 220.912  12.981 -13.943 218.531

                      1                      2                      3
                      A                      A                      A
 Frequencies --     15.8966                22.0125                26.8520
 Red. masses --      5.5150                 3.9250                 6.7566
 Frc consts  --      0.0008                 0.0011                 0.0029
 IR Inten    --      0.0325                 0.3156                 0.8799

                      4                      5                      6
                      A                      A                      A
 Frequencies --     34.1067                40.5980                48.3194
 Red. masses --      4.3233                 3.7983                 4.3606
 Frc consts  --      0.0030                 0.0037                 0.0060
 IR Inten    --      1.1331                 0.4408                 0.6552

                      7                      8                      9
                      A                      A                      A
 Frequencies --     62.2968                80.9507               102.9952
 Red. masses --      3.0180                 4.7773                 4.1846
 Frc consts  --      0.0069                 0.0184                 0.0262
 IR Inten    --      0.6507                 1.1859                 0.2291

                     10                     11                     12
                      A                      A                      A
 Frequencies --    112.0890               143.1871               172.2957
 Red. masses --      3.0878                 2.1737                 3.1699
 Frc consts  --      0.0229                 0.0263                 0.0554
 IR Inten    --      6.0555                 3.9396                 0.7515

                     13                     14                     15
                      A                      A                      A
 Frequencies --    195.2535               196.5740               219.5700
 Red. masses --      2.7505                 2.4960                 2.1356
 Frc consts  --      0.0618                 0.0568                 0.0607
 IR Inten    --      4.0824                 3.0611                 0.5641

                     16                     17                     18
                      A                      A                      A
 Frequencies --    250.2438               276.2954               292.7876
 Red. masses --      1.2785                 2.3852                 2.1870
 Frc consts  --      0.0472                 0.1073                 0.1105
 IR Inten    --      0.3774                 6.3582                 4.3735

                     19                     20                     21
                      A                      A                      A
 Frequencies --    305.2626               313.8733               347.9103
 Red. masses --      2.5180                 2.7080                 2.3271
 Frc consts  --      0.1382                 0.1572                 0.1660
 IR Inten    --      1.4840                 5.1940                 0.5432

                     22                     23                     24
                      A                      A                      A
 Frequencies --    376.5915               401.4208               430.1990
 Red. masses --      2.0565                 2.3010                 1.9854
 Frc consts  --      0.1718                 0.2185                 0.2165
 IR Inten    --      2.4378                 6.4159                 1.4007

                     25                     26                     27
                      A                      A                      A
 Frequencies --    448.0746               488.9972               510.8107
 Red. masses --      2.0517                 2.3074                 2.6323
 Frc consts  --      0.2427                 0.3251                 0.4047
 IR Inten    --      5.2336                11.8612                18.3707

                     28                     29                     30
                      A                      A                      A
 Frequencies --    529.0300               552.5280               566.1024
 Red. masses --      1.7937                 3.2477                 2.9937
 Frc consts  --      0.2958                 0.5842                 0.5653
 IR Inten    --     17.3074                 6.3405                11.3164

                     31                     32                     33
                      A                      A                      A
 Frequencies --    595.1695               628.7854               690.5882
 Red. masses --      3.4732                 3.2051                 1.3525
 Frc consts  --      0.7249                 0.7466                 0.3800
 IR Inten    --     29.8201                11.8928                85.1309

                     34                     35                     36
                      A                      A                      A
 Frequencies --    709.6112               732.5801               757.1449
 Red. masses --      1.9150                 1.8764                 2.1189
 Frc consts  --      0.5681                 0.5933                 0.7157
 IR Inten    --     30.4304                47.0959                13.7021

                     37                     38                     39
                      A                      A                      A
 Frequencies --    770.1693               802.7738               816.4284
 Red. masses --      1.9980                 2.2976                 3.0418
 Frc consts  --      0.6983                 0.8724                 1.1946
 IR Inten    --     19.1499                67.0411                89.0911

                     40                     41                     42
                      A                      A                      A
 Frequencies --    826.2458               854.1006               867.0873
 Red. masses --      2.6679                 1.9800                 1.8471
 Frc consts  --      1.0731                 0.8510                 0.8182
 IR Inten    --     37.4689                12.8845                40.7529

                     43                     44                     45
                      A                      A                      A
 Frequencies --    881.1747               915.8242               947.9617
 Red. masses --      2.1857                 2.1549                 1.9984
 Frc consts  --      0.9999                 1.0649                 1.0580
 IR Inten    --     11.2924                16.4523                 5.8111

                     46                     47                     48
                      A                      A                      A
 Frequencies --    972.3584              1011.5518              1015.2238
 Red. masses --      1.9090                 1.9358                 1.7635
 Frc consts  --      1.0634                 1.1670                 1.0709
 IR Inten    --      2.6128                17.7905                 2.1724

                     49                     50                     51
                      A                      A                      A
 Frequencies --   1033.3958              1036.5090              1064.1312
 Red. masses --      1.6781                 1.6401                 2.0145
 Frc consts  --      1.0559                 1.0382                 1.3440
 IR Inten    --      0.5040                 9.8517                 1.9740

                     52                     53                     54
                      A                      A                      A
 Frequencies --   1077.7101              1117.1275              1120.3117
 Red. masses --      1.7834                 2.1971                 2.3966
 Frc consts  --      1.2204                 1.6155                 1.7722
 IR Inten    --     11.8234                31.4338                28.1524

                     55                     56                     57
                      A                      A                      A
 Frequencies --   1133.5608              1141.1702              1161.6640
 Red. masses --      2.3553                 2.2045                 1.3151
 Frc consts  --      1.7831                 1.6914                 1.0456
 IR Inten    --     49.4944                37.0333                 0.4840

                     58                     59                     60
                      A                      A                      A
 Frequencies --   1170.8737              1177.9650              1195.5148
 Red. masses --      2.1215                 1.4166                 1.3214
 Frc consts  --      1.7136                 1.1581                 1.1127
 IR Inten    --    111.0078                18.2398                31.9616

                     61                     62                     63
                      A                      A                      A
 Frequencies --   1205.2147              1211.7602              1226.0657
 Red. masses --      1.9346                 1.7734                 1.8511
 Frc consts  --      1.6556                 1.5342                 1.6395
 IR Inten    --    125.1855                39.9524                27.4760

                     64                     65                     66
                      A                      A                      A
 Frequencies --   1243.2599              1258.2645              1290.9339
 Red. masses --      1.6400                 1.4976                 1.4667
 Frc consts  --      1.4935                 1.3970                 1.4401
 IR Inten    --     20.3618                17.5591                14.1691

                     67                     68                     69
                      A                      A                      A
 Frequencies --   1321.8222              1331.6051              1336.7337
 Red. masses --      1.2806                 1.4883                 1.5815
 Frc consts  --      1.3183                 1.5549                 1.6650
 IR Inten    --     19.1564                 8.5707                81.9432

                     70                     71                     72
                      A                      A                      A
 Frequencies --   1345.1166              1353.9517              1389.3494
 Red. masses --      1.3747                 1.1289                 1.3566
 Frc consts  --      1.4654                 1.2193                 1.5429
 IR Inten    --     40.0924                 3.3899                 6.6885

                     73                     74                     75
                      A                      A                      A
 Frequencies --   1391.5561              1397.8799              1411.4577
 Red. masses --      1.5570                 1.3069                 1.3623
 Frc consts  --      1.7763                 1.5047                 1.5990
 IR Inten    --      6.4685                34.3364                 2.9794

                     76                     77                     78
                      A                      A                      A
 Frequencies --   1419.3545              1420.2978              1431.1156
 Red. masses --      1.4734                 1.2966                 1.4073
 Frc consts  --      1.7488                 1.5410                 1.6982
 IR Inten    --      9.1428                 5.6553                 2.0594

                     79                     80                     81
                      A                      A                      A
 Frequencies --   1438.5833              1449.4560              1476.8865
 Red. masses --      1.8463                 1.6028                 1.1715
 Frc consts  --      2.2513                 1.9840                 1.5055
 IR Inten    --     47.1874               137.7562                19.1740

                     82                     83                     84
                      A                      A                      A
 Frequencies --   1484.4851              1492.5079              1494.0590
 Red. masses --      1.2235                 1.1003                 1.1761
 Frc consts  --      1.5885                 1.4441                 1.5467
 IR Inten    --     14.3097                13.7852                 5.9822

                     85                     86                     87
                      A                      A                      A
 Frequencies --   1505.3967              1507.1343              1508.2618
 Red. masses --      1.0993                 1.2561                 1.0938
 Frc consts  --      1.4678                 1.6810                 1.4660
 IR Inten    --      5.3013                28.0321                 4.4546

                     88                     89                     90
                      A                      A                      A
 Frequencies --   1518.3011              1523.7024              1526.7369
 Red. masses --      1.0609                 1.0933                 1.1148
 Frc consts  --      1.4410                 1.4954                 1.5311
 IR Inten    --      1.4012                 5.1899                18.2960

                     91                     92                     93
                      A                      A                      A
 Frequencies --   1532.1317              1533.8080              1541.5737
 Red. masses --      1.0856                 1.1263                 1.0944
 Frc consts  --      1.5015                 1.5612                 1.5324
 IR Inten    --     14.5935                 7.7154                 7.0246

                     94                     95                     96
                      A                      A                      A
 Frequencies --   1545.4495              1554.6953              1555.1515
 Red. masses --      1.1700                 1.0776                 1.2094
 Frc consts  --      1.6464                 1.5346                 1.7233
 IR Inten    --     41.2407                 3.2076                87.6115

                     97                     98                     99
                      A                      A                      A
 Frequencies --   1749.3647              1844.6345              2999.1001
 Red. masses --      6.2586                 9.4086                 1.0489
 Frc consts  --     11.2847                18.8623                 5.5588
 IR Inten    --    312.3149               223.7223                59.5095

                    100                    101                    102
                      A                      A                      A
 Frequencies --   3024.2830              3025.4733              3033.2295
 Red. masses --      1.0580                 1.0517                 1.0697
 Frc consts  --      5.7013                 5.6720                 5.7988
 IR Inten    --     14.8423                51.7178                34.1064

                    103                    104                    105
                      A                      A                      A
 Frequencies --   3036.5229              3043.3375              3048.0941
 Red. masses --      1.0643                 1.0717                 1.0670
 Frc consts  --      5.7816                 5.8485                 5.8406
 IR Inten    --      2.3435                61.1423                 5.6741

                    106                    107                    108
                      A                      A                      A
 Frequencies --   3048.6430              3060.1331              3066.9583
 Red. masses --      1.0654                 1.0663                 1.1014
 Frc consts  --      5.8339                 5.8832                 6.1038
 IR Inten    --     60.7474                15.3379                44.7246

                    109                    110                    111
                      A                      A                      A
 Frequencies --   3069.8245              3071.6368              3085.4805
 Red. masses --      1.0931                 1.0864                 1.0688
 Frc consts  --      6.0691                 6.0392                 5.9952
 IR Inten    --     10.6827                74.9367                43.9941

                    112                    113                    114
                      A                      A                      A
 Frequencies --   3091.7349              3091.8400              3093.7962
 Red. masses --      1.0934                 1.0932                 1.0970
 Frc consts  --      6.1578                 6.1572                 6.1862
 IR Inten    --     24.2777                22.6495                48.2157

                    115                    116                    117
                      A                      A                      A
 Frequencies --   3102.2739              3114.2501              3116.4612
 Red. masses --      1.0961                 1.0944                 1.1008
 Frc consts  --      6.2155                 6.2537                 6.2991
 IR Inten    --     35.1378                33.1132                34.0604

                    118                    119                    120
                      A                      A                      A
 Frequencies --   3121.4274              3141.4799              3168.1693
 Red. masses --      1.1043                 1.0939                 1.0983
 Frc consts  --      6.3393                 6.3605                 6.4953
 IR Inten    --     29.2108                12.7515                 6.3779

                    121                    122                    123
                      A                      A                      A
 Frequencies --   3504.3007              3565.9620              3681.6551
 Red. masses --      1.0728                 1.0746                 1.0639
 Frc consts  --      7.7616                 8.0509                 8.4964
 IR Inten    --      8.5020                12.5506                45.6197

 - Thermochemistry -
 -------------------
 Temperature   298.150 Kelvin.  Pressure   1.00000 Atm.
 Atom     1 has atomic number  6 and mass  12.00000

 Molecular mass:   259.18959 amu.
 Principal axes and moments of inertia in atomic units:
                           1         2         3
     Eigenvalues --  2155.21900********************
           X            0.99994   0.00948   0.00493
           Y           -0.00945   0.99994  -0.00576
           Z           -0.00498   0.00571   0.99997
 This molecule is an asymmetric top.
 Rotational symmetry number  1.
 Warning -- assumption of classical behavior for rotation
           may cause significant error
 Rotational temperatures (Kelvin)      0.04019     0.00668     0.00627
 Rotational constants (GHZ):           0.83738     0.13914     0.13056
 Zero-point vibrational energy    1010617.0 (Joules/Mol)
                                  241.54325 (Kcal/Mol)
 Warning -- explicit consideration of  31 degrees of freedom as
           vibrations may cause significant error
 Vibrational temperatures:     22.87    31.67    38.63    49.07    58.41
          (Kelvin)             69.52    89.63   116.47   148.19   161.27
                              206.01   247.90   280.93   282.83   315.91
                              360.05   397.53   421.26   439.20   451.59
                              500.57   541.83   577.56   618.96   644.68
                              703.56   734.94   761.16   794.96   814.50
                              856.32   904.68   993.60  1020.97  1054.02
                             1089.36  1108.10  1155.01  1174.66  1188.78
                             1228.86  1247.55  1267.81  1317.67  1363.91
                             1399.01  1455.40  1460.68  1486.83  1491.31
                             1531.05  1550.58  1607.30  1611.88  1630.94
                             1641.89  1671.38  1684.63  1694.83  1720.08
                             1734.04  1743.45  1764.04  1788.77  1810.36
                             1857.37  1901.81  1915.88  1923.26  1935.32
                             1948.03  1998.96  2002.14  2011.24  2030.77
                             2042.13  2043.49  2059.06  2069.80  2085.44
                             2124.91  2135.84  2147.39  2149.62  2165.93
                             2168.43  2170.05  2184.50  2192.27  2196.63
                             2204.40  2206.81  2217.98  2223.56  2236.86
                             2237.52  2516.95  2654.02  4315.04  4351.27
                             4352.98  4364.14  4368.88  4378.68  4385.53
                             4386.32  4402.85  4412.67  4416.79  4419.40
                             4439.32  4448.32  4448.47  4451.28  4463.48
                             4480.71  4483.89  4491.04  4519.89  4558.29
                             5041.91  5130.62  5297.08

 Zero-point correction=                           0.384924 (Hartree/Particle)
 Thermal correction to Energy=                    0.405688
 Thermal correction to Enthalpy=                  0.406632
 Thermal correction to Gibbs Free Energy=         0.331106
 Sum of electronic and zero-point Energies=           -861.969593
 Sum of electronic and thermal Energies=              -861.948829
 Sum of electronic and thermal Enthalpies=            -861.947885
 Sum of electronic and thermal Free Energies=         -862.023410

                     E (Thermal)             CV                S
                      KCal/Mol        Cal/Mol-Kelvin    Cal/Mol-Kelvin
 Total                  254.573             75.169            158.957
 Electronic               0.000              0.000              0.000
 Translational            0.889              2.981             42.557
 Rotational               0.889              2.981             34.312
 Vibrational            252.796             69.207             82.088
 Vibration     1          0.593              1.986              7.090
 Vibration     2          0.593              1.985              6.444
 Vibration     3          0.593              1.984              6.049
 Vibration     4          0.594              1.983              5.575
 Vibration     5          0.594              1.981              5.230
 Vibration     6          0.595              1.978              4.885
 Vibration     7          0.597              1.972              4.383
 Vibration     8          0.600              1.962              3.868
 Vibration     9          0.605              1.947              3.397
 Vibration    10          0.607              1.939              3.232
 Vibration    11          0.616              1.910              2.761
 Vibration    12          0.626              1.877              2.410
 Vibration    13          0.636              1.846              2.177
 Vibration    14          0.636              1.845              2.165
 Vibration    15          0.647              1.811              1.963
 Vibration    16          0.663              1.762              1.729
 Vibration    17          0.678              1.717              1.556
 Vibration    18          0.688              1.687              1.458
 Vibration    19          0.696              1.664              1.388
 Vibration    20          0.702              1.647              1.342
 Vibration    21          0.726              1.580              1.176
 Vibration    22          0.747              1.520              1.053
 Vibration    23          0.767              1.467              0.957
 Vibration    24          0.791              1.404              0.858
 Vibration    25          0.807              1.365              0.802
 Vibration    26          0.845              1.274              0.686
 Vibration    27          0.866              1.226              0.632
 Vibration    28          0.884              1.186              0.589
 Vibration    29          0.908              1.134              0.539
 Vibration    30          0.922              1.105              0.512
 Vibration    31          0.953              1.042              0.458

                           ! Non-Optimized Parameters !
 Normal termination of Gaussian 16 at Fri Dec 11 19:19:05 2020.

 ----------------------------------------------------------------------
 # B3LYP/6-311++G(d,p) empiricaldispersion=gd3bj scf=xqc pop=npa geom=c
 heck
 ----------------------------------------------------------------------

 --------------------------------------
 CID_64081709_JID_8064_Energie_neutraal
 --------------------------------------
 Structure from the checkpoint file:  "JID_8064.chk"
 Charge =  0 Multiplicity = 1

 SCF Done:  E(RB3LYP) =  -862.619455080     A.U. after   14 cycles
 Normal termination of Gaussian 16 at Fri Dec 11 19:28:39 2020.

 ----------------------------------------------------------------------
 # B3LYP/6-311++G(d,p) empiricaldispersion=gd3bj scf=xqc pop=npa geom=c
 heck
 ----------------------------------------------------------------------

 ------------------------------------
 CID_64081709_JID_8064_Energie_kation
 ------------------------------------
 Structure from the checkpoint file:  "JID_8064.chk"
 Charge =  1 Multiplicity = 2

 SCF Done:  E(UB3LYP) =  -862.335454031     A.U. after   28 cycles
 Normal termination of Gaussian 16 at Fri Dec 11 19:56:07 2020.
 Gaussian 16:  ES64L-G16RevA.03 25-Dec-2016

 ----------------------------------------------------------------------
 # B3LYP/6-311++G(d,p) empiricaldispersion=gd3bj scf=xqc pop=npa geom=c
 heck
 ----------------------------------------------------------------------

 -----------------------------------
 CID_64081709_JID_8064_Energie_anion
 -----------------------------------
 Structure from the checkpoint file:  "JID_8064.chk"
 Charge = -1 Multiplicity = 2

                         Standard orientation:
 ---------------------------------------------------------------------
 Center     Atomic      Atomic             Coordinates (Angstroms)
 Number     Number       Type             X           Y           Z
 ---------------------------------------------------------------------
      1          6           0        4.670006    2.604936   -0.193076
      2          7           0        4.967596    1.204152   -0.480304
      3          6           0        4.870611    0.339908    0.689463
      4          6           0        3.453826    0.073727    1.235107
      5          7           0        2.657679   -0.830341    0.400409
      6          6           0        2.912856   -2.254372    0.543232
      7          6           0        1.867969   -0.297536   -0.586288
      8          8           0        1.963020    0.876934   -0.953877
      9          7           0        0.944131   -1.166460   -1.182318
     10          6           0       -0.050438   -1.882749   -0.364202
     11          6           0       -0.779537   -1.004304    0.663007
     12          6           0       -1.439003    0.249433    0.067534
     13          6           0       -2.458676   -0.017895   -1.050754
     14          6           0       -3.612351   -0.962213   -0.678171
     15          6           0       -4.430771   -0.507435    0.533815
     16          6           0       -5.164238    0.794203    0.296252
     17          8           0       -5.432860    1.273930   -0.783447
     18          8           0       -5.530542    1.381898    1.463014
     19          1           0        5.403388    2.988760    0.526941
     20          1           0        3.659116    2.790077    0.204456
     21          1           0        4.772710    3.185037   -1.115808
     22          1           0        4.291152    0.885089   -1.171806
     23          1           0        5.342127   -0.623463    0.449078
     24          1           0        5.472615    0.786715    1.492295
     25          1           0        3.518715   -0.381619    2.232211
     26          1           0        2.901268    1.010373    1.331001
     27          1           0        2.392680   -2.683958    1.410952
     28          1           0        2.600060   -2.777494   -0.360855
     29          1           0        3.987219   -2.420478    0.677770
     30          1           0        0.503472   -0.646892   -1.934101
     31          1           0       -0.762597   -2.319866   -1.071067
     32          1           0        0.426144   -2.723803    0.146361
     33          1           0       -1.524489   -1.628800    1.174803
     34          1           0       -0.060266   -0.694312    1.431631
     35          1           0       -1.922243    0.806094    0.880863
     36          1           0       -0.656783    0.912134   -0.320353
     37          1           0       -2.879601    0.937817   -1.381036
     38          1           0       -1.946823   -0.436083   -1.928419
     39          1           0       -4.284256   -1.053540   -1.538120
     40          1           0       -3.226734   -1.967824   -0.470019
     41          1           0       -5.195001   -1.257713    0.779354
     42          1           0       -3.816292   -0.403035    1.433486
     43          1           0       -6.019884    2.189018    1.214847
 ---------------------------------------------------------------------

 SCF Done:  E(UB3LYP) =  -862.612550905     A.U. after   32 cycles

 The electronic state is 2-A.
 Alpha  occ. eigenvalues --  -19.08459 -19.03009 -18.99885 -14.25685 -14.23870
 Alpha  occ. eigenvalues --  -14.20848 -10.21994 -10.20711 -10.11893 -10.11675
 Alpha  occ. eigenvalues --  -10.11595 -10.11088 -10.10007 -10.09622 -10.08308
 Alpha  occ. eigenvalues --  -10.07853 -10.07828 -10.07524  -1.02468  -0.96395
 Alpha  occ. eigenvalues --   -0.93556  -0.85705  -0.82895  -0.81244  -0.72893
 Alpha  occ. eigenvalues --   -0.68909  -0.66447  -0.64050  -0.62377  -0.59667
 Alpha  occ. eigenvalues --   -0.58737  -0.54967  -0.53360  -0.50520  -0.47483
 Alpha  occ. eigenvalues --   -0.46332  -0.43036  -0.41972  -0.41527  -0.40442
 Alpha  occ. eigenvalues --   -0.40364  -0.39627  -0.39355  -0.37830  -0.37028
 Alpha  occ. eigenvalues --   -0.36404  -0.36213  -0.34087  -0.33344  -0.33047
 Alpha  occ. eigenvalues --   -0.32733  -0.32022  -0.31467  -0.31161  -0.30607
 Alpha  occ. eigenvalues --   -0.29882  -0.29410  -0.28276  -0.27812  -0.27606
 Alpha  occ. eigenvalues --   -0.27011  -0.26883  -0.24582  -0.24050  -0.23285
 Alpha  occ. eigenvalues --   -0.23162  -0.19908  -0.19756  -0.17176  -0.16371
 Alpha  occ. eigenvalues --   -0.13332   0.03565
 Alpha virt. eigenvalues --    0.05061   0.05967   0.06732   0.07025   0.07385
 Alpha virt. eigenvalues --    0.08014   0.08522   0.08624   0.09355   0.09608
 Alpha virt. eigenvalues --    0.10012   0.10362   0.10779   0.11174   0.11436

  Beta  occ. eigenvalues --  -19.08421 -19.02995 -18.99883 -14.25683 -14.23868
  Beta  occ. eigenvalues --  -14.20847 -10.21977 -10.20709 -10.11879 -10.11654
  Beta  occ. eigenvalues --  -10.11549 -10.11077 -10.10004 -10.09592 -10.08292
  Beta  occ. eigenvalues --  -10.07835 -10.07825 -10.07519  -1.02409  -0.96391
  Beta  occ. eigenvalues --   -0.93509  -0.85696  -0.82885  -0.81237  -0.72864
  Beta  occ. eigenvalues --   -0.68867  -0.66421  -0.64004  -0.62322  -0.59633
  Beta  occ. eigenvalues --   -0.58706  -0.54919  -0.53335  -0.50457  -0.47445
  Beta  occ. eigenvalues --   -0.46288  -0.43001  -0.41939  -0.41505  -0.40414
  Beta  occ. eigenvalues --   -0.40309  -0.39598  -0.39324  -0.37796  -0.36990
  Beta  occ. eigenvalues --   -0.36380  -0.36186  -0.34057  -0.33318  -0.33026
  Beta  occ. eigenvalues --   -0.32696  -0.31987  -0.31434  -0.31137  -0.30584
  Beta  occ. eigenvalues --   -0.29864  -0.29383  -0.28244  -0.27778  -0.27589
  Beta  occ. eigenvalues --   -0.26989  -0.26863  -0.24546  -0.24016  -0.23266
  Beta  occ. eigenvalues --   -0.23131  -0.19896  -0.19732  -0.17164  -0.16360
  Beta  occ. eigenvalues --   -0.13322
  Beta virt. eigenvalues --    0.05710   0.06077   0.06575   0.07063   0.07416
  Beta virt. eigenvalues --    0.07738   0.08203   0.08829   0.08948   0.09462
  Beta virt. eigenvalues --    0.09866   0.10314   0.10537   0.10946   0.11254

 Mulliken charges and spin densities:
               1          2
     1  C   -0.331692  -0.068276
     2  N   -0.120306   0.014328
     3  C   -0.048252  -0.539873
     4  C   -0.035132   0.141157
     5  N   -0.141801   0.204156
     6  C    0.861811  -1.272556
     7  C   -0.243682  -0.339932
     8  O   -0.316304   0.010194
     9  N   -0.090078   0.057452
    10  C    0.048114  -0.600287
    11  C   -0.341148   0.273676
    12  C    0.159879  -0.599868
    13  C    0.155494  -0.153797
    14  C   -0.287016  -0.106218
    15  C    0.417664  -0.646208
    16  C    0.209819  -0.432556
    17  O   -0.280585   0.014982
    18  O   -0.169316   0.052461
    19  H    0.092270   0.028895
    20  H    0.133058   0.005271
    21  H    0.117571   0.015737
    22  H    0.259590   0.004244
    23  H    0.055421   0.118771
    24  H    0.018116   0.112270
    25  H   -0.279061   0.464986
    26  H    0.134921   0.018501
    27  H   -0.460967   0.656101
    28  H   -0.095956   0.282019
    29  H   -0.094521   0.223434
    30  H    0.302767   0.024797
    31  H   -0.177815   0.386203
    32  H   -0.070523   0.214341
    33  H   -0.555306   0.747438
    34  H    0.112517   0.049879
    35  H   -0.073442   0.242694
    36  H    0.236652  -0.029444
    37  H    0.161961   0.018833
    38  H    0.032567   0.060502
    39  H    0.088251   0.109481
    40  H    0.108781   0.034181
    41  H   -0.614041   0.815329
    42  H    0.286475  -0.060139
    43  H   -0.166755   0.446840
 Sum of Mulliken charges =  -1.00000   1.00000

 Dipole moment (field-independent basis, Debye):
    X=              3.9084    Y=              2.7348    Z=             -2.4030  Tot=              5.3413
 Quadrupole moment (field-independent basis, Debye-Ang):
   XX=           -238.1532   YY=           -161.9270   ZZ=           -148.8525
   XY=              9.1029   XZ=              4.4744   YZ=             10.1857

 Summary of Natural Population Analysis:

                                       Natural Population
                Natural  -----------------------------------------------
    Atom  No    Charge         Core      Valence    Rydberg      Total
 -----------------------------------------------------------------------
      C    1   -0.17930      0.99966     2.17257    0.00707     3.17930
      N    2   -0.34208      0.99976     2.83129    0.01104     3.84208
      C    3   -0.09349      0.99962     2.08156    0.01230     3.09349
      C    4   -0.09413      0.99960     2.08330    0.01123     3.09413
      N    5   -0.26722      0.99964     2.75583    0.01174     3.76722
      C    6   -0.17796      0.99963     2.17015    0.00818     3.17796
      C    7    0.40986      0.99965     1.56587    0.02462     2.59014
      O    8   -0.34858      0.99988     3.34405    0.00466     4.34858
      N    9   -0.34025      0.99969     2.83104    0.00952     3.84025
      C   10   -0.09149      0.99961     2.07999    0.01189     3.09149
      C   11   -0.20190      0.99962     2.19367    0.00861     3.20190
      C   12   -0.20015      0.99962     2.19231    0.00821     3.20015
      C   13   -0.19247      0.99962     2.18586    0.00699     3.19247
      C   14   -0.19313      0.99963     2.18373    0.00976     3.19313
      C   15   -0.24274      0.99957     2.23419    0.00898     3.24274
      C   16    0.40938      0.99972     1.56527    0.02563     2.59062
      O   17   -0.30984      0.99987     3.30384    0.00614     4.30984
      O   18   -0.34448      0.99988     3.33823    0.00638     4.34448
      H   19    0.08518      0.00000     0.41380    0.00103     0.41482
      H   20    0.08569      0.00000     0.41299    0.00133     0.41431
      H   21    0.09285      0.00000     0.40634    0.00081     0.40715
      H   22    0.18093      0.00000     0.31602    0.00305     0.31907
      H   23    0.09304      0.00000     0.40546    0.00150     0.40696
      H   24    0.09044      0.00000     0.40859    0.00098     0.40956
      H   25    0.09777      0.00000     0.40092    0.00131     0.40223
      H   26    0.10692      0.00000     0.39191    0.00117     0.39308
      H   27    0.09708      0.00000     0.40068    0.00224     0.40292
      H   28    0.10785      0.00000     0.39081    0.00134     0.39215
      H   29    0.09684      0.00000     0.40185    0.00131     0.40316
      H   30    0.18975      0.00000     0.30819    0.00206     0.31025
      H   31    0.09691      0.00000     0.40190    0.00119     0.40309
      H   32    0.09953      0.00000     0.39888    0.00159     0.40047
      H   33    0.10168      0.00000     0.39688    0.00144     0.39832
      H   34    0.10030      0.00000     0.39826    0.00145     0.39970
      H   35    0.09759      0.00000     0.40136    0.00106     0.40241
      H   36    0.10687      0.00000     0.39182    0.00131     0.39313
      H   37    0.10511      0.00000     0.39383    0.00107     0.39489
      H   38    0.09143      0.00000     0.40748    0.00108     0.40857
      H   39    0.10433      0.00000     0.39467    0.00100     0.39567
      H   40    0.09918      0.00000     0.39964    0.00118     0.40082
      H   41    0.11996      0.00000     0.37812    0.00192     0.38004
      H   42    0.11218      0.00000     0.38645    0.00138     0.38782
      H   43    0.24061      0.00000     0.25271    0.00668     0.25939
 =======================================================================
   * Total *    0.00000     17.99428    52.77231    0.23341    71.00000

 Normal termination of Gaussian 16 at Fri Dec 11 20:28:13 2020.
