 Gaussian 16, Revision A.03,

 -----------------------------------------------------------
 # opt freq B3LYP/6-31G(d) empiricaldispersion=gd3bj scf=xqc
 -----------------------------------------------------------

 ------------------------------
 CID_79274488_JID_7860_neutraal
 ------------------------------
 Symbolic Z-matrix:
 Charge =  0 Multiplicity = 1

 SCF Done:  E(RB3LYP) =  -851.492290955     A.U. after   16 cycles
 SCF Done:  E(RB3LYP) =  -851.515081906     A.U. after   14 cycles
 SCF Done:  E(RB3LYP) =  -851.516182809     A.U. after   14 cycles
 SCF Done:  E(RB3LYP) =  -851.510756524     A.U. after   15 cycles
 SCF Done:  E(RB3LYP) =  -851.514221742     A.U. after   14 cycles
 SCF Done:  E(RB3LYP) =  -851.516886047     A.U. after   11 cycles
 SCF Done:  E(RB3LYP) =  -851.516971832     A.U. after   13 cycles
 SCF Done:  E(RB3LYP) =  -851.517280330     A.U. after   14 cycles
 SCF Done:  E(RB3LYP) =  -851.517359813     A.U. after   13 cycles
 SCF Done:  E(RB3LYP) =  -851.516991901     A.U. after   13 cycles
 SCF Done:  E(RB3LYP) =  -851.517682185     A.U. after   12 cycles
 SCF Done:  E(RB3LYP) =  -851.517634142     A.U. after   12 cycles
 SCF Done:  E(RB3LYP) =  -851.517699780     A.U. after   11 cycles
 SCF Done:  E(RB3LYP) =  -851.517702014     A.U. after    9 cycles
 SCF Done:  E(RB3LYP) =  -851.517702351     A.U. after    9 cycles
 SCF Done:  E(RB3LYP) =  -851.517702400     A.U. after    8 cycles
 Optimization completed.
    -- Stationary point found.
 Normal termination of Gaussian 16 at Mon Dec 14 13:21:10 2020.

 --------------------------------------------------------------------
 #N Geom=AllCheck Guess=TCheck SCRF=Check GenChk RB3LYP/6-31G(d) Freq
 --------------------------------------------------------------------

 Structure from the checkpoint file:  "JID_7860.chk"
 ------------------------------
 CID_79274488_JID_7860_neutraal
 ------------------------------
 Charge =  0 Multiplicity = 1

 SCF Done:  E(RB3LYP) =  -851.517702400     A.U. after    1 cycles

  Exact polarizability: 192.124   8.443 145.949  -7.713   8.688  81.546
 Approx polarizability: 286.514   4.065 250.818 -16.775  31.884 137.714

                      1                      2                      3
                      A                      A                      A
 Frequencies --     27.7360                36.6349                44.0384
 Red. masses --      9.1079                 5.6342                 7.0326
 Frc consts  --      0.0041                 0.0045                 0.0080
 IR Inten    --      0.4700                 0.3015                 1.3880

                      4                      5                      6
                      A                      A                      A
 Frequencies --     51.5189                55.8096                91.6673
 Red. masses --      7.7999                 7.7998                 5.2621
 Frc consts  --      0.0122                 0.0143                 0.0261
 IR Inten    --      0.0897                 0.4875                 1.0273

                      7                      8                      9
                      A                      A                      A
 Frequencies --     98.8520               172.4169               177.9827
 Red. masses --      6.8501                 5.1123                 5.4563
 Frc consts  --      0.0394                 0.0895                 0.1018
 IR Inten    --      1.2570                 1.1440                 0.7173

                     10                     11                     12
                      A                      A                      A
 Frequencies --    249.0455               280.4864               307.3652
 Red. masses --      6.3747                 6.4484                 4.5587
 Frc consts  --      0.2330                 0.2989                 0.2537
 IR Inten    --      4.1192                 2.8175                 1.1096

                     13                     14                     15
                      A                      A                      A
 Frequencies --    327.1696               343.9183               385.6508
 Red. masses --      4.4892                 5.8509                 3.8315
 Frc consts  --      0.2831                 0.4077                 0.3357
 IR Inten    --      2.5696                 4.8860                 5.5421

                     16                     17                     18
                      A                      A                      A
 Frequencies --    428.2872               439.7745               468.9539
 Red. masses --      3.9026                 4.4214                 3.1809
 Frc consts  --      0.4218                 0.5038                 0.4121
 IR Inten    --      5.2822                 0.6663                 0.8203

                     19                     20                     21
                      A                      A                      A
 Frequencies --    502.9711               521.0665               542.7396
 Red. masses --      2.0641                 2.9060                 6.7731
 Frc consts  --      0.3077                 0.4649                 1.1755
 IR Inten    --     19.4537                 1.5355                 8.7965

                     22                     23                     24
                      A                      A                      A
 Frequencies --    584.4048               620.7430               645.3778
 Red. masses --      3.8153                 1.2046                 2.3017
 Frc consts  --      0.7677                 0.2735                 0.5648
 IR Inten    --     51.6312                40.9712                10.6119

                     25                     26                     27
                      A                      A                      A
 Frequencies --    648.6601               657.2446               686.2699
 Red. masses --      3.6066                 2.0767                 3.3557
 Frc consts  --      0.8941                 0.5285                 0.9312
 IR Inten    --     13.3400                25.6950                46.7145

                     28                     29                     30
                      A                      A                      A
 Frequencies --    698.8702               734.6419               778.4003
 Red. masses --      2.1132                 4.9843                 6.3869
 Frc consts  --      0.6081                 1.5849                 2.2801
 IR Inten    --     86.1526                 5.2630                20.7533

                     31                     32                     33
                      A                      A                      A
 Frequencies --    798.1927               840.7013               850.7464
 Red. masses --      6.0526                 1.6725                 4.5591
 Frc consts  --      2.2720                 0.6965                 1.9442
 IR Inten    --     17.5831                23.7106                 6.1904

                     34                     35                     36
                      A                      A                      A
 Frequencies --    871.4552               938.3068               979.6907
 Red. masses --      9.2625                 3.7843                 1.4668
 Frc consts  --      4.1445                 1.9630                 0.8294
 IR Inten    --     18.3570                13.4357                 3.2141

                     37                     38                     39
                      A                      A                      A
 Frequencies --    981.4563               985.0034              1000.6187
 Red. masses --      1.9193                 2.9052                 1.3281
 Frc consts  --      1.0893                 1.6607                 0.7835
 IR Inten    --     18.4307                56.5911                 2.9351

                     40                     41                     42
                      A                      A                      A
 Frequencies --   1030.3544              1099.7255              1150.3480
 Red. masses --      3.4147                 2.9327                 1.7761
 Frc consts  --      2.1359                 2.0897                 1.3848
 IR Inten    --      7.4943                 6.1341                96.4443

                     43                     44                     45
                      A                      A                      A
 Frequencies --   1191.9471              1196.3541              1214.3498
 Red. masses --      2.2556                 2.2718                 1.9453
 Frc consts  --      1.8881                 1.9158                 1.6901
 IR Inten    --    198.6769                26.0725                43.3461

                     46                     47                     48
                      A                      A                      A
 Frequencies --   1294.2510              1296.0276              1346.3344
 Red. masses --      1.3704                 1.4733                 1.5125
 Frc consts  --      1.3525                 1.4580                 1.6153
 IR Inten    --     86.6514                 7.3618                83.6957

                     49                     50                     51
                      A                      A                      A
 Frequencies --   1364.1027              1376.2021              1387.2821
 Red. masses --      3.8327                 1.6909                 2.5566
 Frc consts  --      4.2019                 1.8868                 2.8989
 IR Inten    --     65.3222                51.0746               607.1040

                     52                     53                     54
                      A                      A                      A
 Frequencies --   1391.6771              1406.7394              1435.3408
 Red. masses --      2.1569                 2.0165                 2.5586
 Frc consts  --      2.4613                 2.3511                 3.1057
 IR Inten    --    148.4228                64.2428                 2.8028

                     55                     56                     57
                      A                      A                      A
 Frequencies --   1469.1718              1475.2862              1510.9252
 Red. masses --      1.4660                 1.7226                 1.2549
 Frc consts  --      1.8644                 2.2090                 1.6878
 IR Inten    --     32.6397                39.4785                 5.3444

                     58                     59                     60
                      A                      A                      A
 Frequencies --   1554.4103              1596.8523              1648.9229
 Red. masses --      2.9544                 7.8484                 9.2711
 Frc consts  --      4.2058                11.7913                14.8519
 IR Inten    --    206.2503                57.8834               209.9274

                     61                     62                     63
                      A                      A                      A
 Frequencies --   1660.9536              1863.8247              2247.0185
 Red. masses --      6.5675                10.2312                 5.9091
 Frc consts  --     10.6749                20.9406                17.5785
 IR Inten    --    414.5012               313.3238                 2.6616

                     64                     65                     66
                      A                      A                      A
 Frequencies --   3047.5072              3091.0192              3106.5568
 Red. masses --      1.0672                 1.0711                 1.0922
 Frc consts  --      5.8395                 6.0297                 6.2101
 IR Inten    --     17.9366                10.8261                11.8026

                     67                     68                     69
                      A                      A                      A
 Frequencies --   3168.9858              3227.4286              3240.0646
 Red. masses --      1.0967                 1.0918                 1.0890
 Frc consts  --      6.4893                 6.7005                 6.7356
 IR Inten    --      0.9136                 0.9649                 0.9754

                     70                     71                     72
                      A                      A                      A
 Frequencies --   3253.7681              3493.2953              3687.9536
 Red. masses --      1.0951                 1.1621                 1.0641
 Frc consts  --      6.8307                 8.3553                 8.5273
 IR Inten    --      1.6052                62.5571                63.5656

 - Thermochemistry -
 -------------------
 Temperature   298.150 Kelvin.  Pressure   1.00000 Atm.
 Atom     1 has atomic number  6 and mass  12.00000

 Molecular mass:   235.05931 amu.
 Principal axes and moments of inertia in atomic units:
                           1         2         3
     Eigenvalues --  2681.357546203.761668279.54818
           X            0.99997   0.00743   0.00010
           Y           -0.00743   0.99997   0.00092
           Z           -0.00010  -0.00092   1.00000
 This molecule is an asymmetric top.
 Rotational symmetry number  1.
 Warning -- assumption of classical behavior for rotation
           may cause significant error
 Rotational temperatures (Kelvin)      0.03230     0.01396     0.01046
 Rotational constants (GHZ):           0.67307     0.29091     0.21798
 Zero-point vibrational energy     498722.3 (Joules/Mol)
                                  119.19748 (Kcal/Mol)
 Warning -- explicit consideration of  23 degrees of freedom as
           vibrations may cause significant error
 Vibrational temperatures:     39.91    52.71    63.36    74.12    80.30
          (Kelvin)            131.89   142.23   248.07   256.08   358.32
                              403.56   442.23   470.72   494.82   554.87
                              616.21   632.74   674.72   723.66   749.70
                              780.88   840.83   893.11   928.55   933.28
                              945.63   987.39  1005.52  1056.99  1119.94
                             1148.42  1209.58  1224.03  1253.83  1350.01
                             1409.56  1412.10  1417.20  1439.67  1482.45
                             1582.26  1655.09  1714.95  1721.29  1747.18
                             1862.14  1864.69  1937.07  1962.64  1980.05
                             1995.99  2002.31  2023.98  2065.14  2113.81
                             2122.61  2173.88  2236.45  2297.51  2372.43
                             2389.74  2681.63  3232.96  4384.68  4447.29
                             4469.64  4559.46  4643.55  4661.73  4681.45
                             5026.07  5306.14

 Zero-point correction=                           0.189953 (Hartree/Particle)
 Thermal correction to Energy=                    0.205419
 Thermal correction to Enthalpy=                  0.206363
 Thermal correction to Gibbs Free Energy=         0.144325
 Sum of electronic and zero-point Energies=           -851.327749
 Sum of electronic and thermal Energies=              -851.312283
 Sum of electronic and thermal Enthalpies=            -851.311339
 Sum of electronic and thermal Free Energies=         -851.373377

                     E (Thermal)             CV                S
                      KCal/Mol        Cal/Mol-Kelvin    Cal/Mol-Kelvin
 Total                  128.902             56.430            130.570
 Electronic               0.000              0.000              0.000
 Translational            0.889              2.981             42.266
 Rotational               0.889              2.981             33.287
 Vibrational            127.125             50.468             55.017
 Vibration     1          0.593              1.984              5.985
 Vibration     2          0.594              1.982              5.433
 Vibration     3          0.595              1.980              5.069
 Vibration     4          0.596              1.977              4.758
 Vibration     5          0.596              1.975              4.600
 Vibration     6          0.602              1.955              3.624
 Vibration     7          0.604              1.950              3.477
 Vibration     8          0.626              1.876              2.409
 Vibration     9          0.628              1.869              2.349
 Vibration    10          0.662              1.764              1.737
 Vibration    11          0.680              1.710              1.531
 Vibration    12          0.697              1.660              1.376
 Vibration    13          0.711              1.621              1.274
 Vibration    14          0.723              1.588              1.194
 Vibration    15          0.754              1.501              1.017
 Vibration    16          0.790              1.409              0.864
 Vibration    17          0.800              1.383              0.827
 Vibration    18          0.826              1.319              0.740
 Vibration    19          0.858              1.243              0.651
 Vibration    20          0.876              1.203              0.607
 Vibration    21          0.898              1.156              0.559
 Vibration    22          0.941              1.065              0.477
 Vibration    23          0.981              0.988              0.415

                           ! Non-Optimized Parameters !
 Normal termination of Gaussian 16 at Mon Dec 14 13:29:55 2020.

 ----------------------------------------------------------------------
 # B3LYP/6-311++G(d,p) empiricaldispersion=gd3bj scf=xqc pop=npa geom=c
 heck
 ----------------------------------------------------------------------

 --------------------------------------
 CID_79274488_JID_7860_Energie_neutraal
 --------------------------------------
 Structure from the checkpoint file:  "JID_7860.chk"
 Charge =  0 Multiplicity = 1

 SCF Done:  E(RB3LYP) =  -851.770982187     A.U. after   16 cycles
 Normal termination of Gaussian 16 at Mon Dec 14 13:33:49 2020.

 ----------------------------------------------------------------------
 # B3LYP/6-311++G(d,p) empiricaldispersion=gd3bj scf=xqc pop=npa geom=c
 heck
 ----------------------------------------------------------------------

 ------------------------------------
 CID_79274488_JID_7860_Energie_kation
 ------------------------------------
 Structure from the checkpoint file:  "JID_7860.chk"
 Charge =  1 Multiplicity = 2

 SCF Done:  E(UB3LYP) =  -851.460256396     A.U. after   25 cycles
 Normal termination of Gaussian 16 at Mon Dec 14 13:42:11 2020.
 Gaussian 16:  ES64L-G16RevA.03 25-Dec-2016

 ----------------------------------------------------------------------
 # B3LYP/6-311++G(d,p) empiricaldispersion=gd3bj scf=xqc pop=npa geom=c
 heck
 ----------------------------------------------------------------------

 -----------------------------------
 CID_79274488_JID_7860_Energie_anion
 -----------------------------------
 Structure from the checkpoint file:  "JID_7860.chk"
 Charge = -1 Multiplicity = 2

                         Standard orientation:
 ---------------------------------------------------------------------
 Center     Atomic      Atomic             Coordinates (Angstroms)
 Number     Number       Type             X           Y           Z
 ---------------------------------------------------------------------
      1          6           0        2.456783    3.760671   -0.613932
      2          6           0        2.428498    2.673199   -0.092435
      3          6           0        2.375058    1.355472    0.549724
      4          7           0        1.641621    0.357371   -0.226720
      5          6           0        2.374580   -0.749184   -0.806097
      6          6           0        2.539145   -1.963814    0.101750
      7          8           0        2.918611   -3.043713   -0.281677
      8          8           0        2.259652   -1.683816    1.396655
      9          6           0        0.274588    0.286652   -0.150638
     10          7           0       -0.283969   -0.843397   -0.632074
     11          6           0       -1.605252   -0.974521   -0.575300
     12          6           0       -2.432654    0.005185   -0.029899
     13          6           0       -1.868523    1.188435    0.457799
     14          6           0       -0.499377    1.342792    0.395745
     15          7           0       -3.868194   -0.196349    0.020219
     16          8           0       -4.316796   -1.253799   -0.429142
     17          8           0       -4.555620    0.703294    0.510790
     18          1           0        2.486053    4.717260   -1.084972
     19          1           0        3.388591    0.974492    0.705842
     20          1           0        1.929224    1.439756    1.549194
     21          1           0        1.878634   -1.098545   -1.711419
     22          1           0        3.374121   -0.401482   -1.085954
     23          1           0        2.397074   -2.515353    1.888446
     24          1           0       -2.033629   -1.890681   -0.968507
     25          1           0       -2.511928    1.960359    0.861902
     26          1           0       -0.038190    2.265779    0.722186
 ---------------------------------------------------------------------

 SCF Done:  E(UB3LYP) =  -851.805765547     A.U. after   27 cycles

 The electronic state is 2-A.
 Alpha  occ. eigenvalues --  -19.09572 -19.03669 -18.93796 -18.93707 -14.31476
 Alpha  occ. eigenvalues --  -14.23621 -14.17909 -10.22571 -10.15097 -10.13146
 Alpha  occ. eigenvalues --  -10.11158 -10.10247 -10.09213 -10.06892 -10.05765
 Alpha  occ. eigenvalues --  -10.05251 -10.04877  -1.03410  -1.01798  -0.94564
 Alpha  occ. eigenvalues --   -0.87705  -0.84632  -0.80312  -0.70830  -0.68078
 Alpha  occ. eigenvalues --   -0.66945  -0.64315  -0.60660  -0.54967  -0.52750
 Alpha  occ. eigenvalues --   -0.50334  -0.46986  -0.45365  -0.43690  -0.42062
 Alpha  occ. eigenvalues --   -0.41734  -0.39832  -0.38390  -0.37471  -0.36421
 Alpha  occ. eigenvalues --   -0.35328  -0.34484  -0.33980  -0.32658  -0.31444
 Alpha  occ. eigenvalues --   -0.31162  -0.30593  -0.28301  -0.27965  -0.26117
 Alpha  occ. eigenvalues --   -0.24870  -0.22021  -0.21017  -0.20367  -0.18333
 Alpha  occ. eigenvalues --   -0.16280  -0.14636  -0.12988  -0.11509  -0.10066
 Alpha  occ. eigenvalues --   -0.09690   0.03031
 Alpha virt. eigenvalues --    0.05662   0.06797   0.07403   0.08264   0.08600
 Alpha virt. eigenvalues --    0.09174   0.09497   0.10201   0.11192   0.11859
 Alpha virt. eigenvalues --    0.12397   0.12812   0.13402   0.13991   0.14614

  Beta  occ. eigenvalues --  -19.09569 -19.03669 -18.93316 -18.93197 -14.30814
  Beta  occ. eigenvalues --  -14.23551 -14.18014 -10.22556 -10.15096 -10.13149
  Beta  occ. eigenvalues --  -10.10858 -10.10240 -10.09210 -10.06741 -10.05717
  Beta  occ. eigenvalues --  -10.05350 -10.04678  -1.03400  -1.00700  -0.94559
  Beta  occ. eigenvalues --   -0.87504  -0.83693  -0.80217  -0.70789  -0.67819
  Beta  occ. eigenvalues --   -0.66747  -0.64166  -0.60370  -0.54697  -0.52325
  Beta  occ. eigenvalues --   -0.50107  -0.46806  -0.45023  -0.43533  -0.42009
  Beta  occ. eigenvalues --   -0.41694  -0.39785  -0.38274  -0.37422  -0.35840
  Beta  occ. eigenvalues --   -0.35204  -0.33769  -0.32621  -0.31580  -0.31265
  Beta  occ. eigenvalues --   -0.31093  -0.29938  -0.27955  -0.27347  -0.25978
  Beta  occ. eigenvalues --   -0.24863  -0.21844  -0.20977  -0.20343  -0.17636
  Beta  occ. eigenvalues --   -0.15764  -0.14639  -0.11081  -0.09647  -0.09216
  Beta  occ. eigenvalues --   -0.09164
  Beta virt. eigenvalues --    0.05598   0.06749   0.07431   0.08257   0.08528
  Beta virt. eigenvalues --    0.09157   0.09534   0.10157   0.10573   0.11224
  Beta virt. eigenvalues --    0.11826   0.12388   0.12858   0.13341   0.14024

 Mulliken charges and spin densities:
               1          2
     1  C   -0.534562   0.008039
     2  C    0.635312  -0.056997
     3  C   -0.720241  -0.020055
     4  N    0.503289   0.031428
     5  C   -0.351224  -0.007482
     6  C    0.068602   0.002965
     7  O   -0.276599   0.000749
     8  O   -0.204149   0.002972
     9  C   -0.994020   0.188798
    10  N   -0.160783  -0.053764
    11  C    0.086075   0.151266
    12  C   -0.415022  -0.057760
    13  C    0.110949   0.192709
    14  C    0.223552  -0.076161
    15  N   -0.286179   0.216201
    16  O   -0.217803   0.196444
    17  O   -0.195618   0.188045
    18  H    0.156936   0.009778
    19  H    0.127596   0.036479
    20  H    0.160702   0.038387
    21  H    0.268817  -0.000950
    22  H    0.155387   0.008405
    23  H    0.286688   0.010144
    24  H    0.251478  -0.008770
    25  H    0.221545  -0.011031
    26  H    0.099270   0.010161
 Sum of Mulliken charges =  -1.00000   1.00000

 Dipole moment (field-independent basis, Debye):
    X=             14.1419    Y=              2.7713    Z=              1.4447  Tot=             14.4831
 Quadrupole moment (field-independent basis, Debye-Ang):
   XX=           -182.1300   YY=           -115.4450   ZZ=           -101.3981
   XY=              1.0740   XZ=              4.1180   YZ=             -8.4902

 Summary of Natural Population Analysis:

                                       Natural Population
                Natural  -----------------------------------------------
    Atom  No    Charge         Core      Valence    Rydberg      Total
 -----------------------------------------------------------------------
      C    1   -0.12436      0.99926     2.12186    0.00324     3.12436
      C    2   -0.00053      0.99936     1.99440    0.00676     3.00053
      C    3   -0.12289      0.99955     2.11286    0.01048     3.12289
      N    4   -0.24023      0.99963     2.72932    0.01129     3.74023
      C    5   -0.13282      0.99956     2.12178    0.01147     3.13282
      C    6    0.40717      0.99974     1.56765    0.02544     2.59283
      O    7   -0.30918      0.99987     3.30278    0.00653     4.30918
      O    8   -0.34153      0.99987     3.33499    0.00667     4.34153
      C    9    0.25101      0.99953     1.73357    0.01589     2.74899
      N   10   -0.29164      0.99968     2.78286    0.00910     3.79164
      C   11    0.07214      0.99956     1.91470    0.01360     2.92786
      C   12    0.00812      0.99941     1.97746    0.01502     2.99188
      C   13   -0.03193      0.99954     2.02282    0.00958     3.03193
      C   14   -0.17751      0.99954     2.17041    0.00756     3.17751
      N   15    0.30902      0.99971     2.16515    0.02612     3.19098
      O   16   -0.19382      0.99990     3.18634    0.00757     4.19382
      O   17   -0.19989      0.99990     3.19230    0.00769     4.19989
      H   18    0.11031      0.00000     0.38873    0.00097     0.38969
      H   19    0.10912      0.00000     0.38946    0.00142     0.39088
      H   20    0.11418      0.00000     0.38370    0.00212     0.38582
      H   21    0.12815      0.00000     0.37083    0.00102     0.37185
      H   22    0.10491      0.00000     0.39409    0.00100     0.39509
      H   23    0.23715      0.00000     0.25856    0.00429     0.26285
      H   24    0.10153      0.00000     0.39726    0.00121     0.39847
      H   25    0.11259      0.00000     0.38629    0.00112     0.38741
      H   26    0.10094      0.00000     0.39760    0.00146     0.39906
 =======================================================================
   * Total *   -0.00000     16.99362    43.79776    0.20862    61.00000

 Normal termination of Gaussian 16 at Mon Dec 14 13:51:39 2020.
