 Gaussian 16, Revision A.03,

 -----------------------------------------------------------
 # opt freq B3LYP/6-31G(d) empiricaldispersion=gd3bj scf=xqc
 -----------------------------------------------------------

 ----------------------------
 CID_437023_JID_7003_neutraal
 ----------------------------
 Symbolic Z-matrix:
 Charge =  0 Multiplicity = 1

 SCF Done:  E(RB3LYP) =  -730.326561569     A.U. after   15 cycles
 SCF Done:  E(RB3LYP) =  -730.331658958     A.U. after   13 cycles
 SCF Done:  E(RB3LYP) =  -730.332139444     A.U. after   12 cycles
 SCF Done:  E(RB3LYP) =  -730.332392783     A.U. after   12 cycles
 SCF Done:  E(RB3LYP) =  -730.332932831     A.U. after   11 cycles
 SCF Done:  E(RB3LYP) =  -730.332906025     A.U. after   11 cycles
 SCF Done:  E(RB3LYP) =  -730.332971467     A.U. after   11 cycles
 SCF Done:  E(RB3LYP) =  -730.332988255     A.U. after    9 cycles
 SCF Done:  E(RB3LYP) =  -730.332991400     A.U. after    9 cycles
 SCF Done:  E(RB3LYP) =  -730.332994236     A.U. after    9 cycles
 SCF Done:  E(RB3LYP) =  -730.332994751     A.U. after    8 cycles
 SCF Done:  E(RB3LYP) =  -730.332995582     A.U. after    8 cycles
 SCF Done:  E(RB3LYP) =  -730.332996343     A.U. after    9 cycles
 SCF Done:  E(RB3LYP) =  -730.332996842     A.U. after    8 cycles
 SCF Done:  E(RB3LYP) =  -730.332997039     A.U. after    7 cycles
 Optimization completed.
    -- Stationary point found.
 Normal termination of Gaussian 16 at Sun Dec 13 20:12:14 2020.

 --------------------------------------------------------------------
 #N Geom=AllCheck Guess=TCheck SCRF=Check GenChk RB3LYP/6-31G(d) Freq
 --------------------------------------------------------------------

 Structure from the checkpoint file:  "JID_7003.chk"
 ----------------------------
 CID_437023_JID_7003_neutraal
 ----------------------------
 Charge =  0 Multiplicity = 1

 SCF Done:  E(RB3LYP) =  -730.332997039     A.U. after    1 cycles

  Exact polarizability: 184.398   2.404 148.536  -6.562  12.945 128.131
 Approx polarizability: 259.599  -1.571 235.898 -20.963  36.946 199.321

                      1                      2                      3
                      A                      A                      A
 Frequencies --     39.4754                50.2784                56.1168
 Red. masses --      6.5506                 4.2588                 3.2327
 Frc consts  --      0.0060                 0.0063                 0.0060
 IR Inten    --      1.9005                 1.1903                 0.9984

                      4                      5                      6
                      A                      A                      A
 Frequencies --     91.8958               116.6750               180.9926
 Red. masses --      3.4501                 3.5069                 3.0632
 Frc consts  --      0.0172                 0.0281                 0.0591
 IR Inten    --      0.3541                 0.7416                 0.6608

                      7                      8                      9
                      A                      A                      A
 Frequencies --    228.0632               237.6790               248.9303
 Red. masses --      1.9932                 2.1705                 1.4928
 Frc consts  --      0.0611                 0.0722                 0.0545
 IR Inten    --      2.5904                 1.8992                 0.2756

                     10                     11                     12
                      A                      A                      A
 Frequencies --    256.0379               282.3543               303.5042
 Red. masses --      1.3757                 2.2078                 3.9433
 Frc consts  --      0.0531                 0.1037                 0.2140
 IR Inten    --      0.0683                 3.2821                 5.5664

                     13                     14                     15
                      A                      A                      A
 Frequencies --    311.8257               342.4013               358.5710
 Red. masses --      2.8022                 2.9330                 1.5878
 Frc consts  --      0.1605                 0.2026                 0.1203
 IR Inten    --      1.8365                 3.4116                 1.3885

                     16                     17                     18
                      A                      A                      A
 Frequencies --    373.3622               384.0742               404.3849
 Red. masses --      2.3543                 2.1976                 2.7354
 Frc consts  --      0.1934                 0.1910                 0.2636
 IR Inten    --      4.9641                 4.7390                 4.7608

                     19                     20                     21
                      A                      A                      A
 Frequencies --    422.3738               473.4190               507.4759
 Red. masses --      3.0319                 3.4602                 3.2860
 Frc consts  --      0.3187                 0.4569                 0.4986
 IR Inten    --      0.0755                 6.5414                 5.1972

                     22                     23                     24
                      A                      A                      A
 Frequencies --    512.8689               570.1576               577.3365
 Red. masses --      2.7186                 3.3736                 2.9791
 Frc consts  --      0.4213                 0.6462                 0.5851
 IR Inten    --      2.4633                 4.2519                10.8962

                     25                     26                     27
                      A                      A                      A
 Frequencies --    601.0044               618.0252               637.6800
 Red. masses --      3.5901                 2.7767                 6.2278
 Frc consts  --      0.7640                 0.6249                 1.4921
 IR Inten    --      1.5727                22.1263                 0.8747

                     28                     29                     30
                      A                      A                      A
 Frequencies --    669.5994               699.6906               721.6868
 Red. masses --      3.5567                 3.4518                 1.7363
 Frc consts  --      0.9396                 0.9956                 0.5328
 IR Inten    --      8.0733                 0.6223                20.9537

                     31                     32                     33
                      A                      A                      A
 Frequencies --    777.4818               792.1872               831.3626
 Red. masses --      1.9494                 2.2265                 2.4054
 Frc consts  --      0.6943                 0.8233                 0.9795
 IR Inten    --     56.3851                73.7693                 9.2497

                     34                     35                     36
                      A                      A                      A
 Frequencies --    867.5370               885.8111               909.1072
 Red. masses --      1.2641                 2.3511                 2.2543
 Frc consts  --      0.5606                 1.0869                 1.0977
 IR Inten    --      0.4968                25.9191                 3.5407

                     37                     38                     39
                      A                      A                      A
 Frequencies --    930.7899               944.5179               952.5746
 Red. masses --      1.7594                 1.8424                 1.6179
 Frc consts  --      0.8981                 0.9684                 0.8650
 IR Inten    --     17.2809                10.4798                18.4954

                     40                     41                     42
                      A                      A                      A
 Frequencies --    970.7943               978.3787               988.6181
 Red. masses --      2.1621                 1.3429                 1.9732
 Frc consts  --      1.2005                 0.7574                 1.1363
 IR Inten    --      4.6421                 0.1927                 2.4600

                     43                     44                     45
                      A                      A                      A
 Frequencies --   1004.6352              1023.8415              1028.6499
 Red. masses --      1.2806                 6.2155                 1.6014
 Frc consts  --      0.7615                 3.8388                 0.9983
 IR Inten    --      1.5176                 0.8667                22.0799

                     46                     47                     48
                      A                      A                      A
 Frequencies --   1048.5928              1062.3981              1066.5019
 Red. masses --      1.4304                 2.3671                 1.8464
 Frc consts  --      0.9266                 1.5741                 1.2374
 IR Inten    --      4.2182                 8.4365                 3.5357

                     49                     50                     51
                      A                      A                      A
 Frequencies --   1067.5020              1117.6123              1127.1806
 Red. masses --      2.1185                 1.6105                 1.9549
 Frc consts  --      1.4224                 1.1852                 1.4634
 IR Inten    --      1.8005                 2.1750                 1.4244

                     52                     53                     54
                      A                      A                      A
 Frequencies --   1151.7090              1162.6070              1184.1953
 Red. masses --      3.8787                 3.6088                 2.2806
 Frc consts  --      3.0312                 2.8740                 1.8843
 IR Inten    --     19.1843                40.6682                13.1902

                     55                     56                     57
                      A                      A                      A
 Frequencies --   1194.4327              1214.1958              1221.0765
 Red. masses --      1.0986                 2.5731                 1.1535
 Frc consts  --      0.9234                 2.2351                 1.0133
 IR Inten    --      0.1109                22.4142                 7.3264

                     58                     59                     60
                      A                      A                      A
 Frequencies --   1238.8327              1246.6615              1261.2350
 Red. masses --      2.1856                 2.9628                 1.3150
 Frc consts  --      1.9763                 2.7130                 1.2324
 IR Inten    --      5.5326                27.7491                81.7516

                     61                     62                     63
                      A                      A                      A
 Frequencies --   1299.8606              1338.0265              1367.7082
 Red. masses --      1.5231                 2.2057                 2.2557
 Frc consts  --      1.5163                 2.3267                 2.4861
 IR Inten    --     74.5518                 7.1380                13.3239

                     64                     65                     66
                      A                      A                      A
 Frequencies --   1376.9863              1384.5211              1397.2709
 Red. masses --      1.4002                 2.0540                 1.4153
 Frc consts  --      1.5643                 2.3198                 1.6280
 IR Inten    --     25.7448               123.8589                 3.7163

                     67                     68                     69
                      A                      A                      A
 Frequencies --   1408.3476              1415.1245              1425.6925
 Red. masses --      1.3205                 1.3565                 1.3905
 Frc consts  --      1.5432                 1.6005                 1.6652
 IR Inten    --      4.5998                 9.9062                42.4516

                     70                     71                     72
                      A                      A                      A
 Frequencies --   1432.0925              1455.0041              1497.3772
 Red. masses --      1.3323                 1.2120                 1.0781
 Frc consts  --      1.6098                 1.5118                 1.4243
 IR Inten    --     35.4300                11.7443                15.7065

                     73                     74                     75
                      A                      A                      A
 Frequencies --   1497.7763              1505.3375              1513.7730
 Red. masses --      1.5231                 1.5651                 1.0662
 Frc consts  --      2.0132                 2.0896                 1.4396
 IR Inten    --      6.2880                 6.6132                 0.8330

                     76                     77                     78
                      A                      A                      A
 Frequencies --   1516.7306              1519.9103              1526.3871
 Red. masses --      1.0780                 1.0799                 1.0586
 Frc consts  --      1.4612                 1.4698                 1.4531
 IR Inten    --      4.0991                 4.2993                 3.0673

                     79                     80                     81
                      A                      A                      A
 Frequencies --   1537.6414              1546.8243              1549.3975
 Red. masses --      1.0752                 1.3268                 1.5423
 Frc consts  --      1.4977                 1.8704                 2.1814
 IR Inten    --     16.4587                 2.2412                16.8189

                     82                     83                     84
                      A                      A                      A
 Frequencies --   1555.5100              1644.6721              1667.7809
 Red. masses --      1.0545                 5.4629                 5.5701
 Frc consts  --      1.5033                 8.7063                 9.1283
 IR Inten    --      1.4668                 1.4404                 2.6310

                     85                     86                     87
                      A                      A                      A
 Frequencies --   1742.9664              3005.0089              3053.5091
 Red. masses --      9.4274                 1.0748                 1.0677
 Frc consts  --     16.8740                 5.7184                 5.8656
 IR Inten    --    272.1571                39.0010                 7.7005

                     88                     89                     90
                      A                      A                      A
 Frequencies --   3058.3635              3071.9953              3075.4781
 Red. masses --      1.0516                 1.0609                 1.0422
 Frc consts  --      5.7956                 5.8989                 5.8080
 IR Inten    --     31.8731                41.9614                 3.6507

                     91                     92                     93
                      A                      A                      A
 Frequencies --   3081.2226              3114.3100              3123.7900
 Red. masses --      1.0439                 1.1047                 1.1020
 Frc consts  --      5.8390                 6.3130                 6.3357
 IR Inten    --     21.1736                26.1789                23.1853

                     94                     95                     96
                      A                      A                      A
 Frequencies --   3131.7821              3144.8146              3152.6982
 Red. masses --      1.1011                 1.0898                 1.0976
 Frc consts  --      6.3628                 6.3505                 6.4280
 IR Inten    --     24.3488                34.3861                 5.9111

                     97                     98                     99
                      A                      A                      A
 Frequencies --   3168.1290              3177.4747              3181.0237
 Red. masses --      1.0883                 1.0858                 1.1032
 Frc consts  --      6.4359                 6.4588                 6.5773
 IR Inten    --      5.7548                 4.5142                 7.8241

                    100                    101                    102
                      A                      A                      A
 Frequencies --   3184.8885              3185.9161              3195.9631
 Red. masses --      1.1015                 1.0894                 1.0924
 Frc consts  --      6.5832                 6.5148                 6.5738
 IR Inten    --     19.5640                 8.3495                31.0106

                    103                    104                    105
                      A                      A                      A
 Frequencies --   3208.4472              3225.9306              3478.4597
 Red. masses --      1.0968                 1.0923                 1.0735
 Frc consts  --      6.6521                 6.6975                 7.6532
 IR Inten    --     30.7321                 3.8788                 5.6493

 - Thermochemistry -
 -------------------
 Temperature   298.150 Kelvin.  Pressure   1.00000 Atm.
 Atom     1 has atomic number  6 and mass  12.00000

 Molecular mass:   232.15756 amu.
 Principal axes and moments of inertia in atomic units:
                           1         2         3
     Eigenvalues --  2318.032355227.973355595.10703
           X            0.99987   0.00733   0.01462
           Y           -0.00686   0.99947  -0.03174
           Z           -0.01484   0.03163   0.99939
 This molecule is an asymmetric top.
 Rotational symmetry number  1.
 Warning -- assumption of classical behavior for rotation
           may cause significant error
 Rotational temperatures (Kelvin)      0.03737     0.01657     0.01548
 Rotational constants (GHZ):           0.77857     0.34521     0.32256
 Zero-point vibrational energy     853361.4 (Joules/Mol)
                                  203.95827 (Kcal/Mol)
 Warning -- explicit consideration of  26 degrees of freedom as
           vibrations may cause significant error
 Vibrational temperatures:     56.80    72.34    80.74   132.22   167.87
          (Kelvin)            260.41   328.13   341.97   358.16   368.38
                              406.24   436.67   448.65   492.64   515.90
                              537.18   552.60   581.82   607.70   681.14
                              730.14   737.90   820.33   830.66   864.71
                              889.20   917.48   963.40  1006.70  1038.35
                             1118.62  1139.78  1196.15  1248.19  1274.48
                             1308.00  1339.20  1358.95  1370.54  1396.76
                             1407.67  1422.40  1445.45  1473.08  1480.00
                             1508.69  1528.55  1534.46  1535.90  1607.99
                             1621.76  1657.05  1672.73  1703.79  1718.52
                             1746.96  1756.86  1782.40  1793.67  1814.64
                             1870.21  1925.12  1967.83  1981.18  1992.02
                             2010.36  2026.30  2036.05  2051.25  2060.46
                             2093.43  2154.39  2154.97  2165.84  2177.98
                             2182.24  2186.81  2196.13  2212.32  2225.54
                             2229.24  2238.03  2366.32  2399.56  2507.74
                             4323.54  4393.32  4400.30  4419.92  4424.93
                             4433.19  4480.80  4494.44  4505.94  4524.69
                             4536.03  4558.23  4571.68  4576.78  4582.34
                             4583.82  4598.28  4616.24  4641.39  5004.73

 Zero-point correction=                           0.325028 (Hartree/Particle)
 Thermal correction to Energy=                    0.340685
 Thermal correction to Enthalpy=                  0.341630
 Thermal correction to Gibbs Free Energy=         0.282467
 Sum of electronic and zero-point Energies=           -730.007969
 Sum of electronic and thermal Energies=              -729.992312
 Sum of electronic and thermal Enthalpies=            -729.991368
 Sum of electronic and thermal Free Energies=         -730.050530

                     E (Thermal)             CV                S
                      KCal/Mol        Cal/Mol-Kelvin    Cal/Mol-Kelvin
 Total                  213.783             63.049            124.517
 Electronic               0.000              0.000              0.000
 Translational            0.889              2.981             42.229
 Rotational               0.889              2.981             32.583
 Vibrational            212.006             57.088             49.705
 Vibration     1          0.594              1.981              5.285
 Vibration     2          0.595              1.977              4.806
 Vibration     3          0.596              1.975              4.589
 Vibration     4          0.602              1.955              3.619
 Vibration     5          0.608              1.936              3.155
 Vibration     6          0.630              1.866              2.318
 Vibration     7          0.651              1.798              1.894
 Vibration     8          0.656              1.783              1.820
 Vibration     9          0.662              1.765              1.738
 Vibration    10          0.666              1.753              1.689
 Vibration    11          0.681              1.706              1.519
 Vibration    12          0.695              1.667              1.398
 Vibration    13          0.700              1.651              1.353
 Vibration    14          0.722              1.591              1.201
 Vibration    15          0.733              1.558              1.128
 Vibration    16          0.745              1.527              1.066
 Vibration    17          0.753              1.504              1.023
 Vibration    18          0.770              1.461              0.947
 Vibration    19          0.785              1.422              0.884
 Vibration    20          0.830              1.309              0.728
 Vibration    21          0.863              1.233              0.640
 Vibration    22          0.868              1.221              0.627
 Vibration    23          0.926              1.096              0.504
 Vibration    24          0.934              1.080              0.490
 Vibration    25          0.959              1.030              0.448
 Vibration    26          0.978              0.994              0.420

 Optimization completed.
    -- Stationary point found.
 Normal termination of Gaussian 16 at Sun Dec 13 20:28:52 2020.

 ----------------------------------------------------------------------
 # B3LYP/6-311++G(d,p) empiricaldispersion=gd3bj scf=xqc pop=npa geom=c
 heck
 ----------------------------------------------------------------------

 ------------------------------------
 CID_437023_JID_7003_Energie_neutraal
 ------------------------------------
 Structure from the checkpoint file:  "JID_7003.chk"
 Charge =  0 Multiplicity = 1

 SCF Done:  E(RB3LYP) =  -730.533843198     A.U. after   15 cycles
 Normal termination of Gaussian 16 at Sun Dec 13 20:37:16 2020.

 ----------------------------------------------------------------------
 # B3LYP/6-311++G(d,p) empiricaldispersion=gd3bj scf=xqc pop=npa geom=c
 heck
 ----------------------------------------------------------------------

 ----------------------------------
 CID_437023_JID_7003_Energie_kation
 ----------------------------------
 Structure from the checkpoint file:  "JID_7003.chk"
 Charge =  1 Multiplicity = 2

 SCF Done:  E(UB3LYP) =  -730.240331022     A.U. after   28 cycles
 Normal termination of Gaussian 16 at Sun Dec 13 20:58:56 2020.
 Gaussian 16:  ES64L-G16RevA.03 25-Dec-2016

 ----------------------------------------------------------------------
 # B3LYP/6-311++G(d,p) empiricaldispersion=gd3bj scf=xqc pop=npa geom=c
 heck
 ----------------------------------------------------------------------

 ---------------------------------
 CID_437023_JID_7003_Energie_anion
 ---------------------------------
 Structure from the checkpoint file:  "JID_7003.chk"
 Charge = -1 Multiplicity = 2

                         Standard orientation:
 ---------------------------------------------------------------------
 Center     Atomic      Atomic             Coordinates (Angstroms)
 Number     Number       Type             X           Y           Z
 ---------------------------------------------------------------------
      1          6           0        2.796672   -1.974749    0.834060
      2          6           0        2.538855   -1.056033   -0.349891
      3          8           0        3.214859   -1.217217   -1.362884
      4          7           0        1.557036   -0.070830   -0.305664
      5          6           0        1.626755    0.853070   -1.461650
      6          6           0        0.299086    1.534238   -1.766411
      7          7           0       -0.314271    2.163218   -0.599418
      8          6           0       -0.444243    1.196209    0.495652
      9          6           0        0.895072    0.485497    0.916363
     10          6           0        0.509800   -0.545922    1.992824
     11          6           0        1.833753    1.525970    1.562138
     12          6           0       -1.613820    0.263692    0.191224
     13          6           0       -1.489921   -0.939820   -0.515933
     14          6           0       -2.611910   -1.722918   -0.792796
     15          6           0       -3.877321   -1.316676   -0.371206
     16          6           0       -4.013931   -0.118070    0.330484
     17          6           0       -2.891121    0.660134    0.605381
     18          1           0        3.574636   -2.667728    0.513019
     19          1           0        1.912974   -2.541476    1.132364
     20          1           0        3.157490   -1.423028    1.707149
     21          1           0        2.401581    1.612526   -1.273819
     22          1           0        1.967273    0.266529   -2.312979
     23          1           0       -0.414004    0.809193   -2.171285
     24          1           0        0.456803    2.295808   -2.537752
     25          1           0        0.267889    2.940580   -0.290279
     26          1           0       -0.733815    1.777830    1.378412
     27          1           0        1.351971   -0.835990    2.620998
     28          1           0       -0.234829   -0.081797    2.648393
     29          1           0        0.050473   -1.439348    1.570140
     30          1           0        2.060284    2.355768    0.886487
     31          1           0        1.384256    1.941671    2.470801
     32          1           0        2.783447    1.056053    1.837552
     33          1           0       -0.511023   -1.269757   -0.844200
     34          1           0       -2.492474   -2.653420   -1.341078
     35          1           0       -4.749220   -1.927967   -0.586503
     36          1           0       -4.994070    0.210377    0.665242
     37          1           0       -3.004222    1.597460    1.144538
 ---------------------------------------------------------------------

 SCF Done:  E(UB3LYP) =  -730.524599652     A.U. after   33 cycles
 SCF Done:  E(UB3LYP) =  -730.524599652     a.u. after    1 cycles

 The electronic state is 2-A.
 Alpha  occ. eigenvalues --  -18.98991 -14.24279 -14.19926 -10.17671 -10.12942
 Alpha  occ. eigenvalues --  -10.10708 -10.09619 -10.09439 -10.08102 -10.07948
 Alpha  occ. eigenvalues --  -10.07931 -10.07772 -10.07736 -10.07452 -10.07417
 Alpha  occ. eigenvalues --  -10.06517 -10.06220  -0.94248  -0.84842  -0.80089
 Alpha  occ. eigenvalues --   -0.75934  -0.70911  -0.65942  -0.65421  -0.65063
 Alpha  occ. eigenvalues --   -0.62155  -0.59486  -0.57040  -0.52985  -0.51509
 Alpha  occ. eigenvalues --   -0.50711  -0.48015  -0.43889  -0.41489  -0.39641
 Alpha  occ. eigenvalues --   -0.39035  -0.37650  -0.37417  -0.36881  -0.35309
 Alpha  occ. eigenvalues --   -0.34448  -0.33744  -0.32875  -0.32593  -0.32201
 Alpha  occ. eigenvalues --   -0.31952  -0.30151  -0.29395  -0.29286  -0.28075
 Alpha  occ. eigenvalues --   -0.27624  -0.26909  -0.26391  -0.25923  -0.25172
 Alpha  occ. eigenvalues --   -0.24652  -0.23991  -0.23174  -0.16467  -0.16011
 Alpha  occ. eigenvalues --   -0.15797  -0.14744  -0.12590   0.04166
 Alpha virt. eigenvalues --    0.06356   0.06881   0.07372   0.07617   0.08044
 Alpha virt. eigenvalues --    0.08483   0.08667   0.09432   0.09676   0.10068
 Alpha virt. eigenvalues --    0.10636   0.11391   0.11412   0.12346   0.12430

  Beta  occ. eigenvalues --  -18.98985 -14.24275 -14.19896 -10.17666 -10.12938
  Beta  occ. eigenvalues --  -10.10698 -10.09607 -10.09432 -10.08051 -10.07939
  Beta  occ. eigenvalues --  -10.07931 -10.07723 -10.07712 -10.07448 -10.07393
  Beta  occ. eigenvalues --  -10.06497 -10.06162  -0.94236  -0.84816  -0.80046
  Beta  occ. eigenvalues --   -0.75873  -0.70877  -0.65853  -0.65386  -0.65020
  Beta  occ. eigenvalues --   -0.62112  -0.59410  -0.56986  -0.52941  -0.51443
  Beta  occ. eigenvalues --   -0.50666  -0.47962  -0.43831  -0.41438  -0.39595
  Beta  occ. eigenvalues --   -0.39000  -0.37597  -0.37383  -0.36829  -0.35268
  Beta  occ. eigenvalues --   -0.34404  -0.33710  -0.32844  -0.32566  -0.32177
  Beta  occ. eigenvalues --   -0.31927  -0.30122  -0.29344  -0.29220  -0.28043
  Beta  occ. eigenvalues --   -0.27565  -0.26837  -0.26335  -0.25878  -0.25134
  Beta  occ. eigenvalues --   -0.24602  -0.23958  -0.23131  -0.16436  -0.15928
  Beta  occ. eigenvalues --   -0.15642  -0.14645  -0.12559
  Beta virt. eigenvalues --    0.06263   0.06950   0.07519   0.07831   0.08076
  Beta virt. eigenvalues --    0.08137   0.08891   0.09099   0.09744   0.09915
  Beta virt. eigenvalues --    0.10371   0.11083   0.11484   0.11832   0.12549

 Mulliken charges and spin densities:
               1          2
     1  C    0.261273  -0.731238
     2  C   -0.153467   0.284868
     3  O   -0.301967  -0.001636
     4  N    0.218349   0.048332
     5  C    0.523667  -0.585166
     6  C   -0.578169  -0.023670
     7  N    0.043502  -0.085440
     8  C    0.458024  -0.396345
     9  C   -2.012224   1.343216
    10  C    0.430054  -1.122114
    11  C    1.725109  -1.964216
    12  C    0.968262  -0.567722
    13  C   -0.346434  -0.128895
    14  C   -0.893823   0.679673
    15  C    0.057666  -0.365672
    16  C    0.024982  -0.359542
    17  C   -0.367526   0.315993
    18  H    0.172531   0.020877
    19  H   -0.206100   0.370395
    20  H   -0.079093   0.239802
    21  H    0.063041   0.145486
    22  H    0.153481   0.033899
    23  H    0.202434  -0.040485
    24  H   -0.141437   0.316967
    25  H    0.044226   0.236290
    26  H   -0.054145   0.317423
    27  H   -0.107644   0.255905
    28  H   -0.127893   0.301011
    29  H    0.230781  -0.074224
    30  H   -0.510340   0.652965
    31  H   -0.550758   0.738393
    32  H   -0.040962   0.189816
    33  H    0.344099  -0.108963
    34  H   -0.081576   0.245648
    35  H    0.000570   0.133951
    36  H   -0.044720   0.205119
    37  H   -0.323772   0.479294
 Sum of Mulliken charges =  -1.00000   1.00000

 Dipole moment (field-independent basis, Debye):
    X=             -1.8142    Y=             -3.5619    Z=             -2.6977  Tot=              4.8225
 Quadrupole moment (field-independent basis, Debye-Ang):
   XX=           -164.2484   YY=           -153.5204   ZZ=           -145.9405
   XY=              0.2506   XZ=              2.5716   YZ=             -7.4629

 Summary of Natural Population Analysis:

                                       Natural Population
                Natural  -----------------------------------------------
    Atom  No    Charge         Core      Valence    Rydberg      Total
 -----------------------------------------------------------------------
      C    1   -0.32910      0.99962     2.32435    0.00513     3.32910
      C    2    0.34958      0.99966     1.62915    0.02161     2.65042
      O    3   -0.32823      0.99988     3.32296    0.00538     4.32823
      N    4   -0.27397      0.99962     2.76261    0.01174     3.77397
      C    5   -0.09707      0.99959     2.08691    0.01058     3.09707
      C    6   -0.09652      0.99961     2.08593    0.01098     3.09652
      N    7   -0.33319      0.99974     2.82069    0.01275     3.83319
      C    8   -0.02074      0.99950     2.00272    0.01852     3.02074
      C    9    0.06796      0.99954     1.91587    0.01664     2.93204
      C   10   -0.29394      0.99961     2.28703    0.00730     3.29394
      C   11   -0.29327      0.99960     2.28585    0.00782     3.29327
      C   12   -0.00495      0.99948     1.99332    0.01215     3.00495
      C   13   -0.10951      0.99950     2.10054    0.00947     3.10951
      C   14   -0.10122      0.99956     2.09255    0.00911     3.10122
      C   15   -0.09977      0.99956     2.09094    0.00927     3.09977
      C   16   -0.10376      0.99956     2.09447    0.00973     3.10376
      C   17   -0.08833      0.99950     2.07904    0.00978     3.08833
      H   18    0.11135      0.00000     0.38778    0.00087     0.38865
      H   19    0.11086      0.00000     0.38796    0.00118     0.38914
      H   20    0.10828      0.00000     0.39056    0.00115     0.39172
      H   21    0.09172      0.00000     0.40702    0.00126     0.40828
      H   22    0.11638      0.00000     0.38258    0.00104     0.38362
      H   23    0.09614      0.00000     0.40244    0.00141     0.40386
      H   24    0.09808      0.00000     0.40115    0.00077     0.40192
      H   25    0.17841      0.00000     0.31803    0.00356     0.32159
      H   26    0.10797      0.00000     0.38940    0.00263     0.39203
      H   27    0.10179      0.00000     0.39701    0.00120     0.39821
      H   28    0.10923      0.00000     0.38953    0.00124     0.39077
      H   29    0.10840      0.00000     0.39028    0.00132     0.39160
      H   30    0.10356      0.00000     0.39432    0.00211     0.39644
      H   31    0.10715      0.00000     0.39076    0.00209     0.39285
      H   32    0.10182      0.00000     0.39686    0.00132     0.39818
      H   33    0.10813      0.00000     0.39025    0.00162     0.39187
      H   34    0.09843      0.00000     0.40076    0.00081     0.40157
      H   35    0.09726      0.00000     0.40199    0.00075     0.40274
      H   36    0.09889      0.00000     0.40034    0.00077     0.40111
      H   37    0.10215      0.00000     0.39634    0.00152     0.39785
 =======================================================================
   * Total *   -0.00000     16.99314    45.79029    0.21657    63.00000

 Normal termination of Gaussian 16 at Sun Dec 13 21:24:31 2020.
