 Gaussian 16, Revision A.03,

 -----------------------------------------------------------
 # opt freq B3LYP/6-31G(d) empiricaldispersion=gd3bj scf=xqc
 -----------------------------------------------------------

 ------------------------------
 CID_10330562_JID_2336_neutraal
 ------------------------------
 Symbolic Z-matrix:
 Charge =  0 Multiplicity = 1

 SCF Done:  E(RB3LYP) =  -1251.22110007     A.U. after   15 cycles
 SCF Done:  E(RB3LYP) =  -1251.22879785     A.U. after   14 cycles
 SCF Done:  E(RB3LYP) =  -1251.21716739     A.U. after   15 cycles
 SCF Done:  E(RB3LYP) =  -1251.22652451     A.U. after   14 cycles
 SCF Done:  E(RB3LYP) =  -1251.23029931     A.U. after   11 cycles
 SCF Done:  E(RB3LYP) =  -1251.23226771     A.U. after   13 cycles
 SCF Done:  E(RB3LYP) =  -1251.23241225     A.U. after   13 cycles
 SCF Done:  E(RB3LYP) =  -1251.23308536     A.U. after   12 cycles
 SCF Done:  E(RB3LYP) =  -1251.23312815     A.U. after   11 cycles
 SCF Done:  E(RB3LYP) =  -1251.23314809     A.U. after   12 cycles
 SCF Done:  E(RB3LYP) =  -1251.23320164     A.U. after    8 cycles
 SCF Done:  E(RB3LYP) =  -1251.23320202     A.U. after    8 cycles
 SCF Done:  E(RB3LYP) =  -1251.23320227     A.U. after    8 cycles
 SCF Done:  E(RB3LYP) =  -1251.23320244     A.U. after    7 cycles
 SCF Done:  E(RB3LYP) =  -1251.23320258     A.U. after    8 cycles
 Optimization completed.
    -- Stationary point found.
 Normal termination of Gaussian 16 at Wed Dec  9 17:13:39 2020.

 --------------------------------------------------------------------
 #N Geom=AllCheck Guess=TCheck SCRF=Check GenChk RB3LYP/6-31G(d) Freq
 --------------------------------------------------------------------

 Structure from the checkpoint file:  "JID_2336.chk"
 ------------------------------
 CID_10330562_JID_2336_neutraal
 ------------------------------
 Charge =  0 Multiplicity = 1

 SCF Done:  E(RB3LYP) =  -1251.23320258     A.U. after    1 cycles

  Exact polarizability: 140.607   8.463 149.633   7.256  -5.262  85.023
 Approx polarizability: 192.403  18.089 249.973  12.308 -16.493 130.777

                      1                      2                      3
                      A                      A                      A
 Frequencies --     22.6856                37.6024                63.2696
 Red. masses --      5.6025                 5.2603                 4.1703
 Frc consts  --      0.0017                 0.0044                 0.0098
 IR Inten    --      0.9391                 0.1031                 2.0191

                      4                      5                      6
                      A                      A                      A
 Frequencies --     83.9976               110.2857               126.9183
 Red. masses --      5.7304                 5.8433                 1.4004
 Frc consts  --      0.0238                 0.0419                 0.0133
 IR Inten    --      2.7130                 1.4493                 1.7650

                      7                      8                      9
                      A                      A                      A
 Frequencies --    150.0747               172.4337               189.6128
 Red. masses --      4.2384                 4.8510                 3.4431
 Frc consts  --      0.0562                 0.0850                 0.0729
 IR Inten    --      1.5409                 5.7470                 0.7943

                     10                     11                     12
                      A                      A                      A
 Frequencies --    210.8399               260.0190               296.7135
 Red. masses --      4.0503                 2.8652                 2.4633
 Frc consts  --      0.1061                 0.1141                 0.1278
 IR Inten    --      5.1520                 2.1143                10.7885

                     13                     14                     15
                      A                      A                      A
 Frequencies --    305.7335               350.0901               368.7723
 Red. masses --      1.3645                 1.7350                 1.4404
 Frc consts  --      0.0751                 0.1253                 0.1154
 IR Inten    --     41.3516                 6.0382                12.2260

                     16                     17                     18
                      A                      A                      A
 Frequencies --    378.6025               427.7153               465.3064
 Red. masses --      2.9643                 3.0664                 3.4571
 Frc consts  --      0.2503                 0.3305                 0.4410
 IR Inten    --     16.2920                 4.2357                 0.2609

                     19                     20                     21
                      A                      A                      A
 Frequencies --    478.4438               518.7929               543.1132
 Red. masses --      3.9743                11.5130                 7.0251
 Frc consts  --      0.5360                 1.8257                 1.2209
 IR Inten    --     11.7374                 7.9805                 4.8897

                     22                     23                     24
                      A                      A                      A
 Frequencies --    636.6659               654.2595               669.6032
 Red. masses --      9.8497                 3.9975                 5.0190
 Frc consts  --      2.3523                 1.0082                 1.3259
 IR Inten    --      7.6431                 0.1666                 4.9312

                     25                     26                     27
                      A                      A                      A
 Frequencies --    740.5220               751.5847               844.3634
 Red. masses --      1.6631                 3.0093                 1.8576
 Frc consts  --      0.5373                 1.0016                 0.7803
 IR Inten    --      5.1362                30.8041                 4.8029

                     28                     29                     30
                      A                      A                      A
 Frequencies --    919.1062               934.4329               981.5679
 Red. masses --      1.7242                 2.8934                 1.6521
 Frc consts  --      0.8581                 1.4885                 0.9378
 IR Inten    --      5.0587               124.7435                 2.6120

                     31                     32                     33
                      A                      A                      A
 Frequencies --   1018.7555              1046.6014              1060.2649
 Red. masses --      2.2443                 2.1637                 2.5942
 Frc consts  --      1.3724                 1.3964                 1.7182
 IR Inten    --     21.5488                 6.6250                 7.4543

                     34                     35                     36
                      A                      A                      A
 Frequencies --   1097.4052              1142.4033              1154.9071
 Red. masses --      2.8437                 1.6439                 1.3438
 Frc consts  --      2.0177                 1.2640                 1.0561
 IR Inten    --      3.6445                93.8789                22.0851

                     37                     38                     39
                      A                      A                      A
 Frequencies --   1177.1272              1205.2056              1302.1628
 Red. masses --      1.0664                 1.0957                 3.9336
 Frc consts  --      0.8706                 0.9377                 3.9298
 IR Inten    --      3.8296                 5.0656                 3.6078

                     40                     41                     42
                      A                      A                      A
 Frequencies --   1310.5381              1314.0168              1352.8175
 Red. masses --      1.2828                 1.1998                 1.1766
 Frc consts  --      1.2981                 1.2206                 1.2687
 IR Inten    --     13.9058                 5.3514                14.5360

                     43                     44                     45
                      A                      A                      A
 Frequencies --   1357.8294              1372.2804              1405.3284
 Red. masses --      1.2155                 3.8023                 1.4517
 Frc consts  --      1.3204                 4.2187                 1.6892
 IR Inten    --     33.5753               160.9776                 6.0474

                     46                     47                     48
                      A                      A                      A
 Frequencies --   1475.3155              1493.2036              1499.4748
 Red. masses --      1.2145                 1.0877                 1.0804
 Frc consts  --      1.5575                 1.4289                 1.4313
 IR Inten    --     23.0667                12.2069                 9.3861

                     49                     50                     51
                      A                      A                      A
 Frequencies --   1503.7999              1516.4986              1532.0756
 Red. masses --      1.0918                 1.0548                 1.0652
 Frc consts  --      1.4546                 1.4292                 1.4731
 IR Inten    --      4.1612                27.8791                29.5055

                     52                     53                     54
                      A                      A                      A
 Frequencies --   1631.2133              1720.8705              2304.5688
 Red. masses --      9.2499                 1.0833                12.5946
 Frc consts  --     14.5013                 1.8901                39.4106
 IR Inten    --    480.7513                47.0721               239.9045

                     55                     56                     57
                      A                      A                      A
 Frequencies --   2666.8138              3039.7067              3051.4975
 Red. masses --      1.0381                 1.0638                 1.0456
 Frc consts  --      4.3499                 5.7911                 5.7362
 IR Inten    --     36.8056                28.7374                28.1436

                     58                     59                     60
                      A                      A                      A
 Frequencies --   3080.1385              3090.7221              3100.6275
 Red. masses --      1.0750                 1.0797                 1.0645
 Frc consts  --      6.0090                 6.0770                 6.0296
 IR Inten    --      3.6692                19.1627                18.8845

                     61                     62                     63
                      A                      A                      A
 Frequencies --   3133.3634              3137.3968              3160.3406
 Red. masses --      1.1061                 1.0926                 1.1050
 Frc consts  --      6.3984                 6.3367                 6.5023
 IR Inten    --     14.5930                10.2929                 0.4614

                     64                     65                     66
                      A                      A                      A
 Frequencies --   3191.1405              3456.7310              3547.6117
 Red. masses --      1.1029                 1.0486                 1.0951
 Frc consts  --      6.6175                 7.3826                 8.1204
 IR Inten    --      3.6772                 4.0019                12.7070

 - Thermochemistry -
 -------------------
 Temperature   298.150 Kelvin.  Pressure   1.00000 Atm.
 Atom     1 has atomic number  6 and mass  12.00000

 Molecular mass:   204.05034 amu.
 Principal axes and moments of inertia in atomic units:
                           1         2         3
     Eigenvalues --  1999.351053610.031324968.70677
           X            0.99992   0.00580   0.01095
           Y           -0.00584   0.99998   0.00385
           Z           -0.01093  -0.00391   0.99993
 This molecule is an asymmetric top.
 Rotational symmetry number  1.
 Warning -- assumption of classical behavior for rotation
           may cause significant error
 Rotational temperatures (Kelvin)      0.04332     0.02399     0.01743
 Rotational constants (GHZ):           0.90266     0.49992     0.36322
 Zero-point vibrational energy     498507.1 (Joules/Mol)
                                  119.14606 (Kcal/Mol)
 Warning -- explicit consideration of  21 degrees of freedom as
           vibrations may cause significant error
 Vibrational temperatures:     32.64    54.10    91.03   120.85   158.68
          (Kelvin)            182.61   215.92   248.09   272.81   303.35
                              374.11   426.90   439.88   503.70   530.58
                              544.72   615.39   669.47   688.37   746.43
                              781.42   916.02   941.33   963.41  1065.45
                             1081.36  1214.85  1322.39  1344.44  1412.26
                             1465.76  1505.83  1525.48  1578.92  1643.66
                             1661.65  1693.62  1734.02  1873.52  1885.57
                             1890.58  1946.40  1953.61  1974.41  2021.95
                             2122.65  2148.39  2157.41  2163.63  2181.90
                             2204.32  2346.95  2475.95  3315.76  3836.95
                             4373.46  4390.42  4431.63  4446.86  4461.11
                             4508.21  4514.01  4547.03  4591.34  4973.46
                             5104.22

 Zero-point correction=                           0.189871 (Hartree/Particle)
 Thermal correction to Energy=                    0.204412
 Thermal correction to Enthalpy=                  0.205356
 Thermal correction to Gibbs Free Energy=         0.146696
 Sum of electronic and zero-point Energies=          -1251.043331
 Sum of electronic and thermal Energies=             -1251.028791
 Sum of electronic and thermal Enthalpies=           -1251.027847
 Sum of electronic and thermal Free Energies=        -1251.086507

                     E (Thermal)             CV                S
                      KCal/Mol        Cal/Mol-Kelvin    Cal/Mol-Kelvin
 Total                  128.270             51.074            123.461
 Electronic               0.000              0.000              0.000
 Translational            0.889              2.981             41.844
 Rotational               0.889              2.981             31.950
 Vibrational            126.493             45.112             49.666
 Vibration     1          0.593              1.985              6.384
 Vibration     2          0.594              1.982              5.382
 Vibration     3          0.597              1.972              4.353
 Vibration     4          0.601              1.960              3.795
 Vibration     5          0.606              1.941              3.264
 Vibration     6          0.611              1.926              2.992
 Vibration     7          0.618              1.903              2.671
 Vibration     8          0.626              1.876              2.409
 Vibration     9          0.633              1.854              2.232
 Vibration    10          0.643              1.824              2.036
 Vibration    11          0.668              1.746              1.662
 Vibration    12          0.690              1.680              1.435
 Vibration    13          0.696              1.663              1.385
 Vibration    14          0.727              1.575              1.166
 Vibration    15          0.741              1.536              1.085
 Vibration    16          0.749              1.516              1.045
 Vibration    17          0.789              1.410              0.866
 Vibration    18          0.823              1.327              0.751
 Vibration    19          0.835              1.298              0.714
 Vibration    20          0.874              1.208              0.613
 Vibration    21          0.898              1.155              0.559

 Optimization completed.
    -- Stationary point found.
 Normal termination of Gaussian 16 at Wed Dec  9 17:18:51 2020.

 ----------------------------------------------------------------------
 # B3LYP/6-311++G(d,p) empiricaldispersion=gd3bj scf=xqc pop=npa geom=c
 heck
 ----------------------------------------------------------------------

 --------------------------------------
 CID_10330562_JID_2336_Energie_neutraal
 --------------------------------------
 Structure from the checkpoint file:  "JID_2336.chk"
 Charge =  0 Multiplicity = 1

 SCF Done:  E(RB3LYP) =  -1251.42500031     A.U. after   15 cycles
 Normal termination of Gaussian 16 at Wed Dec  9 17:20:53 2020.

 ----------------------------------------------------------------------
 # B3LYP/6-311++G(d,p) empiricaldispersion=gd3bj scf=xqc pop=npa geom=c
 heck
 ----------------------------------------------------------------------

 ------------------------------------
 CID_10330562_JID_2336_Energie_kation
 ------------------------------------
 Structure from the checkpoint file:  "JID_2336.chk"
 Charge =  1 Multiplicity = 2

 SCF Done:  E(UB3LYP) =  -1251.11389690     A.U. after   27 cycles
 Normal termination of Gaussian 16 at Wed Dec  9 17:25:36 2020.
 Gaussian 16:  ES64L-G16RevA.03 25-Dec-2016

 ----------------------------------------------------------------------
 # B3LYP/6-311++G(d,p) empiricaldispersion=gd3bj scf=xqc pop=npa geom=c
 heck
 ----------------------------------------------------------------------

 -----------------------------------
 CID_10330562_JID_2336_Energie_anion
 -----------------------------------
 Structure from the checkpoint file:  "JID_2336.chk"
 Charge = -1 Multiplicity = 2

                         Standard orientation:
 ---------------------------------------------------------------------
 Center     Atomic      Atomic             Coordinates (Angstroms)
 Number     Number       Type             X           Y           Z
 ---------------------------------------------------------------------
      1          6           0        2.945887   -1.699112    0.551003
      2          7           0        2.351029   -0.390949    0.280473
      3          6           0        1.080104   -0.227652   -0.178722
      4          7           0        0.501122    0.903628   -0.481083
      5          6           0        1.149192    2.050737   -0.631520
      6          7           0        1.624060    3.105786   -0.816895
      7         16           0        0.151328   -1.738963   -0.334095
      8          6           0       -1.403368   -1.193530   -1.156622
      9          6           0       -2.624977   -1.315176   -0.243562
     10          6           0       -2.639909   -0.359518    0.949933
     11         16           0       -2.843269    1.416008    0.512373
     12          7           0        3.060767    0.686761    0.863186
     13          1           0        2.570186   -2.130050    1.487740
     14          1           0        4.020263   -1.543168    0.636638
     15          1           0        2.739752   -2.387643   -0.271130
     16          1           0       -1.241807   -0.167826   -1.493750
     17          1           0       -1.509721   -1.837768   -2.032943
     18          1           0       -3.513609   -1.134800   -0.860400
     19          1           0       -2.698713   -2.345726    0.129875
     20          1           0       -3.495068   -0.590207    1.591339
     21          1           0       -1.738648   -0.478921    1.558401
     22          1           0       -1.591939    1.587609    0.035026
     23          1           0        3.266512    1.383844    0.149090
     24          1           0        2.463432    1.140868    1.554839
 ---------------------------------------------------------------------

 SCF Done:  E(UB3LYP) =  -1251.42269843     A.U. after   33 cycles
 SCF Done:  E(UB3LYP) =  -1251.42323598     a.u. after    9 cycles

 The electronic state is 2-A.
 Alpha  occ. eigenvalues --  -88.74937 -88.73566 -14.26137 -14.22541 -14.19766
 Alpha  occ. eigenvalues --  -14.15731 -10.15274 -10.10669 -10.10344 -10.09500
 Alpha  occ. eigenvalues --  -10.09115 -10.08985  -7.83589  -7.82291  -5.79969
 Alpha  occ. eigenvalues --   -5.79555  -5.79027  -5.78651  -5.78301  -5.77704
 Alpha  occ. eigenvalues --   -0.90885  -0.82370  -0.75844  -0.72854  -0.71568
 Alpha  occ. eigenvalues --   -0.67299  -0.62393  -0.59617  -0.55382  -0.50607
 Alpha  occ. eigenvalues --   -0.48329  -0.45531  -0.40998  -0.39167  -0.38241
 Alpha  occ. eigenvalues --   -0.36386  -0.33047  -0.32581  -0.31849  -0.30556
 Alpha  occ. eigenvalues --   -0.29528  -0.29418  -0.27034  -0.25856  -0.25581
 Alpha  occ. eigenvalues --   -0.23307  -0.22371  -0.21717  -0.21286  -0.17708
 Alpha  occ. eigenvalues --   -0.14591  -0.14375  -0.13719  -0.12280   0.04516
 Alpha virt. eigenvalues --    0.06537   0.07782   0.07955   0.09302   0.09722
 Alpha virt. eigenvalues --    0.10286   0.10682   0.10797   0.12075   0.12467
 Alpha virt. eigenvalues --    0.13030   0.13399   0.13752   0.14496   0.15054

  Beta  occ. eigenvalues --  -88.74925 -88.73565 -14.26044 -14.22487 -14.19698
  Beta  occ. eigenvalues --  -14.15619 -10.14783 -10.10665 -10.10335 -10.09466
  Beta  occ. eigenvalues --  -10.09077 -10.08980  -7.83577  -7.82290  -5.79972
  Beta  occ. eigenvalues --   -5.79553  -5.78978  -5.78650  -5.78300  -5.77704
  Beta  occ. eigenvalues --   -0.90563  -0.82063  -0.75606  -0.72799  -0.71405
  Beta  occ. eigenvalues --   -0.67234  -0.62191  -0.59459  -0.55306  -0.50321
  Beta  occ. eigenvalues --   -0.48238  -0.45348  -0.40696  -0.39053  -0.38213
  Beta  occ. eigenvalues --   -0.36318  -0.32811  -0.32481  -0.31779  -0.30422
  Beta  occ. eigenvalues --   -0.29422  -0.28632  -0.26926  -0.25766  -0.25510
  Beta  occ. eigenvalues --   -0.23135  -0.22339  -0.21355  -0.20601  -0.17596
  Beta  occ. eigenvalues --   -0.14380  -0.14259  -0.13494  -0.11669
  Beta virt. eigenvalues --    0.06538   0.07894   0.08164   0.09313   0.09759
  Beta virt. eigenvalues --    0.10303   0.10594   0.10889   0.11165   0.12358
  Beta virt. eigenvalues --    0.12677   0.13164   0.13627   0.13945   0.14484

 Mulliken charges and spin densities:
               1          2
     1  C    1.198680  -1.464016
     2  N   -0.297058   0.382731
     3  C   -1.052784   0.586910
     4  N   -0.027514   0.060780
     5  C    0.000619   0.063261
     6  N   -0.410476   0.051790
     7  S    0.627924  -0.556100
     8  C   -0.190587   0.003880
     9  C   -0.038661  -0.219494
    10  C   -0.301258  -0.019519
    11  S   -0.086471  -0.015733
    12  N   -0.004357  -0.319805
    13  H   -0.586581   0.766865
    14  H   -0.098839   0.272687
    15  H   -0.354975   0.485052
    16  H    0.157268  -0.015529
    17  H   -0.091361   0.320931
    18  H    0.147544  -0.029400
    19  H    0.016211   0.110044
    20  H    0.174090   0.061737
    21  H    0.089775   0.080836
    22  H   -0.027241   0.027621
    23  H    0.195649   0.045310
    24  H   -0.039597   0.319160
 Sum of Mulliken charges =  -1.00000   1.00000

 Dipole moment (field-independent basis, Debye):
    X=             -5.8259    Y=             -2.7086    Z=             -1.0038  Tot=              6.5027
 Quadrupole moment (field-independent basis, Debye-Ang):
   XX=           -128.9392   YY=           -140.4572   ZZ=           -112.6530
   XY=              4.6548   XZ=             -3.7723   YZ=              5.0063

 Summary of Natural Population Analysis:

                                       Natural Population
                Natural  -----------------------------------------------
    Atom  No    Charge         Core      Valence    Rydberg      Total
 -----------------------------------------------------------------------
      C    1   -0.17834      0.99964     2.17135    0.00735     3.17834
      N    2   -0.15518      0.99961     2.64303    0.01254     3.65518
      C    3    0.26128      0.99951     1.71941    0.01980     2.73872
      N    4   -0.34377      0.99952     2.83110    0.01314     3.84377
      C    5    0.21886      0.99961     1.76162    0.01991     2.78114
      N    6   -0.24361      0.99978     2.73485    0.00898     3.74361
      S    7    0.11933      4.99953     2.86278    0.01836     7.88067
      C    8   -0.25552      0.99958     2.24415    0.01179     3.25552
      C    9   -0.20078      0.99960     2.19111    0.01007     3.20078
      C   10   -0.24969      0.99958     2.23920    0.01092     3.24969
      S   11   -0.04666      4.99964     3.03209    0.01493     8.04666
      N   12   -0.31575      0.99977     2.80488    0.01110     3.81575
      H   13    0.09887      0.00000     0.39563    0.00550     0.40113
      H   14    0.10531      0.00000     0.39328    0.00141     0.39469
      H   15    0.10110      0.00000     0.39681    0.00208     0.39890
      H   16    0.12395      0.00000     0.37437    0.00168     0.37605
      H   17    0.10414      0.00000     0.39484    0.00102     0.39586
      H   18    0.09999      0.00000     0.39867    0.00134     0.40001
      H   19    0.09842      0.00000     0.40019    0.00139     0.40158
      H   20    0.10095      0.00000     0.39820    0.00085     0.39905
      H   21    0.11112      0.00000     0.38753    0.00134     0.38888
      H   22    0.08074      0.00000     0.41617    0.00309     0.41926
      H   23    0.18544      0.00000     0.31263    0.00193     0.31456
      H   24    0.17979      0.00000     0.31705    0.00316     0.32021
 =======================================================================
   * Total *   -0.00000     19.99537    33.82095    0.18368    54.00000

 Normal termination of Gaussian 16 at Wed Dec  9 18:09:22 2020.
