 Gaussian 16, Revision A.03,

 -----------------------------------------------------------
 # opt freq B3LYP/6-31G(d) empiricaldispersion=gd3bj scf=xqc
 -----------------------------------------------------------

 ------------------------------
 CID_82598195_JID_2418_neutraal
 ------------------------------
 Symbolic Z-matrix:
 Charge =  0 Multiplicity = 1

 SCF Done:  E(RB3LYP) =  -573.205063702     A.U. after   14 cycles
 SCF Done:  E(RB3LYP) =  -573.208359189     A.U. after   12 cycles
 SCF Done:  E(RB3LYP) =  -573.208748600     A.U. after   11 cycles
 SCF Done:  E(RB3LYP) =  -573.208795074     A.U. after   11 cycles
 SCF Done:  E(RB3LYP) =  -573.208927517     A.U. after   11 cycles
 SCF Done:  E(RB3LYP) =  -573.208960214     A.U. after   10 cycles
 SCF Done:  E(RB3LYP) =  -573.208992149     A.U. after   11 cycles
 SCF Done:  E(RB3LYP) =  -573.209021223     A.U. after   11 cycles
 SCF Done:  E(RB3LYP) =  -573.209035871     A.U. after   11 cycles
 SCF Done:  E(RB3LYP) =  -573.209058792     A.U. after   10 cycles
 SCF Done:  E(RB3LYP) =  -573.209105264     A.U. after    7 cycles
 SCF Done:  E(RB3LYP) =  -573.209105289     A.U. after    8 cycles
 SCF Done:  E(RB3LYP) =  -573.209105314     A.U. after    8 cycles
 SCF Done:  E(RB3LYP) =  -573.209105322     A.U. after    7 cycles
 SCF Done:  E(RB3LYP) =  -573.209105324     A.U. after    7 cycles
 Optimization completed.
    -- Stationary point found.
 Normal termination of Gaussian 16 at Wed Dec  9 17:23:19 2020.

 --------------------------------------------------------------------
 #N Geom=AllCheck Guess=TCheck SCRF=Check GenChk RB3LYP/6-31G(d) Freq
 --------------------------------------------------------------------

 Structure from the checkpoint file:  "JID_2418.chk"
 ------------------------------
 CID_82598195_JID_2418_neutraal
 ------------------------------
 Charge =  0 Multiplicity = 1

 SCF Done:  E(RB3LYP) =  -573.209105324     A.U. after    1 cycles

  Exact polarizability: 119.646  11.395 111.041   6.514  -4.103  71.489
 Approx polarizability: 170.842  10.836 154.427  17.787  -9.046 110.849

                      1                      2                      3
                      A                      A                      A
 Frequencies --     17.9783                80.4350                86.6119
 Red. masses --      3.6382                 3.3731                 1.0836
 Frc consts  --      0.0007                 0.0129                 0.0048
 IR Inten    --      0.1122                 0.6892                 0.7099

                      4                      5                      6
                      A                      A                      A
 Frequencies --     98.1283               122.0375               143.5846
 Red. masses --      2.7312                 2.8732                 2.5310
 Frc consts  --      0.0155                 0.0252                 0.0307
 IR Inten    --      4.8857                 2.6338                 1.0772

                      7                      8                      9
                      A                      A                      A
 Frequencies --    159.8060               185.8107               200.1365
 Red. masses --      2.0518                 1.4594                 1.7252
 Frc consts  --      0.0309                 0.0297                 0.0407
 IR Inten    --      1.1085                 2.2222                 1.9617

                     10                     11                     12
                      A                      A                      A
 Frequencies --    221.8300               278.8749               318.9387
 Red. masses --      2.0303                 2.0634                 2.7618
 Frc consts  --      0.0589                 0.0945                 0.1655
 IR Inten    --      2.0876                 1.2005                 2.3610

                     13                     14                     15
                      A                      A                      A
 Frequencies --    344.1151               383.9633               433.7734
 Red. masses --      3.2426                 3.9656                 2.5998
 Frc consts  --      0.2262                 0.3445                 0.2882
 IR Inten    --      1.8208                 0.9431                 6.0800

                     16                     17                     18
                      A                      A                      A
 Frequencies --    504.0899               520.8565               607.4969
 Red. masses --      3.1865                 3.4027                 4.8791
 Frc consts  --      0.4771                 0.5439                 1.0609
 IR Inten    --      5.1670                 0.7101                 2.8798

                     19                     20                     21
                      A                      A                      A
 Frequencies --    628.3215               708.4755               735.8612
 Red. masses --      4.8385                 3.1501                 4.8211
 Frc consts  --      1.1255                 0.9316                 1.5381
 IR Inten    --      2.6247                11.0805                26.7250

                     22                     23                     24
                      A                      A                      A
 Frequencies --    758.9023               780.8743               845.9845
 Red. masses --      4.3511                 1.9155                 2.1850
 Frc consts  --      1.4765                 0.6882                 0.9214
 IR Inten    --     23.5629                88.3785                 5.2982

                     25                     26                     27
                      A                      A                      A
 Frequencies --    931.6350               956.2845               976.2746
 Red. masses --      2.6777                 2.8197                 3.0235
 Frc consts  --      1.3693                 1.5192                 1.6979
 IR Inten    --     24.9987                 5.7385                16.4072

                     28                     29                     30
                      A                      A                      A
 Frequencies --   1012.9224              1034.3622              1044.9942
 Red. masses --      2.1606                 2.2010                 3.6032
 Frc consts  --      1.3061                 1.3874                 2.3183
 IR Inten    --      4.3966                 6.8994                32.3329

                     31                     32                     33
                      A                      A                      A
 Frequencies --   1076.8008              1100.2879              1168.8746
 Red. masses --      1.4955                 2.7192                 2.5636
 Frc consts  --      1.0216                 1.9396                 2.0636
 IR Inten    --      2.0780                19.6443                60.5880

                     34                     35                     36
                      A                      A                      A
 Frequencies --   1169.3711              1187.8147              1198.2627
 Red. masses --      1.3843                 1.2654                 1.9729
 Frc consts  --      1.1153                 1.0519                 1.6690
 IR Inten    --      3.9640                 0.8976                26.8721

                     37                     38                     39
                      A                      A                      A
 Frequencies --   1222.7130              1243.3963              1270.8367
 Red. masses --      1.7561                 2.3590                 1.4568
 Frc consts  --      1.5468                 2.1488                 1.3862
 IR Inten    --     19.9277                37.8520                13.7080

                     40                     41                     42
                      A                      A                      A
 Frequencies --   1311.6470              1327.1237              1386.7723
 Red. masses --      3.9922                 1.4490                 1.4067
 Frc consts  --      4.0466                 1.5037                 1.5939
 IR Inten    --     25.6413                 4.2672                 3.6612

                     43                     44                     45
                      A                      A                      A
 Frequencies --   1406.9900              1438.6404              1469.0064
 Red. masses --      1.2689                 1.3149                 1.5081
 Frc consts  --      1.4800                 1.6034                 1.9175
 IR Inten    --     14.9672                 7.7222               109.8647

                     46                     47                     48
                      A                      A                      A
 Frequencies --   1480.1890              1502.4841              1503.2263
 Red. masses --      1.1602                 1.0868                 1.0950
 Frc consts  --      1.4977                 1.4456                 1.4579
 IR Inten    --      1.5996                 9.2776                 0.8769

                     49                     50                     51
                      A                      A                      A
 Frequencies --   1506.4009              1509.3657              1515.1440
 Red. masses --      1.2418                 1.0491                 1.5467
 Frc consts  --      1.6603                 1.4082                 2.0920
 IR Inten    --     17.8615                 5.3346                42.8727

                     52                     53                     54
                      A                      A                      A
 Frequencies --   1515.2600              1516.3713              1525.6118
 Red. masses --      1.0967                 1.5668                 1.1138
 Frc consts  --      1.4835                 2.1227                 1.5274
 IR Inten    --      9.2149                26.8280                14.9582

                     55                     56                     57
                      A                      A                      A
 Frequencies --   1530.3086              1552.6798              1580.6231
 Red. masses --      1.1185                 1.0578                 4.2945
 Frc consts  --      1.5433                 1.5026                 6.3215
 IR Inten    --      2.9767                 3.2632               138.8143

                     58                     59                     60
                      A                      A                      A
 Frequencies --   1700.4724              3000.6895              3034.6436
 Red. masses --      8.4632                 1.0494                 1.0602
 Frc consts  --     14.4187                 5.5669                 5.7523
 IR Inten    --     63.2980                58.1349                31.3995

                     61                     62                     63
                      A                      A                      A
 Frequencies --   3050.0233              3057.2871              3063.6523
 Red. masses --      1.0625                 1.0376                 1.0304
 Frc consts  --      5.8234                 5.7142                 5.6980
 IR Inten    --     30.8002                20.7637                35.2293

                     64                     65                     66
                      A                      A                      A
 Frequencies --   3073.1774              3076.6686              3097.1318
 Red. masses --      1.0863                 1.1037                 1.1004
 Frc consts  --      6.0446                 6.1555                 6.2187
 IR Inten    --     47.7077                44.8546                36.6358

                     67                     68                     69
                      A                      A                      A
 Frequencies --   3113.9024              3113.9960              3133.8263
 Red. masses --      1.1021                 1.1009                 1.1074
 Frc consts  --      6.2962                 6.2899                 6.4077
 IR Inten    --     30.6271                10.5378                22.0841

                     70                     71                     72
                      A                      A                      A
 Frequencies --   3148.1733              3178.5271              3506.2425
 Red. masses --      1.1011                 1.1061                 1.0733
 Frc consts  --      6.4295                 6.5843                 7.7743
 IR Inten    --     10.5215                19.0308                 0.4980

 - Thermochemistry -
 -------------------
 Temperature   298.150 Kelvin.  Pressure   1.00000 Atm.
 Atom     1 has atomic number  6 and mass  12.00000

 Molecular mass:   170.10553 amu.
 Principal axes and moments of inertia in atomic units:
                           1         2         3
     Eigenvalues --  1603.908432216.932903518.56215
           X            0.99695   0.07802   0.00119
           Y           -0.07801   0.99693  -0.00639
           Z           -0.00168   0.00628   0.99998
 This molecule is an asymmetric top.
 Rotational symmetry number  1.
 Warning -- assumption of classical behavior for rotation
           may cause significant error
 Rotational temperatures (Kelvin)      0.05400     0.03907     0.02462
 Rotational constants (GHZ):           1.12521     0.81407     0.51292
 Zero-point vibrational energy     584303.8 (Joules/Mol)
                                  139.65197 (Kcal/Mol)
 Warning -- explicit consideration of  18 degrees of freedom as
           vibrations may cause significant error
 Vibrational temperatures:     25.87   115.73   124.62   141.18   175.58
          (Kelvin)            206.59   229.93   267.34   287.95   319.16
                              401.24   458.88   495.10   552.44   624.10
                              725.27   749.40   874.05   904.01  1019.34
                             1058.74  1091.89  1123.50  1217.18  1340.41
                             1375.88  1404.64  1457.37  1488.22  1503.51
                             1549.28  1583.07  1681.75  1682.46  1709.00
                             1724.03  1759.21  1788.97  1828.45  1887.17
                             1909.44  1995.26  2024.34  2069.88  2113.57
                             2129.66  2161.74  2162.81  2167.37  2171.64
                             2179.95  2180.12  2181.72  2195.02  2201.77
                             2233.96  2274.16  2446.60  4317.32  4366.18
                             4388.30  4398.75  4407.91  4421.62  4426.64
                             4456.08  4480.21  4480.35  4508.88  4529.52
                             4573.19  5044.70

 Zero-point correction=                           0.222550 (Hartree/Particle)
 Thermal correction to Energy=                    0.235700
 Thermal correction to Enthalpy=                  0.236644
 Thermal correction to Gibbs Free Energy=         0.181840
 Sum of electronic and zero-point Energies=           -572.986556
 Sum of electronic and thermal Energies=              -572.973405
 Sum of electronic and thermal Enthalpies=            -572.972461
 Sum of electronic and thermal Free Energies=         -573.027266

                     E (Thermal)             CV                S
                      KCal/Mol        Cal/Mol-Kelvin    Cal/Mol-Kelvin
 Total                  147.904             46.741            115.346
 Electronic               0.000              0.000              0.000
 Translational            0.889              2.981             41.302
 Rotational               0.889              2.981             30.904
 Vibrational            146.127             40.779             43.141
 Vibration     1          0.593              1.986              6.846
 Vibration     2          0.600              1.962              3.880
 Vibration     3          0.601              1.959              3.735
 Vibration     4          0.604              1.950              3.491
 Vibration     5          0.610              1.931              3.068
 Vibration     6          0.616              1.910              2.756
 Vibration     7          0.622              1.892              2.552
 Vibration     8          0.632              1.859              2.269
 Vibration     9          0.638              1.840              2.132
 Vibration    10          0.648              1.808              1.944
 Vibration    11          0.679              1.713              1.541
 Vibration    12          0.705              1.637              1.316
 Vibration    13          0.723              1.587              1.193
 Vibration    14          0.753              1.504              1.024
 Vibration    15          0.795              1.397              0.846
 Vibration    16          0.859              1.241              0.648
 Vibration    17          0.876              1.204              0.608
 Vibration    18          0.966              1.016              0.437

 Optimization completed.
    -- Stationary point found.
 Normal termination of Gaussian 16 at Wed Dec  9 17:29:24 2020.

 ----------------------------------------------------------------------
 # B3LYP/6-311++G(d,p) empiricaldispersion=gd3bj scf=xqc pop=npa geom=c
 heck
 ----------------------------------------------------------------------

 --------------------------------------
 CID_82598195_JID_2418_Energie_neutraal
 --------------------------------------
 Structure from the checkpoint file:  "JID_2418.chk"
 Charge =  0 Multiplicity = 1

 SCF Done:  E(RB3LYP) =  -573.372049777     A.U. after   15 cycles
 Normal termination of Gaussian 16 at Wed Dec  9 17:31:51 2020.

 ----------------------------------------------------------------------
 # B3LYP/6-311++G(d,p) empiricaldispersion=gd3bj scf=xqc pop=npa geom=c
 heck
 ----------------------------------------------------------------------

 ------------------------------------
 CID_82598195_JID_2418_Energie_kation
 ------------------------------------
 Structure from the checkpoint file:  "JID_2418.chk"
 Charge =  1 Multiplicity = 2

 SCF Done:  E(UB3LYP) =  -573.075167978     A.U. after   28 cycles
 Normal termination of Gaussian 16 at Wed Dec  9 17:37:32 2020.
 Gaussian 16:  ES64L-G16RevA.03 25-Dec-2016

 ----------------------------------------------------------------------
 # B3LYP/6-311++G(d,p) empiricaldispersion=gd3bj scf=xqc pop=npa geom=c
 heck
 ----------------------------------------------------------------------

 -----------------------------------
 CID_82598195_JID_2418_Energie_anion
 -----------------------------------
 Structure from the checkpoint file:  "JID_2418.chk"
 Charge = -1 Multiplicity = 2

                         Standard orientation:
 ---------------------------------------------------------------------
 Center     Atomic      Atomic             Coordinates (Angstroms)
 Number     Number       Type             X           Y           Z
 ---------------------------------------------------------------------
      1          6           0       -2.823924   -1.738080   -0.025952
      2          6           0       -1.915092   -0.560764    0.003630
      3          6           0       -0.617114   -0.395857    0.392666
      4          6           0       -0.397376    0.996951    0.140435
      5          7           0       -1.449902    1.618015   -0.343449
      6          8           0       -2.431830    0.613825   -0.432220
      7          8           0        0.772624    1.614512    0.376968
      8          6           0        0.802399    3.018809    0.090206
      9          6           0        0.365350   -1.402081    0.907429
     10          6           0        1.267378   -1.997252   -0.205108
     11          7           0        2.166868   -1.078023   -0.887160
     12          6           0        3.225382   -0.530386   -0.045446
     13          1           0       -3.762663   -1.518645    0.494180
     14          1           0       -3.072668   -2.018580   -1.056096
     15          1           0       -2.347602   -2.594795    0.457515
     16          1           0        0.588870    3.199490   -0.967931
     17          1           0        0.062187    3.549618    0.696794
     18          1           0        1.811469    3.347686    0.339909
     19          1           0        0.988962   -0.940108    1.681126
     20          1           0       -0.173896   -2.225148    1.393277
     21          1           0        1.878564   -2.798559    0.230705
     22          1           0        0.620710   -2.461829   -0.960591
     23          1           0        1.629464   -0.313750   -1.290896
     24          1           0        3.846757   -1.354549    0.325343
     25          1           0        3.864098    0.118115   -0.654375
     26          1           0        2.878611    0.056367    0.820164
 ---------------------------------------------------------------------

 SCF Done:  E(UB3LYP) =  -573.357572261     A.U. after   33 cycles
 SCF Done:  E(UB3LYP) =  -573.357572261     a.u. after    1 cycles

 The electronic state is 2-A.
 Alpha  occ. eigenvalues --  -19.10162 -19.07406 -14.24947 -14.19414 -10.16308
 Alpha  occ. eigenvalues --  -10.14237 -10.13013 -10.09140 -10.08204 -10.08095
 Alpha  occ. eigenvalues --  -10.08069 -10.07643  -1.03919  -0.99021  -0.80212
 Alpha  occ. eigenvalues --   -0.76320  -0.72425  -0.65023  -0.63363  -0.61085
 Alpha  occ. eigenvalues --   -0.57152  -0.51856  -0.49168  -0.47468  -0.42532
 Alpha  occ. eigenvalues --   -0.40186  -0.38615  -0.37169  -0.36407  -0.36348
 Alpha  occ. eigenvalues --   -0.34642  -0.32603  -0.31553  -0.31322  -0.31122
 Alpha  occ. eigenvalues --   -0.29757  -0.28439  -0.28040  -0.26594  -0.26040
 Alpha  occ. eigenvalues --   -0.25616  -0.24494  -0.20855  -0.16165  -0.15529
 Alpha  occ. eigenvalues --   -0.12079   0.04463
 Alpha virt. eigenvalues --    0.06024   0.07416   0.08329   0.08618   0.09189
 Alpha virt. eigenvalues --    0.09701   0.09947   0.10248   0.11347   0.11580
 Alpha virt. eigenvalues --    0.12552   0.12992   0.13599   0.14097   0.15307

  Beta  occ. eigenvalues --  -19.10153 -19.07400 -14.24941 -14.19407 -10.16309
  Beta  occ. eigenvalues --  -10.14224 -10.12979 -10.09120 -10.08204 -10.08044
  Beta  occ. eigenvalues --  -10.08035 -10.07617  -1.03906  -0.99011  -0.80192
  Beta  occ. eigenvalues --   -0.76306  -0.72398  -0.64969  -0.63311  -0.61026
  Beta  occ. eigenvalues --   -0.57099  -0.51814  -0.49133  -0.47413  -0.42504
  Beta  occ. eigenvalues --   -0.40157  -0.38583  -0.37127  -0.36345  -0.36308
  Beta  occ. eigenvalues --   -0.34608  -0.32560  -0.31499  -0.31268  -0.31078
  Beta  occ. eigenvalues --   -0.29716  -0.28405  -0.28004  -0.26561  -0.26017
  Beta  occ. eigenvalues --   -0.25580  -0.24466  -0.20832  -0.16151  -0.15493
  Beta  occ. eigenvalues --   -0.12059
  Beta virt. eigenvalues --    0.06749   0.07361   0.07994   0.08669   0.09087
  Beta virt. eigenvalues --    0.09615   0.10214   0.10657   0.10777   0.11574
  Beta virt. eigenvalues --    0.12238   0.12995   0.13352   0.13938   0.14115

 Mulliken charges and spin densities:
               1          2
     1  C    2.986856  -3.459700
     2  C   -0.961220   0.418640
     3  C   -0.131186   1.096909
     4  C   -0.536213   0.054516
     5  N   -0.538243   0.133596
     6  O    0.200974  -0.015712
     7  O   -0.180096   0.059184
     8  C    0.596885  -0.931866
     9  C   -0.416866   0.404459
    10  C    0.360294  -0.991649
    11  N   -0.228946   0.148807
    12  C    0.365822  -0.816950
    13  H   -0.318196   0.482564
    14  H   -0.458416   0.648247
    15  H   -0.359363   0.510482
    16  H   -0.021073   0.203186
    17  H   -0.069343   0.244790
    18  H   -0.470997   0.627264
    19  H   -0.003653   0.193228
    20  H   -0.560862   0.753884
    21  H   -0.187523   0.323362
    22  H    0.001673   0.186403
    23  H    0.109087   0.135873
    24  H   -0.144627   0.280514
    25  H   -0.149059   0.292364
    26  H    0.114290   0.017608
 Sum of Mulliken charges =  -1.00000   1.00000

 Dipole moment (field-independent basis, Debye):
    X=              0.5081    Y=              2.7052    Z=             -0.0663  Tot=              2.7533
 Quadrupole moment (field-independent basis, Debye-Ang):
   XX=           -134.5936   YY=           -132.0061   ZZ=           -102.3759
   XY=            -11.1107   XZ=             -0.0936   YZ=              1.8028

 Summary of Natural Population Analysis:

                                       Natural Population
                Natural  -----------------------------------------------
    Atom  No    Charge         Core      Valence    Rydberg      Total
 -----------------------------------------------------------------------
      C    1   -0.30989      0.99962     2.30387    0.00640     3.30989
      C    2    0.18736      0.99944     1.79900    0.01420     2.81264
      C    3   -0.09688      0.99940     2.08513    0.01234     3.09688
      C    4    0.24773      0.99944     1.73512    0.01771     2.75227
      N    5   -0.12580      0.99965     2.61428    0.01187     3.62580
      O    6   -0.17247      0.99985     3.16356    0.00906     4.17247
      O    7   -0.26947      0.99985     3.25960    0.01002     4.26947
      C    8   -0.10160      0.99959     2.09286    0.00915     3.10160
      C    9   -0.20972      0.99960     2.20050    0.00962     3.20972
      C   10   -0.08058      0.99962     2.06871    0.01224     3.08058
      N   11   -0.33889      0.99976     2.82773    0.01141     3.83889
      C   12   -0.17893      0.99966     2.17187    0.00741     3.17893
      H   13    0.11108      0.00000     0.38753    0.00139     0.38892
      H   14    0.11372      0.00000     0.38417    0.00211     0.38628
      H   15    0.11454      0.00000     0.38300    0.00247     0.38546
      H   16    0.08990      0.00000     0.40861    0.00149     0.41010
      H   17    0.08980      0.00000     0.40881    0.00140     0.41020
      H   18    0.09426      0.00000     0.40428    0.00146     0.40574
      H   19    0.10548      0.00000     0.39286    0.00166     0.39452
      H   20    0.10934      0.00000     0.38860    0.00207     0.39066
      H   21    0.09086      0.00000     0.40784    0.00129     0.40914
      H   22    0.09330      0.00000     0.40521    0.00149     0.40670
      H   23    0.17151      0.00000     0.32473    0.00376     0.32849
      H   24    0.08759      0.00000     0.41106    0.00134     0.41241
      H   25    0.09363      0.00000     0.40507    0.00130     0.40637
      H   26    0.08415      0.00000     0.41367    0.00218     0.41585
 =======================================================================
   * Total *   -0.00000     11.99549    33.84767    0.15684    46.00000

 Normal termination of Gaussian 16 at Wed Dec  9 17:44:59 2020.
