 Gaussian 16, Revision A.03,

 -----------------------------------------------------------
 # opt freq B3LYP/6-31G(d) empiricaldispersion=gd3bj scf=xqc
 -----------------------------------------------------------

 ------------------------------
 CID_16729522_JID_6107_neutraal
 ------------------------------
 Symbolic Z-matrix:
 Charge =  0 Multiplicity = 1

 SCF Done:  E(RB3LYP) =  -1080.70789744     A.U. after   15 cycles
 SCF Done:  E(RB3LYP) =  -1080.71510208     A.U. after   13 cycles
 SCF Done:  E(RB3LYP) =  -1080.71681236     A.U. after   12 cycles
 SCF Done:  E(RB3LYP) =  -1080.71696860     A.U. after   13 cycles
 SCF Done:  E(RB3LYP) =  -1080.71557181     A.U. after   13 cycles
 SCF Done:  E(RB3LYP) =  -1080.71691516     A.U. after   12 cycles
 SCF Done:  E(RB3LYP) =  -1080.71765539     A.U. after    9 cycles
 SCF Done:  E(RB3LYP) =  -1080.71789681     A.U. after   13 cycles
 SCF Done:  E(RB3LYP) =  -1080.71807596     A.U. after   12 cycles
 SCF Done:  E(RB3LYP) =  -1080.71815733     A.U. after   10 cycles
 SCF Done:  E(RB3LYP) =  -1080.71822855     A.U. after    8 cycles
 SCF Done:  E(RB3LYP) =  -1080.71822871     A.U. after    7 cycles
 SCF Done:  E(RB3LYP) =  -1080.71822878     A.U. after    8 cycles
 SCF Done:  E(RB3LYP) =  -1080.71822882     A.U. after    8 cycles
 SCF Done:  E(RB3LYP) =  -1080.71822885     A.U. after    8 cycles
 SCF Done:  E(RB3LYP) =  -1080.71822886     A.U. after    7 cycles
 Optimization completed.
    -- Stationary point found.
 Normal termination of Gaussian 16 at Thu Dec 10 21:16:32 2020.

 --------------------------------------------------------------------
 #N Geom=AllCheck Guess=TCheck SCRF=Check GenChk RB3LYP/6-31G(d) Freq
 --------------------------------------------------------------------

 Structure from the checkpoint file:  "JID_6107.chk"
 ------------------------------
 CID_16729522_JID_6107_neutraal
 ------------------------------
 Charge =  0 Multiplicity = 1

 SCF Done:  E(RB3LYP) =  -1080.71822886     A.U. after    1 cycles

  Exact polarizability: 193.243   5.720 153.180 -18.395   5.904 100.628
 Approx polarizability: 296.198  25.895 267.167 -45.636  19.314 160.928

                      1                      2                      3
                      A                      A                      A
 Frequencies --     21.2665                31.1662                57.1178
 Red. masses --      4.7576                 6.3712                 3.7034
 Frc consts  --      0.0013                 0.0036                 0.0071
 IR Inten    --      0.6510                 1.0586                 1.1534

                      4                      5                      6
                      A                      A                      A
 Frequencies --     86.0543               103.4579               128.8788
 Red. masses --      4.5165                 2.6717                 4.4657
 Frc consts  --      0.0197                 0.0168                 0.0437
 IR Inten    --      0.0620                 0.6472                 1.5269

                      7                      8                      9
                      A                      A                      A
 Frequencies --    155.9790               196.6528               217.5907
 Red. masses --      4.0206                 4.1982                 5.1970
 Frc consts  --      0.0576                 0.0957                 0.1450
 IR Inten    --      2.6950                 1.6362                 4.7987

                     10                     11                     12
                      A                      A                      A
 Frequencies --    229.4570               249.1536               279.2838
 Red. masses --      5.2653                 5.4628                 3.6820
 Frc consts  --      0.1633                 0.1998                 0.1692
 IR Inten    --      1.5352                 0.7387                 0.8277

                     13                     14                     15
                      A                      A                      A
 Frequencies --    333.3590               354.5869               395.0766
 Red. masses --      3.2643                 2.5953                 7.7284
 Frc consts  --      0.2137                 0.1923                 0.7107
 IR Inten    --      1.0001                 6.3643                 0.9099

                     16                     17                     18
                      A                      A                      A
 Frequencies --    413.8993               461.7622               540.8694
 Red. masses --      2.4406                 3.3721                 3.6765
 Frc consts  --      0.2463                 0.4236                 0.6337
 IR Inten    --      1.0649                 5.3536                 1.5572

                     19                     20                     21
                      A                      A                      A
 Frequencies --    557.4483               577.4497               590.9701
 Red. masses --      4.6636                 1.1632                 3.3781
 Frc consts  --      0.8539                 0.2285                 0.6951
 IR Inten    --     14.7818               140.5483                 1.6804

                     22                     23                     24
                      A                      A                      A
 Frequencies --    602.5955               648.9112               662.4240
 Red. masses --      2.0962                 6.6409                 7.4541
 Frc consts  --      0.4485                 1.6476                 1.9272
 IR Inten    --      1.6609                 0.4602                 1.3031

                     25                     26                     27
                      A                      A                      A
 Frequencies --    667.8722               735.3121               742.3485
 Red. masses --      6.3477                 2.8954                 4.5265
 Frc consts  --      1.6682                 0.9224                 1.4697
 IR Inten    --      9.6730                 9.6293                23.4490

                     28                     29                     30
                      A                      A                      A
 Frequencies --    805.4084               849.7413               872.0914
 Red. masses --      4.1366                 1.5554                 5.5397
 Frc consts  --      1.5810                 0.6617                 2.4823
 IR Inten    --     16.7697                 6.5106                44.2239

                     31                     32                     33
                      A                      A                      A
 Frequencies --    894.6654               901.1102               949.1243
 Red. masses --      1.9610                 1.9471                 1.3608
 Frc consts  --      0.9248                 0.9315                 0.7223
 IR Inten    --      1.3448                30.7932                44.0277

                     34                     35                     36
                      A                      A                      A
 Frequencies --    952.7198               957.5252               974.7955
 Red. masses --      2.2956                 2.1532                 1.4672
 Frc consts  --      1.2277                 1.1632                 0.8214
 IR Inten    --     17.7097                24.5589                 3.8680

                     37                     38                     39
                      A                      A                      A
 Frequencies --    980.7319              1029.6647              1072.6399
 Red. masses --      4.5680                 1.1032                 2.9248
 Frc consts  --      2.5887                 0.6891                 1.9827
 IR Inten    --     49.3339                18.8856                 2.9932

                     40                     41                     42
                      A                      A                      A
 Frequencies --   1100.6666              1112.9325              1142.1516
 Red. masses --      2.4836                 1.4235                 2.9549
 Frc consts  --      1.7727                 1.0388                 2.2712
 IR Inten    --     59.3937                 3.9850                43.1493

                     43                     44                     45
                      A                      A                      A
 Frequencies --   1181.0358              1219.6013              1233.3801
 Red. masses --      4.3119                 3.5266                 1.3981
 Frc consts  --      3.5436                 3.0906                 1.2531
 IR Inten    --     17.7457                73.0530                 7.6726

                     46                     47                     48
                      A                      A                      A
 Frequencies --   1249.9220              1273.9351              1278.4271
 Red. masses --      1.2966                 2.1009                 1.2624
 Frc consts  --      1.1935                 2.0089                 1.2156
 IR Inten    --     26.2124                 2.4223                12.7301

                     49                     50                     51
                      A                      A                      A
 Frequencies --   1299.2212              1310.1104              1340.6760
 Red. masses --      1.5569                 5.7600                 1.2418
 Frc consts  --      1.5484                 5.8249                 1.3151
 IR Inten    --     97.0661                 8.9167                 0.3974

                     52                     53                     54
                      A                      A                      A
 Frequencies --   1354.9690              1382.7397              1404.8282
 Red. masses --      3.3192                 2.3454                 1.4103
 Frc consts  --      3.5904                 2.6421                 1.6399
 IR Inten    --     22.2426                63.7206                 2.0796

                     55                     56                     57
                      A                      A                      A
 Frequencies --   1417.8805              1460.5433              1470.0793
 Red. masses --      1.2648                 3.1674                 1.1726
 Frc consts  --      1.4981                 3.9809                 1.4930
 IR Inten    --     13.2068                46.3815                 2.7790

                     58                     59                     60
                      A                      A                      A
 Frequencies --   1479.4714              1495.9515              1503.7144
 Red. masses --      1.3638                 2.3775                 1.2007
 Frc consts  --      1.7588                 3.1348                 1.5996
 IR Inten    --     99.3653                56.8606                37.2775

                     61                     62                     63
                      A                      A                      A
 Frequencies --   1510.3078              1520.9289              1531.8206
 Red. masses --      1.2958                 3.2824                 1.1373
 Frc consts  --      1.7414                 4.4736                 1.5723
 IR Inten    --      6.6930                29.0825                 4.8550

                     64                     65                     66
                      A                      A                      A
 Frequencies --   1593.4371              1617.6399              1730.1649
 Red. masses --      6.2643                10.6851                 4.3703
 Frc consts  --      9.3712                16.4738                 7.7079
 IR Inten    --    220.3701               125.4703                 3.2402

                     67                     68                     69
                      A                      A                      A
 Frequencies --   2996.2180              3072.6956              3076.1203
 Red. masses --      1.0715                 1.0669                 1.0636
 Frc consts  --      5.6674                 5.9351                 5.9295
 IR Inten    --     55.2288                10.9357                17.8238

                     70                     71                     72
                      A                      A                      A
 Frequencies --   3101.6839              3143.1413              3144.9821
 Red. masses --      1.0928                 1.1024                 1.0956
 Frc consts  --      6.1942                 6.4167                 6.3847
 IR Inten    --     61.7979                 4.3524                 5.6526

                     73                     74                     75
                      A                      A                      A
 Frequencies --   3168.6184              3178.5174              3203.3075
 Red. masses --      1.0610                 1.0909                 1.0912
 Frc consts  --      6.2763                 6.4937                 6.5970
 IR Inten    --      8.5471                 4.9129                28.3329

                     76                     77                     78
                      A                      A                      A
 Frequencies --   3250.3689              3286.3525              3648.9583
 Red. masses --      1.1160                 1.0956                 1.0655
 Frc consts  --      6.9469                 6.9714                 8.3588
 IR Inten    --     13.4857                 3.4098               182.2792

 - Thermochemistry -
 -------------------
 Temperature   298.150 Kelvin.  Pressure   1.00000 Atm.
 Atom     1 has atomic number  6 and mass  12.00000

 Molecular mass:   236.07318 amu.
 Principal axes and moments of inertia in atomic units:
                           1         2         3
     Eigenvalues --  2202.114685814.500327103.49060
           X            0.99974  -0.02216   0.00486
           Y            0.02217   0.99975  -0.00305
           Z           -0.00479   0.00316   0.99998
 This molecule is an asymmetric top.
 Rotational symmetry number  1.
 Warning -- assumption of classical behavior for rotation
           may cause significant error
 Rotational temperatures (Kelvin)      0.03933     0.01490     0.01219
 Rotational constants (GHZ):           0.81955     0.31039     0.25406
 Zero-point vibrational energy     578805.1 (Joules/Mol)
                                  138.33775 (Kcal/Mol)
 Warning -- explicit consideration of  22 degrees of freedom as
           vibrations may cause significant error
 Vibrational temperatures:     30.60    44.84    82.18   123.81   148.85
          (Kelvin)            185.43   224.42   282.94   313.06   330.14
                              358.48   401.83   479.63   510.17   568.43
                              595.51   664.37   778.19   802.04   830.82
                              850.27   867.00   933.64   953.08   960.92
                             1057.95  1068.07  1158.80  1222.59  1254.75
                             1287.22  1296.50  1365.58  1370.75  1377.67
                             1402.51  1411.05  1481.46  1543.29  1583.61
                             1601.26  1643.30  1699.25  1754.73  1774.56
                             1798.36  1832.91  1839.37  1869.29  1884.96
                             1928.93  1949.50  1989.45  2021.23  2040.01
                             2101.40  2115.12  2128.63  2152.34  2163.51
                             2173.00  2188.28  2203.95  2292.60  2327.42
                             2489.32  4310.89  4420.92  4425.85  4462.63
                             4522.28  4524.93  4558.94  4573.18  4608.85
                             4676.56  4728.33  5250.04

 Zero-point correction=                           0.220455 (Hartree/Particle)
 Thermal correction to Energy=                    0.235148
 Thermal correction to Enthalpy=                  0.236092
 Thermal correction to Gibbs Free Energy=         0.176572
 Sum of electronic and zero-point Energies=          -1080.497774
 Sum of electronic and thermal Energies=             -1080.483081
 Sum of electronic and thermal Enthalpies=           -1080.482137
 Sum of electronic and thermal Free Energies=        -1080.541657

                     E (Thermal)             CV                S
                      KCal/Mol        Cal/Mol-Kelvin    Cal/Mol-Kelvin
 Total                  147.557             54.668            125.270
 Electronic               0.000              0.000              0.000
 Translational            0.889              2.981             42.278
 Rotational               0.889              2.981             32.875
 Vibrational            145.780             48.706             50.116
 Vibration     1          0.593              1.985              6.512
 Vibration     2          0.594              1.983              5.754
 Vibration     3          0.596              1.975              4.554
 Vibration     4          0.601              1.959              3.748
 Vibration     5          0.605              1.946              3.388
 Vibration     6          0.611              1.924              2.963
 Vibration     7          0.620              1.896              2.598
 Vibration     8          0.636              1.845              2.164
 Vibration     9          0.646              1.814              1.979
 Vibration    10          0.652              1.796              1.883
 Vibration    11          0.662              1.764              1.737
 Vibration    12          0.680              1.712              1.538
 Vibration    13          0.715              1.609              1.244
 Vibration    14          0.730              1.566              1.146
 Vibration    15          0.762              1.481              0.981
 Vibration    16          0.777              1.440              0.913
 Vibration    17          0.819              1.335              0.761
 Vibration    18          0.896              1.160              0.563
 Vibration    19          0.913              1.123              0.529
 Vibration    20          0.934              1.080              0.490
 Vibration    21          0.948              1.051              0.465
 Vibration    22          0.961              1.026              0.445

                           ! Non-Optimized Parameters !
 Normal termination of Gaussian 16 at Thu Dec 10 21:25:16 2020.

 ----------------------------------------------------------------------
 # B3LYP/6-311++G(d,p) empiricaldispersion=gd3bj scf=xqc pop=npa geom=c
 heck
 ----------------------------------------------------------------------

 --------------------------------------
 CID_16729522_JID_6107_Energie_neutraal
 --------------------------------------
 Structure from the checkpoint file:  "JID_6107.chk"
 Charge =  0 Multiplicity = 1

 SCF Done:  E(RB3LYP) =  -1080.93534137     A.U. after   16 cycles
 Normal termination of Gaussian 16 at Thu Dec 10 21:28:54 2020.

 ----------------------------------------------------------------------
 # B3LYP/6-311++G(d,p) empiricaldispersion=gd3bj scf=xqc pop=npa geom=c
 heck
 ----------------------------------------------------------------------

 ------------------------------------
 CID_16729522_JID_6107_Energie_kation
 ------------------------------------
 Structure from the checkpoint file:  "JID_6107.chk"
 Charge =  1 Multiplicity = 2

 SCF Done:  E(UB3LYP) =  -1080.62485000     A.U. after   28 cycles
 Normal termination of Gaussian 16 at Thu Dec 10 21:40:01 2020.
 Gaussian 16:  ES64L-G16RevA.03 25-Dec-2016

 ----------------------------------------------------------------------
 # B3LYP/6-311++G(d,p) empiricaldispersion=gd3bj scf=xqc pop=npa geom=c
 heck
 ----------------------------------------------------------------------

 -----------------------------------
 CID_16729522_JID_6107_Energie_anion
 -----------------------------------
 Structure from the checkpoint file:  "JID_6107.chk"
 Charge = -1 Multiplicity = 2

                         Standard orientation:
 ---------------------------------------------------------------------
 Center     Atomic      Atomic             Coordinates (Angstroms)
 Number     Number       Type             X           Y           Z
 ---------------------------------------------------------------------
      1          6           0        2.114173   -2.322964    1.592784
      2          6           0        3.039296   -1.580854    0.984308
      3          6           0        3.113863   -1.367061   -0.494882
      4         16           0        3.038005    0.423600   -0.956108
      5          6           0        1.471785    0.966825   -0.328311
      6          7           0        1.459644    2.242148    0.059285
      7          6           0        0.309827    2.764458    0.533420
      8          7           0       -0.860280    2.154787    0.697950
      9          6           0       -0.833149    0.882324    0.279600
     10          6           0        0.286510    0.202662   -0.270745
     11          6           0       -0.229011   -1.076885   -0.626911
     12          7           0       -1.508517   -1.176736   -0.307639
     13          7           0       -1.877689    0.014105    0.252894
     14          6           0       -3.251494    0.247210    0.680535
     15          6           0       -4.253173   -0.154189   -0.404929
     16          8           0       -4.325944   -1.551883   -0.586508
     17          1           0        1.330686   -2.835364    1.040922
     18          1           0        2.107595   -2.446623    2.671655
     19          1           0        3.800086   -1.067428    1.569842
     20          1           0        4.096473   -1.656206   -0.885803
     21          1           0        2.366263   -1.948382   -1.036883
     22          1           0        0.357734    3.810012    0.826903
     23          1           0        0.259138   -1.910827   -1.107633
     24          1           0       -3.447227   -0.330126    1.590693
     25          1           0       -3.316035    1.313049    0.914018
     26          1           0       -5.249853    0.178059   -0.096169
     27          1           0       -3.997617    0.374528   -1.338261
     28          1           0       -3.411626   -1.852506   -0.746148
 ---------------------------------------------------------------------

 SCF Done:  E(UB3LYP) =  -1080.95646330     A.U. after   23 cycles

 The electronic state is 2-A.
 Alpha  occ. eigenvalues --  -88.71876 -19.00476 -14.24780 -14.18920 -14.15436
 Alpha  occ. eigenvalues --  -14.14943 -10.11542 -10.09962 -10.09843 -10.09219
 Alpha  occ. eigenvalues --  -10.07668 -10.07453 -10.07222 -10.06354 -10.05606
 Alpha  occ. eigenvalues --  -10.03588  -7.80443  -5.76843  -5.76431  -5.75863
 Alpha  occ. eigenvalues --   -0.92274  -0.90608  -0.82552  -0.74834  -0.71580
 Alpha  occ. eigenvalues --   -0.70330  -0.65495  -0.62890  -0.61756  -0.55987
 Alpha  occ. eigenvalues --   -0.53087  -0.50279  -0.49760  -0.45808  -0.43734
 Alpha  occ. eigenvalues --   -0.40834  -0.39807  -0.37634  -0.37232  -0.34332
 Alpha  occ. eigenvalues --   -0.33814  -0.33500  -0.33104  -0.32160  -0.30349
 Alpha  occ. eigenvalues --   -0.29118  -0.28997  -0.27957  -0.26685  -0.25545
 Alpha  occ. eigenvalues --   -0.24790  -0.23651  -0.21025  -0.18778  -0.17713
 Alpha  occ. eigenvalues --   -0.16701  -0.16049  -0.14900  -0.13119  -0.11908
 Alpha  occ. eigenvalues --   -0.11046  -0.09529   0.03739
 Alpha virt. eigenvalues --    0.07954   0.08499   0.09220   0.09537   0.10120
 Alpha virt. eigenvalues --    0.10657   0.10799   0.11774   0.12455   0.12612
 Alpha virt. eigenvalues --    0.13155   0.13427   0.13990   0.14507   0.15108

  Beta  occ. eigenvalues --  -88.71873 -19.00473 -14.24756 -14.18442 -14.15501
  Beta  occ. eigenvalues --  -14.14552 -10.11542 -10.09964 -10.09889 -10.09165
  Beta  occ. eigenvalues --  -10.07661 -10.07244 -10.06587 -10.06351 -10.05494
  Beta  occ. eigenvalues --  -10.03614  -7.80439  -5.76846  -5.76448  -5.75824
  Beta  occ. eigenvalues --   -0.92059  -0.90472  -0.82046  -0.74279  -0.71317
  Beta  occ. eigenvalues --   -0.70238  -0.65059  -0.62712  -0.61633  -0.55568
  Beta  occ. eigenvalues --   -0.53011  -0.49907  -0.49500  -0.45766  -0.43540
  Beta  occ. eigenvalues --   -0.40728  -0.39630  -0.37449  -0.36938  -0.34217
  Beta  occ. eigenvalues --   -0.33606  -0.33397  -0.32774  -0.31965  -0.30246
  Beta  occ. eigenvalues --   -0.28949  -0.28748  -0.27644  -0.26415  -0.25382
  Beta  occ. eigenvalues --   -0.23840  -0.23252  -0.20363  -0.17487  -0.17357
  Beta  occ. eigenvalues --   -0.16480  -0.15945  -0.14512  -0.11945  -0.11363
  Beta  occ. eigenvalues --   -0.10837  -0.08247
  Beta virt. eigenvalues --    0.07847   0.08486   0.09203   0.09470   0.09919
  Beta virt. eigenvalues --    0.10347   0.10761   0.10945   0.11773   0.12449
  Beta virt. eigenvalues --    0.12640   0.13151   0.13749   0.14003   0.14592

 Mulliken charges and spin densities:
               1          2
     1  C   -0.664893  -0.007031
     2  C    0.189690   0.049390
     3  C   -0.200960  -0.075750
     4  S   -0.362753   0.090882
     5  C   -0.017811   0.386215
     6  N   -0.042819  -0.031544
     7  C    0.032264   0.163000
     8  N   -0.231894   0.177236
     9  C   -0.549083  -0.078606
    10  C    0.614411   0.002438
    11  C   -0.823951   0.054526
    12  N   -0.289943   0.226202
    13  N    0.310472  -0.009382
    14  C   -0.125020  -0.004468
    15  C   -0.354654  -0.001398
    16  O   -0.292152   0.000892
    17  H    0.129325   0.001779
    18  H    0.103063   0.000558
    19  H    0.152221  -0.003262
    20  H    0.126969   0.063374
    21  H    0.150622  -0.014761
    22  H    0.166625  -0.013903
    23  H    0.113062   0.013187
    24  H    0.148470   0.014170
    25  H    0.157733  -0.002470
    26  H    0.136709  -0.000134
    27  H    0.145275   0.000319
    28  H    0.279024  -0.001459
 Sum of Mulliken charges =  -1.00000   1.00000

 Dipole moment (field-independent basis, Debye):
    X=             -0.2298    Y=             -2.7426    Z=              0.9804  Tot=              2.9216
 Quadrupole moment (field-independent basis, Debye-Ang):
   XX=           -142.5305   YY=           -129.0536   ZZ=           -111.9844
   XY=            -16.8972   XZ=              0.5127   YZ=             -1.3740

 Summary of Natural Population Analysis:

                                       Natural Population
                Natural  -----------------------------------------------
    Atom  No    Charge         Core      Valence    Rydberg      Total
 -----------------------------------------------------------------------
      C    1   -0.18994      0.99957     2.18312    0.00726     3.18994
      C    2   -0.08939      0.99957     2.08021    0.00961     3.08939
      C    3   -0.26455      0.99956     2.25074    0.01425     3.26455
      S    4    0.11750      4.99956     2.86247    0.02047     7.88250
      C    5    0.16352      0.99944     1.81951    0.01753     2.83648
      N    6   -0.28501      0.99966     2.77499    0.01036     3.78501
      C    7    0.17189      0.99968     1.80876    0.01967     2.82811
      N    8   -0.22785      0.99967     2.71856    0.00962     3.72785
      C    9    0.19212      0.99948     1.79247    0.01593     2.80788
      C   10   -0.11623      0.99943     2.10744    0.00936     3.11623
      C   11    0.01257      0.99963     1.97275    0.01504     2.98743
      N   12   -0.10998      0.99970     2.59642    0.01386     3.60998
      N   13   -0.13272      0.99960     2.61653    0.01659     3.63272
      C   14   -0.09596      0.99962     2.08793    0.00841     3.09596
      C   15   -0.01296      0.99962     2.00162    0.01173     3.01296
      O   16   -0.38489      0.99990     3.37775    0.00724     4.38489
      H   17    0.09438      0.00000     0.40426    0.00136     0.40562
      H   18    0.08969      0.00000     0.40922    0.00109     0.41031
      H   19    0.09356      0.00000     0.40529    0.00115     0.40644
      H   20    0.10542      0.00000     0.39323    0.00134     0.39458
      H   21    0.10090      0.00000     0.39727    0.00183     0.39910
      H   22    0.06924      0.00000     0.42949    0.00127     0.43076
      H   23    0.08880      0.00000     0.40955    0.00166     0.41120
      H   24    0.09387      0.00000     0.40482    0.00131     0.40613
      H   25    0.11257      0.00000     0.38611    0.00131     0.38743
      H   26    0.07943      0.00000     0.41920    0.00137     0.42057
      H   27    0.07721      0.00000     0.42150    0.00129     0.42279
      H   28    0.24681      0.00000     0.25034    0.00285     0.25319
 =======================================================================
   * Total *   -0.00000     19.99369    41.78155    0.22475    62.00000

 Normal termination of Gaussian 16 at Thu Dec 10 21:47:19 2020.
