 Gaussian 16, Revision A.03,

 -----------------------------------------------------------
 # opt freq B3LYP/6-31G(d) empiricaldispersion=gd3bj scf=xqc
 -----------------------------------------------------------

 -----------------------------
 CID_4604075_JID_7245_neutraal
 -----------------------------
 Symbolic Z-matrix:
 Charge =  0 Multiplicity = 1

 SCF Done:  E(RB3LYP) =  -731.768880414     A.U. after   15 cycles
 SCF Done:  E(RB3LYP) =  -731.774359919     A.U. after   12 cycles
 SCF Done:  E(RB3LYP) =  -731.774583496     A.U. after   11 cycles
 SCF Done:  E(RB3LYP) =  -731.774294662     A.U. after   12 cycles
 SCF Done:  E(RB3LYP) =  -731.774839496     A.U. after   11 cycles
 SCF Done:  E(RB3LYP) =  -731.774850584     A.U. after   10 cycles
 SCF Done:  E(RB3LYP) =  -731.774867460     A.U. after   11 cycles
 SCF Done:  E(RB3LYP) =  -731.774880959     A.U. after   11 cycles
 SCF Done:  E(RB3LYP) =  -731.774940012     A.U. after   12 cycles
 SCF Done:  E(RB3LYP) =  -731.767358371     A.U. after   14 cycles
 SCF Done:  E(RB3LYP) =  -731.775893193     A.U. after   11 cycles
 SCF Done:  E(RB3LYP) =  -731.775908733     A.U. after   11 cycles
 SCF Done:  E(RB3LYP) =  -731.775918226     A.U. after   11 cycles
 SCF Done:  E(RB3LYP) =  -731.775918821     A.U. after    8 cycles
 SCF Done:  E(RB3LYP) =  -731.775918842     A.U. after    7 cycles
 Optimization completed.
    -- Stationary point found.
 Normal termination of Gaussian 16 at Fri Dec 11 12:02:46 2020.

 --------------------------------------------------------------------
 #N Geom=AllCheck Guess=TCheck SCRF=Check GenChk RB3LYP/6-31G(d) Freq
 --------------------------------------------------------------------

 Structure from the checkpoint file:  "JID_7245.chk"
 -----------------------------
 CID_4604075_JID_7245_neutraal
 -----------------------------
 Charge =  0 Multiplicity = 1

 SCF Done:  E(RB3LYP) =  -731.775918842     A.U. after    1 cycles

  Exact polarizability: 246.410  16.121 168.079   3.401   1.160  79.773
 Approx polarizability: 339.041  31.110 296.594   9.749   9.650 127.308

                      1                      2                      3
                      A                      A                      A
 Frequencies --     13.7977                23.4010                43.9508
 Red. masses --      3.4145                 4.6371                 3.7685
 Frc consts  --      0.0004                 0.0015                 0.0043
 IR Inten    --      0.3243                 0.5124                 0.2330

                      4                      5                      6
                      A                      A                      A
 Frequencies --     71.6842                98.7189               148.8379
 Red. masses --      5.1808                 3.3238                 4.7715
 Frc consts  --      0.0157                 0.0191                 0.0623
 IR Inten    --      0.2526                 1.8682                 0.7246

                      7                      8                      9
                      A                      A                      A
 Frequencies --    179.9027               188.1410               233.1556
 Red. masses --      4.0058                 3.9831                 1.1879
 Frc consts  --      0.0764                 0.0831                 0.0380
 IR Inten    --      1.6688                 1.6065                 0.4279

                     10                     11                     12
                      A                      A                      A
 Frequencies --    237.5129               261.4128               299.0616
 Red. masses --      2.5464                 1.1092                 5.9037
 Frc consts  --      0.0846                 0.0447                 0.3111
 IR Inten    --      1.6555                 0.2267                 3.4572

                     13                     14                     15
                      A                      A                      A
 Frequencies --    323.3102               349.2466               391.9567
 Red. masses --      4.6411                 2.8854                 2.5013
 Frc consts  --      0.2858                 0.2074                 0.2264
 IR Inten    --      1.8859                 3.2771                 4.1954

                     16                     17                     18
                      A                      A                      A
 Frequencies --    410.5276               427.0915               437.7200
 Red. masses --      3.3151                 2.2152                 4.2969
 Frc consts  --      0.3292                 0.2381                 0.4851
 IR Inten    --      0.0181                 0.7015                 5.3916

                     19                     20                     21
                      A                      A                      A
 Frequencies --    486.8229               515.0899               527.2325
 Red. masses --      2.5785                 5.6738                 5.7844
 Frc consts  --      0.3601                 0.8869                 0.9474
 IR Inten    --     10.5784                 0.3312                 0.2972

                     22                     23                     24
                      A                      A                      A
 Frequencies --    542.0283               581.0106               635.9934
 Red. masses --      4.2243                 3.2043                 6.2654
 Frc consts  --      0.7312                 0.6373                 1.4932
 IR Inten    --      0.2314                 3.3757                 3.0240

                     25                     26                     27
                      A                      A                      A
 Frequencies --    648.0878               724.1722               742.2188
 Red. masses --      3.4878                 5.9538                 3.0435
 Frc consts  --      0.8631                 1.8396                 0.9878
 IR Inten    --      1.2563                 4.1563                 9.1621

                     28                     29                     30
                      A                      A                      A
 Frequencies --    767.0191               772.4291               790.3384
 Red. masses --      1.6074                 2.9387                 4.7546
 Frc consts  --      0.5572                 1.0331                 1.7498
 IR Inten    --     21.2944                 0.9549                 0.2860

                     31                     32                     33
                      A                      A                      A
 Frequencies --    829.8085               846.9092               871.3814
 Red. masses --      1.3831                 2.7464                 1.5035
 Frc consts  --      0.5611                 1.1606                 0.6726
 IR Inten    --     24.2748                 2.6181                22.2960

                     34                     35                     36
                      A                      A                      A
 Frequencies --    896.0349               903.9862               920.2284
 Red. masses --      1.6557                 1.8174                 4.0884
 Frc consts  --      0.7832                 0.8750                 2.0399
 IR Inten    --      3.5801                 6.3226                 7.3770

                     37                     38                     39
                      A                      A                      A
 Frequencies --    936.6728               947.1834               952.9375
 Red. masses --      3.1237                 1.2495                 1.3356
 Frc consts  --      1.6147                 0.6605                 0.7146
 IR Inten    --      5.1222                 7.4041                 2.9858

                     40                     41                     42
                      A                      A                      A
 Frequencies --    963.4012               979.2884               983.6308
 Red. masses --      1.3199                 2.8138                 1.5846
 Frc consts  --      0.7218                 1.5899                 0.9033
 IR Inten    --      1.0480                 3.9718                 1.2066

                     43                     44                     45
                      A                      A                      A
 Frequencies --    989.8405               999.1694              1054.2911
 Red. masses --      1.2722                 2.3828                 2.2804
 Frc consts  --      0.7344                 1.4016                 1.4935
 IR Inten    --      0.0464                24.3834                 1.6216

                     46                     47                     48
                      A                      A                      A
 Frequencies --   1135.8520              1139.8781              1155.0003
 Red. masses --      2.0503                 1.8300                 1.7007
 Frc consts  --      1.5585                 1.4010                 1.3367
 IR Inten    --    172.6492                 5.2150                71.2387

                     49                     50                     51
                      A                      A                      A
 Frequencies --   1177.2281              1189.6812              1191.3869
 Red. masses --      1.2494                 1.2131                 2.1067
 Frc consts  --      1.0202                 1.0116                 1.7618
 IR Inten    --      0.9019                47.4341               180.4629

                     52                     53                     54
                      A                      A                      A
 Frequencies --   1194.7863              1217.9058              1253.8539
 Red. masses --      1.8192                 2.0036                 2.8663
 Frc consts  --      1.5301                 1.7510                 2.6550
 IR Inten    --    303.5446               114.5774                70.0006

                     55                     56                     57
                      A                      A                      A
 Frequencies --   1270.3739              1285.5046              1300.6545
 Red. masses --      1.3448                 1.7146                 1.8242
 Frc consts  --      1.2787                 1.6694                 1.8182
 IR Inten    --     13.3759                80.8552                 7.2754

                     58                     59                     60
                      A                      A                      A
 Frequencies --   1337.5234              1384.8761              1400.4761
 Red. masses --      1.5052                 1.4092                 1.9450
 Frc consts  --      1.5866                 1.5924                 2.2476
 IR Inten    --     73.3983                 6.9484                 2.1718

                     61                     62                     63
                      A                      A                      A
 Frequencies --   1416.0943              1417.6673              1428.3400
 Red. masses --      1.6875                 4.2735                 5.0560
 Frc consts  --      1.9937                 5.0604                 6.0774
 IR Inten    --     54.2772                36.1832                20.2459

                     64                     65                     66
                      A                      A                      A
 Frequencies --   1430.7317              1449.5071              1485.8768
 Red. masses --      1.3188                 1.2368                 1.0888
 Frc consts  --      1.5905                 1.5310                 1.4164
 IR Inten    --     12.3536                 2.4497                12.7253

                     67                     68                     69
                      A                      A                      A
 Frequencies --   1491.8403              1518.2772              1520.1375
 Red. masses --      2.5446                 2.2396                 1.0489
 Frc consts  --      3.3366                 3.0418                 1.4281
 IR Inten    --      1.5274                28.8459                 1.8454

                     70                     71                     72
                      A                      A                      A
 Frequencies --   1525.0557              1535.7771              1544.4105
 Red. masses --      1.0508                 1.0565                 1.0471
 Frc consts  --      1.4399                 1.4681                 1.4716
 IR Inten    --      4.1952                 2.4800                10.9898

                     73                     74                     75
                      A                      A                      A
 Frequencies --   1569.4412              1635.8319              1662.3412
 Red. masses --      3.5330                 7.3618                 5.4024
 Frc consts  --      5.1272                11.6067                 8.7958
 IR Inten    --     23.3136                 2.7737                42.6311

                     76                     77                     78
                      A                      A                      A
 Frequencies --   1689.4418              1835.4878              3037.5174
 Red. masses --      6.2234                11.9850                 1.0452
 Frc consts  --     10.4657                23.7898                 5.6820
 IR Inten    --     21.8778               154.3581                20.0136

                     79                     80                     81
                      A                      A                      A
 Frequencies --   3039.4560              3044.1692              3057.0042
 Red. masses --      1.0512                 1.0479                 1.0804
 Frc consts  --      5.7218                 5.7214                 5.9489
 IR Inten    --     28.0980                14.1023                 6.8340

                     82                     83                     84
                      A                      A                      A
 Frequencies --   3087.8460              3101.7908              3109.2461
 Red. masses --      1.0960                 1.1004                 1.1001
 Frc consts  --      6.1570                 6.2375                 6.2658
 IR Inten    --      4.9863                18.9273                48.3740

                     85                     86                     87
                      A                      A                      A
 Frequencies --   3115.6360              3135.0027              3179.8680
 Red. masses --      1.1013                 1.1007                 1.0859
 Frc consts  --      6.2986                 6.3736                 6.4696
 IR Inten    --     52.5883                28.5720                 3.1250

                     88                     89                     90
                      A                      A                      A
 Frequencies --   3185.4684              3190.1489              3198.4462
 Red. masses --      1.0879                 1.0886                 1.0934
 Frc consts  --      6.5043                 6.5272                 6.5905
 IR Inten    --      0.8026                 8.8009                33.1970

                     91                     92                     93
                      A                      A                      A
 Frequencies --   3211.0997              3220.3631              3255.5365
 Red. masses --      1.0973                 1.0940                 1.0916
 Frc consts  --      6.6663                 6.6848                 6.8162
 IR Inten    --     32.1521                 8.3122                 1.2771

 - Thermochemistry -
 -------------------
 Temperature   298.150 Kelvin.  Pressure   1.00000 Atm.
 Atom     1 has atomic number  6 and mass  12.00000

 Molecular mass:   228.11503 amu.
 Principal axes and moments of inertia in atomic units:
                           1         2         3
     Eigenvalues --  1240.417129522.79670**********
           X            0.99999  -0.00209   0.00273
           Y            0.00213   0.99989  -0.01434
           Z           -0.00270   0.01434   0.99989
 This molecule is an asymmetric top.
 Rotational symmetry number  1.
 Warning -- assumption of classical behavior for rotation
           may cause significant error
 Rotational temperatures (Kelvin)      0.06983     0.00910     0.00824
 Rotational constants (GHZ):           1.45495     0.18952     0.17161
 Zero-point vibrational energy     723181.3 (Joules/Mol)
                                  172.84449 (Kcal/Mol)
 Warning -- explicit consideration of  23 degrees of freedom as
           vibrations may cause significant error
 Vibrational temperatures:     19.85    33.67    63.24   103.14   142.03
          (Kelvin)            214.14   258.84   270.69   335.46   341.73
                              376.11   430.28   465.17   502.49   563.94
                              590.66   614.49   629.78   700.43   741.10
                              758.57   779.86   835.94   915.05   932.45
                             1041.92  1067.89  1103.57  1111.35  1137.12
                             1193.91  1218.51  1253.72  1289.19  1300.63
                             1324.00  1347.66  1362.79  1371.06  1386.12
                             1408.98  1415.23  1424.16  1437.58  1516.89
                             1634.24  1640.03  1661.79  1693.77  1711.69
                             1714.14  1719.03  1752.29  1804.02  1827.78
                             1849.55  1871.35  1924.40  1992.53  2014.97
                             2037.44  2039.71  2055.06  2058.50  2085.52
                             2137.85  2146.43  2184.46  2187.14  2194.21
                             2209.64  2222.06  2258.08  2353.60  2391.74
                             2430.73  2640.86  4370.31  4373.10  4379.88
                             4398.35  4442.72  4462.79  4473.51  4482.71
                             4510.57  4575.12  4583.18  4589.91  4601.85
                             4620.06  4633.38  4683.99

 Zero-point correction=                           0.275445 (Hartree/Particle)
 Thermal correction to Energy=                    0.290880
 Thermal correction to Enthalpy=                  0.291824
 Thermal correction to Gibbs Free Energy=         0.230376
 Sum of electronic and zero-point Energies=           -731.500474
 Sum of electronic and thermal Energies=              -731.485039
 Sum of electronic and thermal Enthalpies=            -731.484095
 Sum of electronic and thermal Free Energies=         -731.545543

                     E (Thermal)             CV                S
                      KCal/Mol        Cal/Mol-Kelvin    Cal/Mol-Kelvin
 Total                  182.530             59.565            129.328
 Electronic               0.000              0.000              0.000
 Translational            0.889              2.981             42.176
 Rotational               0.889              2.981             33.185
 Vibrational            180.752             53.603             53.967
 Vibration     1          0.593              1.986              7.372
 Vibration     2          0.593              1.985              6.322
 Vibration     3          0.595              1.980              5.073
 Vibration     4          0.598              1.968              4.107
 Vibration     5          0.604              1.950              3.479
 Vibration     6          0.618              1.904              2.687
 Vibration     7          0.629              1.867              2.329
 Vibration     8          0.633              1.856              2.246
 Vibration     9          0.654              1.790              1.855
 Vibration    10          0.656              1.783              1.821
 Vibration    11          0.669              1.743              1.652
 Vibration    12          0.692              1.675              1.422
 Vibration    13          0.708              1.629              1.293
 Vibration    14          0.727              1.577              1.170
 Vibration    15          0.759              1.487              0.993
 Vibration    16          0.775              1.447              0.925
 Vibration    17          0.789              1.411              0.868
 Vibration    18          0.798              1.388              0.834
 Vibration    19          0.843              1.279              0.692
 Vibration    20          0.870              1.217              0.621
 Vibration    21          0.882              1.190              0.593
 Vibration    22          0.897              1.157              0.561
 Vibration    23          0.938              1.072              0.483

 Optimization completed.
    -- Stationary point found.
 Normal termination of Gaussian 16 at Fri Dec 11 12:12:43 2020.

 ----------------------------------------------------------------------
 # B3LYP/6-311++G(d,p) empiricaldispersion=gd3bj scf=xqc pop=npa geom=c
 heck
 ----------------------------------------------------------------------

 -------------------------------------
 CID_4604075_JID_7245_Energie_neutraal
 -------------------------------------
 Structure from the checkpoint file:  "JID_7245.chk"
 Charge =  0 Multiplicity = 1

 SCF Done:  E(RB3LYP) =  -731.970343904     A.U. after   16 cycles
 Normal termination of Gaussian 16 at Fri Dec 11 12:18:09 2020.

 ----------------------------------------------------------------------
 # B3LYP/6-311++G(d,p) empiricaldispersion=gd3bj scf=xqc pop=npa geom=c
 heck
 ----------------------------------------------------------------------

 -----------------------------------
 CID_4604075_JID_7245_Energie_kation
 -----------------------------------
 Structure from the checkpoint file:  "JID_7245.chk"
 Charge =  1 Multiplicity = 2

 SCF Done:  E(UB3LYP) =  -731.681778579     A.U. after   22 cycles
 Normal termination of Gaussian 16 at Fri Dec 11 12:28:48 2020.
 Gaussian 16:  ES64L-G16RevA.03 25-Dec-2016

 ----------------------------------------------------------------------
 # B3LYP/6-311++G(d,p) empiricaldispersion=gd3bj scf=xqc pop=npa geom=c
 heck
 ----------------------------------------------------------------------

 ----------------------------------
 CID_4604075_JID_7245_Energie_anion
 ----------------------------------
 Structure from the checkpoint file:  "JID_7245.chk"
 Charge = -1 Multiplicity = 2

                         Standard orientation:
 ---------------------------------------------------------------------
 Center     Atomic      Atomic             Coordinates (Angstroms)
 Number     Number       Type             X           Y           Z
 ---------------------------------------------------------------------
      1          6           0       -4.378468    1.562362   -0.722077
      2          6           0       -4.474747    0.384938    0.255795
      3          6           0       -5.858391   -0.271678    0.195803
      4          6           0       -3.383090   -0.657303   -0.019827
      5          6           0       -1.983819   -0.157053    0.266216
      6          8           0       -1.697702    0.798629    0.946314
      7          8           0       -1.072875   -0.976995   -0.343163
      8          6           0        0.301792   -0.796752   -0.192565
      9          6           0        0.921032    0.430209   -0.179712
     10          6           0        2.335776    0.497283   -0.084725
     11          6           0        3.020595    1.741114   -0.061396
     12          6           0        4.393020    1.788216    0.026846
     13          6           0        5.148071    0.592273    0.096845
     14          6           0        4.513725   -0.628796    0.076734
     15          6           0        3.100158   -0.711746   -0.014446
     16          6           0        2.412372   -1.953491   -0.039548
     17          6           0        1.042356   -1.999620   -0.125465
     18          1           0       -4.520538    1.222124   -1.756302
     19          1           0       -3.405062    2.056492   -0.651906
     20          1           0       -5.151143    2.309240   -0.508540
     21          1           0       -4.310568    0.769909    1.269828
     22          1           0       -6.054436   -0.685287   -0.801862
     23          1           0       -5.947834   -1.089583    0.920541
     24          1           0       -6.646177    0.458201    0.412602
     25          1           0       -3.534113   -1.547447    0.607590
     26          1           0       -3.423946   -1.011977   -1.056817
     27          1           0        0.344407    1.344036   -0.225215
     28          1           0        2.438392    2.657428   -0.112494
     29          1           0        4.903677    2.746814    0.044340
     30          1           0        6.230768    0.643412    0.167097
     31          1           0        5.087872   -1.550425    0.130894
     32          1           0        2.987047   -2.874470    0.010794
     33          1           0        0.503963   -2.941285   -0.146623
 ---------------------------------------------------------------------

 SCF Done:  E(UB3LYP) =  -731.969498108     A.U. after   33 cycles
 SCF Done:  E(UB3LYP) =  -731.969498108     a.u. after    1 cycles

 The electronic state is 2-A.
 Alpha  occ. eigenvalues --  -19.06114 -19.00266 -10.19217 -10.10430 -10.08464
 Alpha  occ. eigenvalues --  -10.08213 -10.06930 -10.06607 -10.05657 -10.05457
 Alpha  occ. eigenvalues --  -10.04658 -10.04584 -10.04522 -10.04006 -10.03916
 Alpha  occ. eigenvalues --  -10.03740 -10.03412  -0.99779  -0.91877  -0.74720
 Alpha  occ. eigenvalues --   -0.72278  -0.69715  -0.64944  -0.63874  -0.60986
 Alpha  occ. eigenvalues --   -0.59501  -0.59224  -0.53746  -0.49745  -0.47490
 Alpha  occ. eigenvalues --   -0.47362  -0.44818  -0.40426  -0.39214  -0.38784
 Alpha  occ. eigenvalues --   -0.38167  -0.37028  -0.34973  -0.33819  -0.33559
 Alpha  occ. eigenvalues --   -0.32013  -0.31859  -0.30959  -0.29795  -0.29462
 Alpha  occ. eigenvalues --   -0.28946  -0.27987  -0.27254  -0.26287  -0.25761
 Alpha  occ. eigenvalues --   -0.24617  -0.24384  -0.23737  -0.23068  -0.21939
 Alpha  occ. eigenvalues --   -0.20963  -0.19377  -0.17223  -0.16247  -0.11928
 Alpha  occ. eigenvalues --   -0.09683   0.04337
 Alpha virt. eigenvalues --    0.05701   0.07837   0.08059   0.08451   0.08828
 Alpha virt. eigenvalues --    0.09127   0.09505   0.10164   0.10714   0.10986
 Alpha virt. eigenvalues --    0.11544   0.11849   0.11896   0.12592   0.12640

  Beta  occ. eigenvalues --  -19.06137 -19.00206 -10.19140 -10.10377 -10.08461
  Beta  occ. eigenvalues --  -10.08209 -10.06900 -10.06597 -10.05713 -10.05514
  Beta  occ. eigenvalues --  -10.04614 -10.04542 -10.04474 -10.03775 -10.03705
  Beta  occ. eigenvalues --  -10.03525 -10.03181  -0.99718  -0.91799  -0.74503
  Beta  occ. eigenvalues --   -0.72242  -0.69435  -0.64628  -0.63663  -0.60841
  Beta  occ. eigenvalues --   -0.59460  -0.58878  -0.53519  -0.49519  -0.47420
  Beta  occ. eigenvalues --   -0.47087  -0.44632  -0.40353  -0.39079  -0.38577
  Beta  occ. eigenvalues --   -0.38017  -0.36934  -0.34913  -0.33711  -0.33450
  Beta  occ. eigenvalues --   -0.31880  -0.31775  -0.30872  -0.29760  -0.29343
  Beta  occ. eigenvalues --   -0.28820  -0.27879  -0.27061  -0.25939  -0.25562
  Beta  occ. eigenvalues --   -0.24551  -0.24336  -0.23711  -0.22775  -0.21821
  Beta  occ. eigenvalues --   -0.20801  -0.18712  -0.17088  -0.15251  -0.11445
  Beta  occ. eigenvalues --   -0.08340
  Beta virt. eigenvalues --    0.06222   0.08018   0.08138   0.08542   0.08614
  Beta virt. eigenvalues --    0.08987   0.09238   0.09869   0.10224   0.10757
  Beta virt. eigenvalues --    0.11015   0.11787   0.11918   0.12054   0.12645

 Mulliken charges and spin densities:
               1          2
     1  C   -0.186755  -0.406021
     2  C   -0.758352   1.160574
     3  C    0.534476  -1.179589
     4  C    0.288555  -0.855426
     5  C   -0.320173   0.278318
     6  O   -0.219985   0.015550
     7  O   -0.030879   0.002119
     8  C   -0.272271   0.020411
     9  C    0.234712   0.077959
    10  C    0.149833  -0.052602
    11  C   -0.137092   0.108754
    12  C   -0.320674   0.051717
    13  C   -0.280730   0.046399
    14  C   -0.110431   0.146278
    15  C    0.191488  -0.039513
    16  C   -0.280020   0.166072
    17  C   -0.182779   0.112436
    18  H    0.016170   0.103826
    19  H    0.169951  -0.020039
    20  H    0.015988   0.112198
    21  H    0.175891   0.005166
    22  H   -0.023421   0.152133
    23  H   -0.256601   0.391351
    24  H   -0.197515   0.335304
    25  H   -0.046140   0.234414
    26  H    0.181683   0.016376
    27  H    0.094292   0.016590
    28  H    0.094916  -0.013771
    29  H    0.109557  -0.001490
    30  H    0.112894  -0.003824
    31  H    0.076627  -0.012452
    32  H    0.090068  -0.014315
    33  H    0.086717   0.045097
 Sum of Mulliken charges =  -1.00000   1.00000

 Dipole moment (field-independent basis, Debye):
    X=              0.6686    Y=             -0.0984    Z=             -1.2640  Tot=              1.4333
 Quadrupole moment (field-independent basis, Debye-Ang):
   XX=           -193.8601   YY=           -118.5933   ZZ=           -120.1317
   XY=             -4.8231   XZ=              4.8378   YZ=             -0.4197

 Summary of Natural Population Analysis:

                                       Natural Population
                Natural  -----------------------------------------------
    Atom  No    Charge         Core      Valence    Rydberg      Total
 -----------------------------------------------------------------------
      C    1   -0.28552      0.99965     2.28115    0.00472     3.28552
      C    2   -0.11774      0.99962     2.10790    0.01022     3.11774
      C    3   -0.28321      0.99965     2.27788    0.00568     3.28321
      C    4   -0.23692      0.99956     2.22828    0.00907     3.23692
      C    5    0.42086      0.99968     1.55539    0.02407     2.57914
      O    6   -0.29685      0.99987     3.29188    0.00510     4.29685
      O    7   -0.28143      0.99984     3.27257    0.00902     4.28143
      C    8    0.15070      0.99934     1.83835    0.01161     2.84930
      C    9   -0.07304      0.99948     2.06566    0.00790     3.07304
      C   10   -0.03135      0.99950     2.02418    0.00767     3.03135
      C   11   -0.05812      0.99954     2.04973    0.00884     3.05812
      C   12   -0.10543      0.99958     2.09600    0.00985     3.10543
      C   13   -0.10685      0.99958     2.09733    0.00995     3.10685
      C   14   -0.06177      0.99954     2.05313    0.00909     3.06177
      C   15   -0.04171      0.99949     2.03447    0.00775     3.04171
      C   16   -0.05215      0.99954     2.04430    0.00830     3.05215
      C   17   -0.11281      0.99953     2.10376    0.00952     3.11281
      H   18    0.09326      0.00000     0.40591    0.00083     0.40674
      H   19    0.10719      0.00000     0.39191    0.00090     0.39281
      H   20    0.09685      0.00000     0.40234    0.00081     0.40315
      H   21    0.10091      0.00000     0.39727    0.00182     0.39909
      H   22    0.09463      0.00000     0.40440    0.00097     0.40537
      H   23    0.10020      0.00000     0.39871    0.00109     0.39980
      H   24    0.09838      0.00000     0.40071    0.00091     0.40162
      H   25    0.11525      0.00000     0.38342    0.00133     0.38475
      H   26    0.10866      0.00000     0.39026    0.00109     0.39134
      H   27    0.10452      0.00000     0.39374    0.00174     0.39548
      H   28    0.09064      0.00000     0.40796    0.00140     0.40936
      H   29    0.09189      0.00000     0.40748    0.00062     0.40811
      H   30    0.09147      0.00000     0.40786    0.00068     0.40853
      H   31    0.09166      0.00000     0.40750    0.00084     0.40834
      H   32    0.08888      0.00000     0.40948    0.00164     0.41112
      H   33    0.09898      0.00000     0.39994    0.00107     0.40102
 =======================================================================
   * Total *    0.00003     16.99299    43.83086    0.17612    60.99997

 Normal termination of Gaussian 16 at Fri Dec 11 12:49:53 2020.
