 Gaussian 16, Revision A.03,

 -----------------------------------------------------------
 # opt freq B3LYP/6-31G(d) empiricaldispersion=gd3bj scf=xqc
 -----------------------------------------------------------

 -----------------------------
 CID_12411052_JID_189_neutraal
 -----------------------------
 Symbolic Z-matrix:
 Charge =  0 Multiplicity = 1

 SCF Done:  E(RB3LYP) =  -1143.14279998     A.U. after   15 cycles
 SCF Done:  E(RB3LYP) =  -1143.15657773     A.U. after   13 cycles
 SCF Done:  E(RB3LYP) =  -1143.15828042     A.U. after   12 cycles
 SCF Done:  E(RB3LYP) =  -1143.15870531     A.U. after   12 cycles
 SCF Done:  E(RB3LYP) =  -1143.15880861     A.U. after   12 cycles
 SCF Done:  E(RB3LYP) =  -1143.15883453     A.U. after   12 cycles
 SCF Done:  E(RB3LYP) =  -1143.15883994     A.U. after   11 cycles
 SCF Done:  E(RB3LYP) =  -1143.15884061     A.U. after    9 cycles
 SCF Done:  E(RB3LYP) =  -1143.15884070     A.U. after    8 cycles
 Optimization completed.
    -- Stationary point found.
 Normal termination of Gaussian 16 at Tue Dec  8 10:17:55 2020.

 --------------------------------------------------------------------
 #N Geom=AllCheck Guess=TCheck SCRF=Check GenChk RB3LYP/6-31G(d) Freq
 --------------------------------------------------------------------

 Structure from the checkpoint file:  "JID_189.chk"
 -----------------------------
 CID_12411052_JID_189_neutraal
 -----------------------------
 Charge =  0 Multiplicity = 1

 SCF Done:  E(RB3LYP) =  -1143.15884070     A.U. after    1 cycles

  Exact polarizability: 164.994   1.435 109.131  -5.725   4.205  66.730
 Approx polarizability: 231.672  -7.525 219.842  -9.364   1.512 114.055

                      1                      2                      3
                      A                      A                      A
 Frequencies --     32.5413                51.3813                76.4795
 Red. masses --      5.0096                 4.6718                 5.7695
 Frc consts  --      0.0031                 0.0073                 0.0199
 IR Inten    --      3.7744                 2.3474                 2.6037

                      4                      5                      6
                      A                      A                      A
 Frequencies --    195.6048               197.5037               223.0468
 Red. masses --      1.4119                 2.3510                 3.7514
 Frc consts  --      0.0318                 0.0540                 0.1100
 IR Inten    --      0.3675                 0.4384                 3.0377

                      7                      8                      9
                      A                      A                      A
 Frequencies --    250.7192               320.2015               345.1187
 Red. masses --      6.4256                 5.7936                 5.5615
 Frc consts  --      0.2380                 0.3500                 0.3903
 IR Inten    --      1.4689                 2.8401                11.9223

                     10                     11                     12
                      A                      A                      A
 Frequencies --    407.1764               416.4394               431.7689
 Red. masses --      9.8624                 3.3165                 7.2745
 Frc consts  --      0.9634                 0.3389                 0.7990
 IR Inten    --     30.1838                 5.9725                 2.6875

                     13                     14                     15
                      A                      A                      A
 Frequencies --    498.9753               631.2124               658.0909
 Red. masses --      3.8440                 6.4340                 5.1878
 Frc consts  --      0.5639                 1.5104                 1.3237
 IR Inten    --      2.1796                 0.0683                17.0037

                     16                     17                     18
                      A                      A                      A
 Frequencies --    704.7925               716.2468               761.5745
 Red. masses --      2.2506                 6.7087                 1.5456
 Frc consts  --      0.6587                 2.0278                 0.5282
 IR Inten    --     19.1821                 3.6871                34.7940

                     19                     20                     21
                      A                      A                      A
 Frequencies --    855.7623               928.6818               972.2564
 Red. masses --      1.2442                 1.3412                 1.3020
 Frc consts  --      0.5368                 0.6815                 0.7252
 IR Inten    --      0.3106                 0.9412                 9.8797

                     22                     23                     24
                      A                      A                      A
 Frequencies --    973.9210               975.5114              1001.5990
 Red. masses --      1.3775                 1.3518                 1.2721
 Frc consts  --      0.7698                 0.7579                 0.7519
 IR Inten    --      3.2055                10.4884                 0.2254

                     25                     26                     27
                      A                      A                      A
 Frequencies --   1020.0394              1053.8368              1108.5854
 Red. masses --      6.2235                 3.0439                 1.7998
 Frc consts  --      3.8152                 1.9917                 1.3032
 IR Inten    --      3.9199                 4.7451                 4.1417

                     28                     29                     30
                      A                      A                      A
 Frequencies --   1111.3748              1120.3348              1195.4333
 Red. masses --      2.5952                 7.7418                 1.0977
 Frc consts  --      1.8886                 5.7252                 0.9243
 IR Inten    --     25.0928                93.9808                 0.0245

                     31                     32                     33
                      A                      A                      A
 Frequencies --   1215.4292              1335.1518              1358.5895
 Red. masses --      1.1423                 2.6410                 1.1815
 Frc consts  --      0.9943                 2.7738                 1.2849
 IR Inten    --      1.2788                 0.0466                 3.7585

                     34                     35                     36
                      A                      A                      A
 Frequencies --   1362.4941              1476.9676              1488.7090
 Red. masses --      1.9569                 1.0548                 2.0645
 Frc consts  --      2.1404                 1.3556                 2.6958
 IR Inten    --      2.6620                 8.3577                11.4040

                     37                     38                     39
                      A                      A                      A
 Frequencies --   1492.5508              1527.4593              1635.5754
 Red. masses --      1.0715                 2.0383                 5.4136
 Frc consts  --      1.4064                 2.8019                 8.5325
 IR Inten    --      6.6270                12.7238                 1.1008

                     40                     41                     42
                      A                      A                      A
 Frequencies --   1645.0251              3074.3464              3175.3320
 Red. masses --      5.3822                 1.0283                 1.1066
 Frc consts  --      8.5814                 5.7264                 6.5736
 IR Inten    --      2.1514                 2.0455                 0.8037

                     43                     44                     45
                      A                      A                      A
 Frequencies --   3180.5547              3188.0783              3198.3451
 Red. masses --      1.1077                 1.0854                 1.0892
 Frc consts  --      6.6020                 6.4997                 6.5644
 IR Inten    --      1.2778                 0.2534                11.5404

                     46                     47                     48
                      A                      A                      A
 Frequencies --   3209.1865              3217.0228              3231.5751
 Red. masses --      1.0933                 1.0961                 1.0940
 Frc consts  --      6.6338                 6.6834                 6.7315
 IR Inten    --     22.9217                15.3796                 2.1437

 - Thermochemistry -
 -------------------
 Temperature   298.150 Kelvin.  Pressure   1.00000 Atm.
 Atom     1 has atomic number  6 and mass  12.00000

 Molecular mass:   172.00166 amu.
 Principal axes and moments of inertia in atomic units:
                           1         2         3
     Eigenvalues --   777.611903099.160163520.49970
           X            0.99991   0.01253  -0.00500
           Y           -0.01227   0.99868   0.04989
           Z            0.00561  -0.04982   0.99874
 This molecule is an asymmetric top.
 Rotational symmetry number  1.
 Warning -- assumption of classical behavior for rotation
           may cause significant error
 Rotational temperatures (Kelvin)      0.11138     0.02795     0.02460
 Rotational constants (GHZ):           2.32088     0.58233     0.51264
 Zero-point vibrational energy     354385.3 (Joules/Mol)
                                   84.70013 (Kcal/Mol)
 Warning -- explicit consideration of  13 degrees of freedom as
           vibrations may cause significant error
 Vibrational temperatures:     46.82    73.93   110.04   281.43   284.16
          (Kelvin)            320.91   360.73   460.70   496.55   585.84
                              599.16   621.22   717.91   908.17   946.85
                             1014.04  1030.52  1095.74  1231.25  1336.17
                             1398.86  1401.26  1403.54  1441.08  1467.61
                             1516.24  1595.01  1599.02  1611.91  1719.96
                             1748.73  1920.99  1954.71  1960.33  2125.03
                             2141.92  2147.45  2197.67  2353.23  2366.82
                             4423.30  4568.59  4576.11  4586.93  4601.71
                             4617.30  4628.58  4649.52

 Zero-point correction=                           0.134978 (Hartree/Particle)
 Thermal correction to Energy=                    0.145375
 Thermal correction to Enthalpy=                  0.146319
 Thermal correction to Gibbs Free Energy=         0.097411
 Sum of electronic and zero-point Energies=          -1143.023862
 Sum of electronic and thermal Energies=             -1143.013466
 Sum of electronic and thermal Enthalpies=           -1143.012522
 Sum of electronic and thermal Free Energies=        -1143.061430

                     E (Thermal)             CV                S
                      KCal/Mol        Cal/Mol-Kelvin    Cal/Mol-Kelvin
 Total                   91.224             37.396            102.935
 Electronic               0.000              0.000              0.000
 Translational            0.889              2.981             41.335
 Rotational               0.889              2.981             30.518
 Vibrational             89.446             31.434             31.082
 Vibration     1          0.594              1.983              5.668
 Vibration     2          0.596              1.977              4.763
 Vibration     3          0.599              1.965              3.979
 Vibration     4          0.636              1.846              2.174
 Vibration     5          0.637              1.843              2.156
 Vibration     6          0.649              1.806              1.934
 Vibration     7          0.663              1.762              1.726
 Vibration     8          0.706              1.635              1.309
 Vibration     9          0.723              1.585              1.188
 Vibration    10          0.772              1.455              0.937
 Vibration    11          0.780              1.435              0.904
 Vibration    12          0.793              1.401              0.853
 Vibration    13          0.854              1.252              0.661

 Optimization completed.
    -- Stationary point found.
 Normal termination of Gaussian 16 at Tue Dec  8 10:20:37 2020.

 ----------------------------------------------------------------------
 # B3LYP/6-311++G(d,p) empiricaldispersion=gd3bj scf=xqc pop=npa geom=c
 heck
 ----------------------------------------------------------------------

 -------------------------------------
 CID_12411052_JID_189_Energie_neutraal
 -------------------------------------
 Structure from the checkpoint file:  "JID_189.chk"
 Charge =  0 Multiplicity = 1

 SCF Done:  E(RB3LYP) =  -1143.31218003     A.U. after   16 cycles
 Normal termination of Gaussian 16 at Tue Dec  8 10:21:43 2020.

 ----------------------------------------------------------------------
 # B3LYP/6-311++G(d,p) empiricaldispersion=gd3bj scf=xqc pop=npa geom=c
 heck
 ----------------------------------------------------------------------

 -----------------------------------
 CID_12411052_JID_189_Energie_kation
 -----------------------------------
 Structure from the checkpoint file:  "JID_189.chk"
 Charge =  1 Multiplicity = 2

 SCF Done:  E(UB3LYP) =  -1143.00240221     A.U. after   27 cycles
 Normal termination of Gaussian 16 at Tue Dec  8 10:24:41 2020.
 Gaussian 16:  ES64L-G16RevA.03 25-Dec-2016

 ----------------------------------------------------------------------
 # B3LYP/6-311++G(d,p) empiricaldispersion=gd3bj scf=xqc pop=npa geom=c
 heck
 ----------------------------------------------------------------------

 ----------------------------------
 CID_12411052_JID_189_Energie_anion
 ----------------------------------
 Structure from the checkpoint file:  "JID_189.chk"
 Charge = -1 Multiplicity = 2

                         Standard orientation:
 ---------------------------------------------------------------------
 Center     Atomic      Atomic             Coordinates (Angstroms)
 Number     Number       Type             X           Y           Z
 ---------------------------------------------------------------------
      1          6           0       -3.496341   -0.431727   -0.138236
      2         16           0       -1.886411    0.312072   -0.618045
      3          8           0       -1.894930    1.717617   -0.092568
      4         16           0       -0.770004   -1.024635    0.738016
      5          6           0        0.861449   -0.430859    0.321072
      6          6           0        1.766074   -1.277435   -0.331702
      7          6           0        3.048759   -0.820392   -0.630225
      8          6           0        3.422465    0.484109   -0.301183
      9          6           0        2.514175    1.331035    0.336496
     10          6           0        1.237058    0.875893    0.661625
     11          1           0       -4.265279    0.129204   -0.674755
     12          1           0       -3.636141   -0.315956    0.938945
     13          1           0       -3.518260   -1.485385   -0.427256
     14          1           0        1.460221   -2.283263   -0.601115
     15          1           0        3.752418   -1.479790   -1.130293
     16          1           0        4.420162    0.839855   -0.541862
     17          1           0        2.801843    2.347119    0.590523
     18          1           0        0.525272    1.524546    1.159744
 ---------------------------------------------------------------------

 SCF Done:  E(UB3LYP) =  -1143.32323522     A.U. after   28 cycles

 The electronic state is 2-A.
 Alpha  occ. eigenvalues --  -88.76285 -88.67099 -18.92598 -10.05565 -10.05493
 Alpha  occ. eigenvalues --  -10.04335 -10.04282 -10.03908 -10.03735 -10.03025
 Alpha  occ. eigenvalues --   -7.84298  -7.75774  -5.80564  -5.80414  -5.79948
 Alpha  occ. eigenvalues --   -5.72085  -5.71877  -5.71215  -0.85749  -0.72364
 Alpha  occ. eigenvalues --   -0.64137  -0.61654  -0.61390  -0.54728  -0.47308
 Alpha  occ. eigenvalues --   -0.47018  -0.43638  -0.37627  -0.32702  -0.31884
 Alpha  occ. eigenvalues --   -0.30869  -0.30728  -0.29179  -0.27834  -0.25991
 Alpha  occ. eigenvalues --   -0.25005  -0.22860  -0.21891  -0.21472  -0.18660
 Alpha  occ. eigenvalues --   -0.14454  -0.12542  -0.11161  -0.08973  -0.07333
 Alpha  occ. eigenvalues --    0.04976
 Alpha virt. eigenvalues --    0.08677   0.09417   0.10215   0.11221   0.11506
 Alpha virt. eigenvalues --    0.12045   0.12503   0.13086   0.14026   0.14643
 Alpha virt. eigenvalues --    0.15700   0.16475   0.17062   0.17872   0.18045

  Beta  occ. eigenvalues --  -88.76006 -88.66950 -18.92277 -10.05579 -10.05435
  Beta  occ. eigenvalues --  -10.04337 -10.04331 -10.03852 -10.03555 -10.02900
  Beta  occ. eigenvalues --   -7.84025  -7.75627  -5.80369  -5.79910  -5.79535
  Beta  occ. eigenvalues --   -5.71861  -5.71601  -5.71116  -0.85044  -0.72165
  Beta  occ. eigenvalues --   -0.63583  -0.61328  -0.61222  -0.54093  -0.47185
  Beta  occ. eigenvalues --   -0.46320  -0.43092  -0.37417  -0.32376  -0.31767
  Beta  occ. eigenvalues --   -0.30694  -0.30502  -0.29137  -0.27294  -0.25658
  Beta  occ. eigenvalues --   -0.24438  -0.22079  -0.21513  -0.20960  -0.18238
  Beta  occ. eigenvalues --   -0.13480  -0.12046  -0.10352  -0.08019  -0.06539
  Beta virt. eigenvalues --    0.08643   0.09355   0.10151   0.10644   0.11332
  Beta virt. eigenvalues --    0.11652   0.12434   0.12769   0.13488   0.14165
  Beta virt. eigenvalues --    0.14695   0.15899   0.16576   0.17230   0.18016

 Mulliken charges and spin densities:
               1          2
     1  C   -0.595899  -0.035412
     2  S    0.301163   0.244561
     3  O   -0.457132   0.083515
     4  S   -0.889399   0.396173
     5  C    1.645036  -0.062121
     6  C   -0.677632   0.164563
     7  C   -0.273460  -0.017177
     8  C   -0.318556   0.167845
     9  C   -0.334733  -0.023698
    10  C   -0.403825  -0.013888
    11  H    0.141313   0.000301
    12  H    0.115902   0.068011
    13  H    0.087232   0.023550
    14  H    0.112372   0.016787
    15  H    0.120491  -0.003972
    16  H    0.097342  -0.011116
    17  H    0.126076   0.003217
    18  H    0.203709  -0.001139
 Sum of Mulliken charges =  -1.00000   1.00000

 Dipole moment (field-independent basis, Debye):
    X=              1.4941    Y=             -1.6193    Z=             -1.0052  Tot=              2.4218
 Quadrupole moment (field-independent basis, Debye-Ang):
   XX=            -96.0515   YY=            -90.6350   ZZ=            -86.8559
   XY=              6.6182   XZ=             -0.9449   YZ=              4.4567

 Summary of Natural Population Analysis:

                                       Natural Population
                Natural  -----------------------------------------------
    Atom  No    Charge         Core      Valence    Rydberg      Total
 -----------------------------------------------------------------------
      C    1   -0.39450      0.99963     2.38690    0.00797     3.39450
      S    2    0.60052      4.99956     2.33456    0.06536     7.39948
      O    3   -0.44901      0.99993     3.43993    0.00916     4.44901
      S    4    0.02038      4.99956     2.95992    0.02013     7.97962
      C    5   -0.08091      0.99942     2.06882    0.01267     3.08091
      C    6   -0.09429      0.99949     2.08395    0.01085     3.09429
      C    7   -0.11420      0.99957     2.10573    0.00891     3.11420
      C    8   -0.08099      0.99958     2.07189    0.00953     3.08099
      C    9   -0.11761      0.99957     2.10896    0.00908     3.11761
      C   10   -0.07933      0.99949     2.06970    0.01014     3.07933
      H   11    0.10161      0.00000     0.39589    0.00250     0.39839
      H   12    0.10570      0.00000     0.39144    0.00285     0.39430
      H   13    0.10129      0.00000     0.39646    0.00225     0.39871
      H   14    0.09826      0.00000     0.40019    0.00154     0.40174
      H   15    0.09099      0.00000     0.40800    0.00101     0.40901
      H   16    0.08852      0.00000     0.41045    0.00103     0.41148
      H   17    0.09281      0.00000     0.40619    0.00100     0.40719
      H   18    0.11075      0.00000     0.38787    0.00138     0.38925
 =======================================================================
   * Total *    0.00000     17.99579    26.82684    0.17737    45.00000

 Normal termination of Gaussian 16 at Tue Dec  8 10:27:44 2020.
