 Gaussian 16, Revision A.03,

 -----------------------------------------------------------
 # opt freq B3LYP/6-31G(d) empiricaldispersion=gd3bj scf=xqc
 -----------------------------------------------------------

 ------------------------------
 CID_84718955_JID_3223_neutraal
 ------------------------------
 Symbolic Z-matrix:
 Charge =  0 Multiplicity = 1

 SCF Done:  E(RB3LYP) =  -563.036121970     A.U. after   12 cycles
 SCF Done:  E(RB3LYP) =  -563.038244236     A.U. after   11 cycles
 SCF Done:  E(RB3LYP) =  -563.036847217     A.U. after   11 cycles
 SCF Done:  E(RB3LYP) =  -563.039643066     A.U. after   10 cycles
 SCF Done:  E(RB3LYP) =  -563.040674423     A.U. after   10 cycles
 SCF Done:  E(RB3LYP) =  -563.040906527     A.U. after   10 cycles
 SCF Done:  E(RB3LYP) =  -563.040876408     A.U. after   10 cycles
 SCF Done:  E(RB3LYP) =  -563.041239037     A.U. after   10 cycles
 SCF Done:  E(RB3LYP) =  -563.041296090     A.U. after    9 cycles
 SCF Done:  E(RB3LYP) =  -563.041322201     A.U. after    9 cycles
 SCF Done:  E(RB3LYP) =  -563.041345264     A.U. after    8 cycles
 SCF Done:  E(RB3LYP) =  -563.041351228     A.U. after    9 cycles
 SCF Done:  E(RB3LYP) =  -563.041357020     A.U. after    8 cycles
 SCF Done:  E(RB3LYP) =  -563.041358471     A.U. after    8 cycles
 SCF Done:  E(RB3LYP) =  -563.041358855     A.U. after    7 cycles
 SCF Done:  E(RB3LYP) =  -563.041358897     A.U. after    6 cycles
 Optimization completed.
    -- Stationary point found.
 Normal termination of Gaussian 16 at Wed Dec  9 22:40:48 2020.

 --------------------------------------------------------------------
 #N Geom=AllCheck Guess=TCheck SCRF=Check GenChk RB3LYP/6-31G(d) Freq
 --------------------------------------------------------------------

 Structure from the checkpoint file:  "JID_3223.chk"
 ------------------------------
 CID_84718955_JID_3223_neutraal
 ------------------------------
 Charge =  0 Multiplicity = 1

 SCF Done:  E(RB3LYP) =  -563.041358897     A.U. after    1 cycles

  Exact polarizability: 141.236   2.519 122.623  -2.344  -0.976 107.954
 Approx polarizability: 171.855   5.147 166.374  -5.251   0.516 168.024

                      1                      2                      3
                      A                      A                      A
 Frequencies --     44.1012                69.4978                83.0210
 Red. masses --      2.0361                 3.1327                 2.8279
 Frc consts  --      0.0023                 0.0089                 0.0115
 IR Inten    --      0.1013                 0.8887                 1.3939

                      4                      5                      6
                      A                      A                      A
 Frequencies --    110.3329               145.1069               161.6761
 Red. masses --      2.4587                 2.6187                 3.2047
 Frc consts  --      0.0176                 0.0325                 0.0494
 IR Inten    --      0.8155                 5.9494                 0.3517

                      7                      8                      9
                      A                      A                      A
 Frequencies --    180.8559               209.8569               220.7456
 Red. masses --      2.4475                 2.7279                 1.1236
 Frc consts  --      0.0472                 0.0708                 0.0323
 IR Inten    --      4.9039                 2.0992                 0.3036

                     10                     11                     12
                      A                      A                      A
 Frequencies --    256.8229               263.8516               273.3172
 Red. masses --      2.2163                 1.3123                 1.3240
 Frc consts  --      0.0861                 0.0538                 0.0583
 IR Inten    --      8.2143                32.3653                 4.5754

                     13                     14                     15
                      A                      A                      A
 Frequencies --    289.2870               307.4234               318.6592
 Red. masses --      2.4983                 1.7943                 1.1483
 Frc consts  --      0.1232                 0.0999                 0.0687
 IR Inten    --      2.2200                 1.1469                 0.0078

                     16                     17                     18
                      A                      A                      A
 Frequencies --    374.3642               400.2482               406.0408
 Red. masses --      2.5395                 2.1250                 2.3072
 Frc consts  --      0.2097                 0.2006                 0.2241
 IR Inten    --      2.4606                 2.3887                 1.4763

                     19                     20                     21
                      A                      A                      A
 Frequencies --    444.3527               469.9371               540.7701
 Red. masses --      2.2327                 2.8756                 3.3329
 Frc consts  --      0.2597                 0.3742                 0.5742
 IR Inten    --      0.7111                 5.0390                 6.2773

                     22                     23                     24
                      A                      A                      A
 Frequencies --    555.8175               613.6937               700.4940
 Red. masses --      2.6136                 2.5133                 3.2201
 Frc consts  --      0.4757                 0.5577                 0.9310
 IR Inten    --      0.9499                 2.4364                 2.4600

                     25                     26                     27
                      A                      A                      A
 Frequencies --    718.4338               787.9292               812.5263
 Red. masses --      3.5911                 1.1775                 2.5358
 Frc consts  --      1.0921                 0.4307                 0.9864
 IR Inten    --     13.9221                 0.6737                 2.3485

                     28                     29                     30
                      A                      A                      A
 Frequencies --    846.9275               878.6792               893.0576
 Red. masses --      1.8155                 1.8291                 2.1139
 Frc consts  --      0.7672                 0.8320                 0.9933
 IR Inten    --      4.6500                68.5518                10.0247

                     31                     32                     33
                      A                      A                      A
 Frequencies --    906.0736               913.2142               919.9750
 Red. masses --      2.4976                 1.8371                 1.7125
 Frc consts  --      1.2081                 0.9027                 0.8539
 IR Inten    --      4.6845                35.1833                 0.3442

                     34                     35                     36
                      A                      A                      A
 Frequencies --    932.6068               955.1548               973.8533
 Red. masses --      1.7483                 2.0890                 1.7302
 Frc consts  --      0.8959                 1.1229                 0.9668
 IR Inten    --      2.7259                 3.2021                14.9888

                     37                     38                     39
                      A                      A                      A
 Frequencies --    974.9193               978.6044              1020.3437
 Red. masses --      1.2063                 1.7686                 1.3611
 Frc consts  --      0.6755                 0.9979                 0.8349
 IR Inten    --      0.9310                10.6108                 1.7027

                     40                     41                     42
                      A                      A                      A
 Frequencies --   1048.0326              1060.3819              1063.0294
 Red. masses --      2.1773                 1.4306                 1.4241
 Frc consts  --      1.4090                 0.9478                 0.9482
 IR Inten    --      4.2821                 6.0781                 4.3558

                     43                     44                     45
                      A                      A                      A
 Frequencies --   1082.1572              1108.6789              1125.8092
 Red. masses --      2.4943                 3.2506                 2.3864
 Frc consts  --      1.7210                 2.3541                 1.7821
 IR Inten    --     28.2466                50.1163                62.4324

                     46                     47                     48
                      A                      A                      A
 Frequencies --   1159.6678              1203.8215              1217.3176
 Red. masses --      1.8963                 1.7952                 1.4130
 Frc consts  --      1.5025                 1.5328                 1.2337
 IR Inten    --      2.2563                 4.4940                11.2521

                     49                     50                     51
                      A                      A                      A
 Frequencies --   1230.4941              1235.2073              1244.2531
 Red. masses --      1.5604                 1.7291                 1.7200
 Frc consts  --      1.3920                 1.5543                 1.5689
 IR Inten    --     54.0180                68.9766                 8.1672

                     52                     53                     54
                      A                      A                      A
 Frequencies --   1267.5269              1284.3846              1286.5338
 Red. masses --      2.5922                 2.7550                 1.2122
 Frc consts  --      2.4537                 2.6777                 1.1821
 IR Inten    --     19.5719                22.1373                 2.0060

                     55                     56                     57
                      A                      A                      A
 Frequencies --   1304.8155              1313.2496              1337.6838
 Red. masses --      1.3654                 1.2655                 1.2933
 Frc consts  --      1.3697                 1.2859                 1.3635
 IR Inten    --      2.6581                 9.3988                 1.7039

                     58                     59                     60
                      A                      A                      A
 Frequencies --   1351.5802              1361.9059              1366.0305
 Red. masses --      1.3304                 1.2767                 1.3577
 Frc consts  --      1.4319                 1.3952                 1.4927
 IR Inten    --      3.2704                 0.2027                 0.4018

                     61                     62                     63
                      A                      A                      A
 Frequencies --   1383.4587              1422.6933              1425.6407
 Red. masses --      1.3928                 1.3463                 1.3188
 Frc consts  --      1.5706                 1.6055                 1.5792
 IR Inten    --      4.5521                22.4978                 7.7332

                     64                     65                     66
                      A                      A                      A
 Frequencies --   1429.6742              1434.4465              1443.1219
 Red. masses --      1.2730                 1.2183                 1.3135
 Frc consts  --      1.5330                 1.4769                 1.6117
 IR Inten    --      9.3471                 5.4093                 3.6576

                     67                     68                     69
                      A                      A                      A
 Frequencies --   1455.5370              1502.8213              1512.4683
 Red. masses --      1.2193                 1.0517                 1.0566
 Frc consts  --      1.5220                 1.3994                 1.4241
 IR Inten    --     17.3259                 0.4850                 3.6688

                     70                     71                     72
                      A                      A                      A
 Frequencies --   1516.6480              1520.7910              1522.2546
 Red. masses --      1.0762                 1.0847                 1.0701
 Frc consts  --      1.4586                 1.4781                 1.4610
 IR Inten    --      0.9404                 1.0466                 4.7191

                     73                     74                     75
                      A                      A                      A
 Frequencies --   1524.8347              1527.4715              1531.9206
 Red. masses --      1.0563                 1.0852                 1.0601
 Frc consts  --      1.4470                 1.4918                 1.4658
 IR Inten    --      1.9202                 0.8929                 2.7327

                     76                     77                     78
                      A                      A                      A
 Frequencies --   1534.5633              1549.2953              1555.1143
 Red. masses --      1.0617                 1.1027                 1.0558
 Frc consts  --      1.4731                 1.5595                 1.5044
 IR Inten    --      0.0929                 0.4213                 5.7087

                     79                     80                     81
                      A                      A                      A
 Frequencies --   1704.3481              3001.7305              3016.5532
 Red. masses --      1.0863                 1.0711                 1.0841
 Frc consts  --      1.8592                 5.6860                 5.8124
 IR Inten    --     33.0326                45.7091                37.3828

                     82                     83                     84
                      A                      A                      A
 Frequencies --   3030.1697              3034.5657              3045.4133
 Red. masses --      1.0708                 1.0715                 1.0643
 Frc consts  --      5.7930                 5.8135                 5.8159
 IR Inten    --     26.4905                32.3466                35.1196

                     85                     86                     87
                      A                      A                      A
 Frequencies --   3055.0683              3058.1196              3063.0534
 Red. masses --      1.0351                 1.0378                 1.0643
 Frc consts  --      5.6920                 5.7184                 5.8836
 IR Inten    --     19.8021                18.6544                51.6654

                     88                     89                     90
                      A                      A                      A
 Frequencies --   3066.5496              3086.3320              3088.5837
 Red. masses --      1.0387                 1.0926                 1.0952
 Frc consts  --      5.7551                 6.1317                 6.1553
 IR Inten    --     19.3370                36.5548                26.5851

                     91                     92                     93
                      A                      A                      A
 Frequencies --   3100.1637              3104.7463              3111.8947
 Red. masses --      1.0917                 1.0939                 1.0960
 Frc consts  --      6.1817                 6.2128                 6.2536
 IR Inten    --     22.7475                 7.1720                46.4979

                     94                     95                     96
                      A                      A                      A
 Frequencies --   3120.2709              3123.0699              3126.4179
 Red. masses --      1.0981                 1.1007                 1.0976
 Frc consts  --      6.2990                 6.3256                 6.3209
 IR Inten    --     64.9201                15.7213                23.5936

                     97                     98                     99
                      A                      A                      A
 Frequencies --   3133.5613              3135.4598              3139.2158
 Red. masses --      1.1011                 1.1024                 1.1014
 Frc consts  --      6.3702                 6.3852                 6.3951
 IR Inten    --     49.5032                33.3242                40.6810

                    100                    101                    102
                      A                      A                      A
 Frequencies --   3161.8688              3488.8843              3571.6225
 Red. masses --      1.0998                 1.0505                 1.0916
 Frc consts  --      6.4779                 7.5340                 8.2047
 IR Inten    --     14.1907                 1.5125                 0.2129

 - Thermochemistry -
 -------------------
 Temperature   298.150 Kelvin.  Pressure   1.00000 Atm.
 Atom     1 has atomic number  6 and mass  12.00000

 Molecular mass:   185.17796 amu.
 Principal axes and moments of inertia in atomic units:
                           1         2         3
     Eigenvalues --  1519.097413387.524534197.16560
           X            0.99999   0.00043  -0.00460
           Y           -0.00048   0.99994  -0.01091
           Z            0.00460   0.01092   0.99993
 This molecule is an asymmetric top.
 Rotational symmetry number  1.
 Warning -- assumption of classical behavior for rotation
           may cause significant error
 Rotational temperatures (Kelvin)      0.05702     0.02557     0.02064
 Rotational constants (GHZ):           1.18804     0.53276     0.42999
 Zero-point vibrational energy     879049.2 (Joules/Mol)
                                  210.09780 (Kcal/Mol)
 Warning -- explicit consideration of  23 degrees of freedom as
           vibrations may cause significant error
 Vibrational temperatures:     63.45    99.99   119.45   158.74   208.78
          (Kelvin)            232.62   260.21   301.94   317.60   369.51
                              379.62   393.24   416.22   442.31   458.48
                              538.63   575.87   584.20   639.32   676.13
                              778.05   799.70   882.97  1007.85  1033.67
                             1133.65  1169.04  1218.54  1264.22  1284.91
                             1303.64  1313.91  1323.64  1341.81  1374.25
                             1401.16  1402.69  1407.99  1468.05  1507.89
                             1525.65  1529.46  1556.98  1595.14  1619.79
                             1668.50  1732.03  1751.45  1770.41  1777.19
                             1790.20  1823.69  1847.94  1851.04  1877.34
                             1889.47  1924.63  1944.62  1959.48  1965.41
                             1990.49  2046.94  2051.18  2056.98  2063.85
                             2076.33  2094.19  2162.22  2176.10  2182.12
                             2188.08  2190.18  2193.90  2197.69  2204.09
                             2207.89  2229.09  2237.46  2452.18  4318.82
                             4340.15  4359.74  4366.06  4381.67  4395.56
                             4399.95  4407.05  4412.08  4440.54  4443.78
                             4460.44  4467.04  4477.32  4489.37  4493.40
                             4498.22  4508.50  4511.23  4516.63  4549.22
                             5019.73  5138.77

 Zero-point correction=                           0.334812 (Hartree/Particle)
 Thermal correction to Energy=                    0.349753
 Thermal correction to Enthalpy=                  0.350697
 Thermal correction to Gibbs Free Energy=         0.293869
 Sum of electronic and zero-point Energies=           -562.706547
 Sum of electronic and thermal Energies=              -562.691606
 Sum of electronic and thermal Enthalpies=            -562.690662
 Sum of electronic and thermal Free Energies=         -562.747490

                     E (Thermal)             CV                S
                      KCal/Mol        Cal/Mol-Kelvin    Cal/Mol-Kelvin
 Total                  219.473             57.868            119.606
 Electronic               0.000              0.000              0.000
 Translational            0.889              2.981             41.555
 Rotational               0.889              2.981             31.447
 Vibrational            217.696             51.906             46.605
 Vibration     1          0.595              1.980              5.066
 Vibration     2          0.598              1.969              4.168
 Vibration     3          0.600              1.961              3.818
 Vibration     4          0.606              1.941              3.263
 Vibration     5          0.616              1.908              2.735
 Vibration     6          0.622              1.889              2.530
 Vibration     7          0.630              1.866              2.320
 Vibration     8          0.642              1.826              2.045
 Vibration     9          0.647              1.809              1.953
 Vibration    10          0.666              1.751              1.683
 Vibration    11          0.670              1.739              1.636
 Vibration    12          0.676              1.723              1.575
 Vibration    13          0.686              1.694              1.478
 Vibration    14          0.697              1.660              1.376
 Vibration    15          0.705              1.638              1.317
 Vibration    16          0.745              1.525              1.062
 Vibration    17          0.766              1.470              0.962
 Vibration    18          0.771              1.457              0.941
 Vibration    19          0.804              1.373              0.813
 Vibration    20          0.827              1.317              0.738
 Vibration    21          0.896              1.160              0.564
 Vibration    22          0.911              1.127              0.532
 Vibration    23          0.973              1.003              0.427

 Optimization completed.
    -- Stationary point found.
 Normal termination of Gaussian 16 at Wed Dec  9 22:53:21 2020.

 ----------------------------------------------------------------------
 # B3LYP/6-311++G(d,p) empiricaldispersion=gd3bj scf=xqc pop=npa geom=c
 heck
 ----------------------------------------------------------------------

 --------------------------------------
 CID_84718955_JID_3223_Energie_neutraal
 --------------------------------------
 Structure from the checkpoint file:  "JID_3223.chk"
 Charge =  0 Multiplicity = 1

 SCF Done:  E(RB3LYP) =  -563.206506074     A.U. after   13 cycles
 Normal termination of Gaussian 16 at Wed Dec  9 22:59:01 2020.

 ----------------------------------------------------------------------
 # B3LYP/6-311++G(d,p) empiricaldispersion=gd3bj scf=xqc pop=npa geom=c
 heck
 ----------------------------------------------------------------------

 ------------------------------------
 CID_84718955_JID_3223_Energie_kation
 ------------------------------------
 Structure from the checkpoint file:  "JID_3223.chk"
 Charge =  1 Multiplicity = 2

 SCF Done:  E(UB3LYP) =  -562.895759525     A.U. after   22 cycles
 Normal termination of Gaussian 16 at Wed Dec  9 23:12:34 2020.
 Gaussian 16:  ES64L-G16RevA.03 25-Dec-2016

 ----------------------------------------------------------------------
 # B3LYP/6-311++G(d,p) empiricaldispersion=gd3bj scf=xqc pop=npa geom=c
 heck
 ----------------------------------------------------------------------

 -----------------------------------
 CID_84718955_JID_3223_Energie_anion
 -----------------------------------
 Structure from the checkpoint file:  "JID_3223.chk"
 Charge = -1 Multiplicity = 2

                         Standard orientation:
 ---------------------------------------------------------------------
 Center     Atomic      Atomic             Coordinates (Angstroms)
 Number     Number       Type             X           Y           Z
 ---------------------------------------------------------------------
      1          6           0       -2.633064   -1.974377   -0.364514
      2          6           0       -2.076077   -0.607036    0.055470
      3          6           0       -3.196569    0.441169   -0.063653
      4          6           0       -1.556261   -0.699688    1.496960
      5          8           0       -1.060884   -0.366782   -0.935806
      6          6           0        0.027799    0.561039   -0.838823
      7          6           0       -0.340012    2.034834   -0.576549
      8          7           0       -0.438808    2.415092    0.839693
      9          6           0        1.187027    0.061135    0.028215
     10          6           0        1.620478   -1.381270   -0.272658
     11          6           0        2.998374   -1.476558    0.396946
     12          6           0        3.657637   -0.101794    0.123865
     13          6           0        2.485705    0.876397   -0.178174
     14          1           0       -3.467212   -2.273293    0.279465
     15          1           0       -1.848364   -2.734453   -0.300303
     16          1           0       -2.985079   -1.934228   -1.399922
     17          1           0       -4.053677    0.159503    0.558427
     18          1           0       -2.877167    1.438904    0.250274
     19          1           0       -3.529544    0.507316   -1.103980
     20          1           0       -0.801483   -1.486306    1.585139
     21          1           0       -1.115365    0.235775    1.846214
     22          1           0       -2.387163   -0.953517    2.165046
     23          1           0        0.392520    0.549087   -1.876193
     24          1           0        0.480067    2.627599   -0.996106
     25          1           0       -1.235529    2.271713   -1.172286
     26          1           0       -0.351188    3.425590    0.922828
     27          1           0       -1.356052    2.183663    1.211484
     28          1           0        0.914522    0.136983    1.083949
     29          1           0        0.909022   -2.129903    0.087351
     30          1           0        1.710938   -1.519781   -1.359577
     31          1           0        3.599873   -2.315819    0.031676
     32          1           0        2.866589   -1.620831    1.477033
     33          1           0        4.333469   -0.163660   -0.736224
     34          1           0        4.262214    0.231390    0.973661
     35          1           0        2.546329    1.223098   -1.218894
     36          1           0        2.500778    1.766661    0.457027
 ---------------------------------------------------------------------

 SCF Done:  E(UB3LYP) =  -563.191792371     A.U. after   26 cycles

 The electronic state is 2-A.
 Alpha  occ. eigenvalues --  -19.00639 -14.18521 -10.12844 -10.11208 -10.08473
 Alpha  occ. eigenvalues --  -10.06493 -10.06456 -10.05870 -10.05835 -10.05766
 Alpha  occ. eigenvalues --  -10.05507 -10.05403 -10.05357  -0.91689  -0.77598
 Alpha  occ. eigenvalues --   -0.73580  -0.69980  -0.63900  -0.60626  -0.59003
 Alpha  occ. eigenvalues --   -0.58788  -0.57936  -0.51340  -0.47259  -0.46064
 Alpha  occ. eigenvalues --   -0.42872  -0.39850  -0.38637  -0.38139  -0.36423
 Alpha  occ. eigenvalues --   -0.35039  -0.33941  -0.33135  -0.32244  -0.31492
 Alpha  occ. eigenvalues --   -0.30565  -0.29617  -0.29158  -0.28108  -0.26688
 Alpha  occ. eigenvalues --   -0.26229  -0.25156  -0.24021  -0.23883  -0.23586
 Alpha  occ. eigenvalues --   -0.23422  -0.22242  -0.22063  -0.20965  -0.18359
 Alpha  occ. eigenvalues --   -0.15242  -0.13606   0.04542
 Alpha virt. eigenvalues --    0.06689   0.07000   0.07874   0.08772   0.08826
 Alpha virt. eigenvalues --    0.09223   0.09662   0.10196   0.11123   0.11193
 Alpha virt. eigenvalues --    0.11581   0.11959   0.12500   0.13293   0.13550

  Beta  occ. eigenvalues --  -19.00637 -14.18470 -10.12843 -10.11204 -10.08451
  Beta  occ. eigenvalues --  -10.06482 -10.06445 -10.05856 -10.05829 -10.05756
  Beta  occ. eigenvalues --  -10.05486 -10.05379 -10.05319  -0.91682  -0.77515
  Beta  occ. eigenvalues --   -0.73559  -0.69959  -0.63864  -0.60596  -0.58943
  Beta  occ. eigenvalues --   -0.58747  -0.57880  -0.51290  -0.47224  -0.46024
  Beta  occ. eigenvalues --   -0.42832  -0.39793  -0.38598  -0.38112  -0.36384
  Beta  occ. eigenvalues --   -0.34999  -0.33894  -0.33091  -0.32215  -0.31471
  Beta  occ. eigenvalues --   -0.30534  -0.29588  -0.29124  -0.28074  -0.26658
  Beta  occ. eigenvalues --   -0.26197  -0.25129  -0.23996  -0.23855  -0.23564
  Beta  occ. eigenvalues --   -0.23397  -0.22220  -0.22042  -0.20940  -0.18343
  Beta  occ. eigenvalues --   -0.15221  -0.13567
  Beta virt. eigenvalues --    0.06568   0.07362   0.07903   0.08236   0.09179
  Beta virt. eigenvalues --    0.09305   0.09542   0.10057   0.10556   0.11394
  Beta virt. eigenvalues --    0.11429   0.11772   0.12228   0.12858   0.13593

 Mulliken charges and spin densities:
               1          2
     1  C    0.179055  -0.541077
     2  C   -1.305044   1.032474
     3  C    0.926712  -1.381481
     4  C    0.379458  -0.842692
     5  O   -0.010547   0.022883
     6  C    0.121277   0.285016
     7  C    1.002205  -1.761829
     8  N   -0.558496   0.175644
     9  C   -0.697445   1.130532
    10  C   -0.295905   0.047846
    11  C   -0.188930  -0.245001
    12  C   -0.307291  -0.174152
    13  C    0.972882  -1.587628
    14  H   -0.091570   0.222004
    15  H   -0.067106   0.207047
    16  H    0.034256   0.119201
    17  H   -0.160669   0.305318
    18  H   -0.643368   0.769791
    19  H   -0.010541   0.169170
    20  H    0.033962   0.122360
    21  H   -0.155496   0.296508
    22  H   -0.376451   0.549629
    23  H    0.074035   0.105645
    24  H   -0.328199   0.503145
    25  H    0.017401   0.139826
    26  H   -0.382063   0.644008
    27  H    0.285201  -0.078468
    28  H    0.396969  -0.220553
    29  H    0.227338  -0.110579
    30  H    0.004590   0.148900
    31  H   -0.081768   0.236942
    32  H    0.028600   0.103894
    33  H    0.019426   0.109475
    34  H   -0.086051   0.228124
    35  H    0.025560   0.110384
    36  H    0.018015   0.157694
 Sum of Mulliken charges =  -1.00000   1.00000

 Dipole moment (field-independent basis, Debye):
    X=              2.4976    Y=             -4.0266    Z=             -1.6980  Tot=              5.0333
 Quadrupole moment (field-independent basis, Debye-Ang):
   XX=           -146.7827   YY=           -139.3172   ZZ=           -117.3260
   XY=              1.5874   XZ=              4.1542   YZ=             -3.5072

 Summary of Natural Population Analysis:

                                       Natural Population
                Natural  -----------------------------------------------
    Atom  No    Charge         Core      Valence    Rydberg      Total
 -----------------------------------------------------------------------
      C    1   -0.28447      0.99961     2.27756    0.00730     3.28447
      C    2    0.13231      0.99953     1.85246    0.01570     2.86769
      C    3   -0.29485      0.99960     2.28798    0.00727     3.29485
      C    4   -0.30498      0.99960     2.29830    0.00707     3.30498
      O    5   -0.32181      0.99986     3.31017    0.01177     4.32181
      C    6    0.07440      0.99947     1.90996    0.01616     2.92560
      C    7   -0.10502      0.99960     2.09286    0.01257     3.10502
      N    8   -0.42665      0.99976     2.91553    0.01135     3.92665
      C    9   -0.12820      0.99956     2.11694    0.01170     3.12820
      C   10   -0.18650      0.99962     2.17919    0.00769     3.18650
      C   11   -0.18988      0.99964     2.18372    0.00652     3.18988
      C   12   -0.19105      0.99965     2.18461    0.00679     3.19105
      C   13   -0.19043      0.99962     2.18225    0.00856     3.19043
      H   14    0.09728      0.00000     0.40184    0.00088     0.40272
      H   15    0.10084      0.00000     0.39815    0.00101     0.39916
      H   16    0.10161      0.00000     0.39744    0.00095     0.39839
      H   17    0.10056      0.00000     0.39823    0.00121     0.39944
      H   18    0.09699      0.00000     0.40121    0.00181     0.40301
      H   19    0.10242      0.00000     0.39644    0.00113     0.39758
      H   20    0.10113      0.00000     0.39776    0.00111     0.39887
      H   21    0.10707      0.00000     0.39109    0.00184     0.39293
      H   22    0.10288      0.00000     0.39603    0.00109     0.39712
      H   23    0.08912      0.00000     0.40926    0.00162     0.41088
      H   24    0.09745      0.00000     0.40106    0.00149     0.40255
      H   25    0.08721      0.00000     0.41124    0.00155     0.41279
      H   26    0.18138      0.00000     0.31420    0.00443     0.31862
      H   27    0.17391      0.00000     0.32340    0.00269     0.32609
      H   28    0.10557      0.00000     0.39192    0.00251     0.39443
      H   29    0.10232      0.00000     0.39661    0.00106     0.39768
      H   30    0.09276      0.00000     0.40603    0.00122     0.40724
      H   31    0.09571      0.00000     0.40316    0.00112     0.40429
      H   32    0.09271      0.00000     0.40587    0.00143     0.40729
      H   33    0.09333      0.00000     0.40537    0.00130     0.40667
      H   34    0.09617      0.00000     0.40270    0.00113     0.40383
      H   35    0.09273      0.00000     0.40588    0.00139     0.40727
      H   36    0.10598      0.00000     0.39289    0.00113     0.39402
 =======================================================================
   * Total *   -0.00000     12.99514    38.83929    0.16557    52.00000

 Normal termination of Gaussian 16 at Wed Dec  9 23:28:14 2020.
