 Gaussian 16, Revision A.03,

 -----------------------------------------------------------
 # opt freq B3LYP/6-31G(d) empiricaldispersion=gd3bj scf=xqc
 -----------------------------------------------------------

 -------------------------------
 CID_148826569_JID_4735_neutraal
 -------------------------------
 Symbolic Z-matrix:
 Charge =  0 Multiplicity = 1

 SCF Done:  E(RB3LYP) =  -934.131143636     A.U. after   15 cycles
 SCF Done:  E(RB3LYP) =  -934.136414624     A.U. after   12 cycles
 SCF Done:  E(RB3LYP) =  -934.137129290     A.U. after   11 cycles
 SCF Done:  E(RB3LYP) =  -934.137244591     A.U. after   11 cycles
 SCF Done:  E(RB3LYP) =  -934.137308444     A.U. after   10 cycles
 SCF Done:  E(RB3LYP) =  -934.137345129     A.U. after   10 cycles
 SCF Done:  E(RB3LYP) =  -934.137372313     A.U. after   10 cycles
 SCF Done:  E(RB3LYP) =  -934.137382070     A.U. after    9 cycles
 SCF Done:  E(RB3LYP) =  -934.137394597     A.U. after   10 cycles
 SCF Done:  E(RB3LYP) =  -934.137398912     A.U. after   10 cycles
 SCF Done:  E(RB3LYP) =  -934.137399915     A.U. after    9 cycles
 SCF Done:  E(RB3LYP) =  -934.137400299     A.U. after    8 cycles
 Optimization completed.
    -- Stationary point found.
 Normal termination of Gaussian 16 at Thu Dec 10 10:27:59 2020.

 --------------------------------------------------------------------
 #N Geom=AllCheck Guess=TCheck SCRF=Check GenChk RB3LYP/6-31G(d) Freq
 --------------------------------------------------------------------

 Structure from the checkpoint file:  "JID_4735.chk"
 -------------------------------
 CID_148826569_JID_4735_neutraal
 -------------------------------
 Charge =  0 Multiplicity = 1

 SCF Done:  E(RB3LYP) =  -934.137400299     A.U. after    1 cycles

  Exact polarizability: 247.507  18.950 152.754  -0.293  -4.758  65.822
 Approx polarizability: 359.150  44.839 286.168  -0.874 -16.474 104.801

                      1                      2                      3
                      A                      A                      A
 Frequencies --     38.2619                55.4958                87.0152
 Red. masses --      3.8687                 2.8837                 2.9934
 Frc consts  --      0.0033                 0.0052                 0.0134
 IR Inten    --      0.4495                 0.8060                 1.2787

                      4                      5                      6
                      A                      A                      A
 Frequencies --    119.8202               170.4273               193.6618
 Red. masses --      2.1497                 2.2898                 4.1300
 Frc consts  --      0.0182                 0.0392                 0.0913
 IR Inten    --      1.4456                 0.8727                 1.1158

                      7                      8                      9
                      A                      A                      A
 Frequencies --    201.7531               205.6880               244.4644
 Red. masses --      1.6581                 1.9988                 1.8410
 Frc consts  --      0.0398                 0.0498                 0.0648
 IR Inten    --      0.2500                 0.4412                 0.1109

                     10                     11                     12
                      A                      A                      A
 Frequencies --    299.3033               320.8653               327.8209
 Red. masses --      3.6503                 4.1172                 4.5845
 Frc consts  --      0.1927                 0.2497                 0.2903
 IR Inten    --      0.1566                 4.7274                 0.9183

                     13                     14                     15
                      A                      A                      A
 Frequencies --    345.0711               425.0153               438.9463
 Red. masses --      3.7904                 8.8999                 3.2787
 Frc consts  --      0.2659                 0.9472                 0.3722
 IR Inten    --      7.5201                 0.5657                 4.1282

                     16                     17                     18
                      A                      A                      A
 Frequencies --    513.5743               523.1753               585.4195
 Red. masses --      8.6126                 5.6263                 5.7876
 Frc consts  --      1.3384                 0.9073                 1.1686
 IR Inten    --      0.1349                 2.5302                 1.7214

                     19                     20                     21
                      A                      A                      A
 Frequencies --    597.3240               680.4603               687.8421
 Red. masses --      5.2961                 4.2399                 4.2996
 Frc consts  --      1.1133                 1.1567                 1.1985
 IR Inten    --      3.2453                27.9812                 7.1974

                     22                     23                     24
                      A                      A                      A
 Frequencies --    715.3254               725.9906               738.8537
 Red. masses --      4.4106                 5.1052                 2.4995
 Frc consts  --      1.3297                 1.5853                 0.8039
 IR Inten    --      7.2680                 3.7848                14.1122

                     25                     26                     27
                      A                      A                      A
 Frequencies --    772.7540               799.0561               847.0199
 Red. masses --      1.6650                 1.3625                 2.5057
 Frc consts  --      0.5858                 0.5125                 1.0592
 IR Inten    --     39.4929                18.0970                79.7217

                     28                     29                     30
                      A                      A                      A
 Frequencies --    868.6718               880.9196               939.6590
 Red. masses --      1.3723                 1.9908                 4.6300
 Frc consts  --      0.6101                 0.9102                 2.4086
 IR Inten    --      0.5835                40.2624                22.8348

                     31                     32                     33
                      A                      A                      A
 Frequencies --    941.7568               982.4586              1024.3570
 Red. masses --      1.3565                 1.2569                 1.6161
 Frc consts  --      0.7089                 0.7148                 0.9991
 IR Inten    --      1.7310                 0.0041                19.3963

                     34                     35                     36
                      A                      A                      A
 Frequencies --   1048.8398              1062.0334              1085.1997
 Red. masses --      2.2028                 1.4598                 4.6365
 Frc consts  --      1.4277                 0.9701                 3.2170
 IR Inten    --      4.9127                 4.1001                 4.7596

                     37                     38                     39
                      A                      A                      A
 Frequencies --   1126.1834              1148.0817              1155.4441
 Red. masses --      2.6544                 2.4252                 1.4533
 Frc consts  --      1.9835                 1.8834                 1.1431
 IR Inten    --      0.9764                37.1145                 2.9086

                     40                     41                     42
                      A                      A                      A
 Frequencies --   1162.9078              1195.1178              1204.1646
 Red. masses --      1.7603                 1.1683                 1.5902
 Frc consts  --      1.4026                 0.9832                 1.3585
 IR Inten    --     79.5085                 0.8535                21.0592

                     43                     44                     45
                      A                      A                      A
 Frequencies --   1266.1246              1284.7398              1324.3898
 Red. masses --      2.8978                 2.1759                 2.4652
 Frc consts  --      2.7369                 2.1160                 2.5476
 IR Inten    --      5.6916                 5.3313                 7.0185

                     46                     47                     48
                      A                      A                      A
 Frequencies --   1368.5978              1394.5097              1442.7832
 Red. masses --      5.4244                 1.5104                 1.3262
 Frc consts  --      5.9862                 1.7305                 1.6265
 IR Inten    --     11.9976                 8.0298                 1.6703

                     49                     50                     51
                      A                      A                      A
 Frequencies --   1483.1457              1485.9315              1506.8780
 Red. masses --      2.5298                 1.1707                 2.5259
 Frc consts  --      3.2787                 1.5230                 3.3792
 IR Inten    --     26.4273                 8.6802                 7.6619

                     52                     53                     54
                      A                      A                      A
 Frequencies --   1513.2174              1516.3019              1527.6004
 Red. masses --      1.0740                 1.0558                 1.0739
 Frc consts  --      1.4490                 1.4303                 1.4766
 IR Inten    --     11.4341                13.2496                 6.0504

                     55                     56                     57
                      A                      A                      A
 Frequencies --   1541.8862              1551.0454              1568.3601
 Red. masses --      1.0946                 7.6683                 1.2980
 Frc consts  --      1.5333                10.8692                 1.8811
 IR Inten    --      0.9490                78.2897                85.7757

                     58                     59                     60
                      A                      A                      A
 Frequencies --   1618.2960              1655.6113              1719.9500
 Red. masses --      5.5728                 6.2064                 5.0411
 Frc consts  --      8.5988                10.0232                 8.7862
 IR Inten    --      3.6097                 2.9062                14.2610

                     61                     62                     63
                      A                      A                      A
 Frequencies --   3007.1648              3021.3702              3082.3021
 Red. masses --      1.0547                 1.0475                 1.0865
 Frc consts  --      5.6194                 5.6341                 6.0817
 IR Inten    --     70.7717                51.4343                23.7849

                     64                     65                     66
                      A                      A                      A
 Frequencies --   3107.3461              3122.2247              3147.9647
 Red. masses --      1.0811                 1.1022                 1.1025
 Frc consts  --      6.1502                 6.3305                 6.4369
 IR Inten    --     44.2928                18.0495                15.4106

                     67                     68                     69
                      A                      A                      A
 Frequencies --   3185.3840              3191.9930              3203.8887
 Red. masses --      1.0890                 1.0858                 1.0896
 Frc consts  --      6.5101                 6.5179                 6.5900
 IR Inten    --     13.8070                 1.3202                 9.4543

                     70                     71                     72
                      A                      A                      A
 Frequencies --   3214.3361              3221.9362              3530.3085
 Red. masses --      1.0944                 1.0960                 1.0739
 Frc consts  --      6.6618                 6.7035                 7.8854
 IR Inten    --     21.9262                16.3717                31.5297

 - Thermochemistry -
 -------------------
 Temperature   298.150 Kelvin.  Pressure   1.00000 Atm.
 Atom     1 has atomic number  6 and mass  12.00000

 Molecular mass:   204.07212 amu.
 Principal axes and moments of inertia in atomic units:
                           1         2         3
     Eigenvalues --  1159.603665185.240626254.51906
           X            1.00000  -0.00074  -0.00302
           Y            0.00076   0.99998   0.00654
           Z            0.00301  -0.00655   0.99997
 This molecule is an asymmetric top.
 Rotational symmetry number  1.
 Warning -- assumption of classical behavior for rotation
           may cause significant error
 Rotational temperatures (Kelvin)      0.07469     0.01670     0.01385
 Rotational constants (GHZ):           1.55634     0.34805     0.28855
 Zero-point vibrational energy     552027.5 (Joules/Mol)
                                  131.93773 (Kcal/Mol)
 Warning -- explicit consideration of  19 degrees of freedom as
           vibrations may cause significant error
 Vibrational temperatures:     55.05    79.85   125.20   172.39   245.21
          (Kelvin)            278.64   290.28   295.94   351.73   430.63
                              461.65   471.66   496.48   611.50   631.55
                              738.92   752.73   842.29   859.42   979.03
                              989.65  1029.19  1044.54  1063.05  1111.82
                             1149.66  1218.67  1249.83  1267.45  1351.96
                             1354.98  1413.54  1473.82  1509.05  1528.03
                             1561.36  1620.33  1651.83  1662.43  1673.16
                             1719.51  1732.52  1821.67  1848.45  1905.50
                             1969.11  2006.39  2075.84  2133.92  2137.92
                             2168.06  2177.18  2181.62  2197.88  2218.43
                             2231.61  2256.52  2328.37  2382.06  2474.62
                             4326.64  4347.08  4434.75  4470.78  4492.18
                             4529.22  4583.06  4592.57  4609.68  4624.71
                             4635.65  5079.33

 Zero-point correction=                           0.210256 (Hartree/Particle)
 Thermal correction to Energy=                    0.223260
 Thermal correction to Enthalpy=                  0.224205
 Thermal correction to Gibbs Free Energy=         0.170111
 Sum of electronic and zero-point Energies=           -933.927144
 Sum of electronic and thermal Energies=              -933.914140
 Sum of electronic and thermal Enthalpies=            -933.913196
 Sum of electronic and thermal Free Energies=         -933.967289

                     E (Thermal)             CV                S
                      KCal/Mol        Cal/Mol-Kelvin    Cal/Mol-Kelvin
 Total                  140.098             49.347            113.849
 Electronic               0.000              0.000              0.000
 Translational            0.889              2.981             41.844
 Rotational               0.889              2.981             31.998
 Vibrational            138.321             43.385             40.008
 Vibration     1          0.594              1.982              5.347
 Vibration     2          0.596              1.975              4.611
 Vibration     3          0.601              1.958              3.726
 Vibration     4          0.609              1.933              3.103
 Vibration     5          0.626              1.879              2.431
 Vibration     6          0.635              1.849              2.192
 Vibration     7          0.639              1.837              2.117
 Vibration     8          0.640              1.832              2.082
 Vibration     9          0.660              1.772              1.770
 Vibration    10          0.692              1.675              1.421
 Vibration    11          0.706              1.634              1.306
 Vibration    12          0.711              1.620              1.271
 Vibration    13          0.723              1.585              1.189
 Vibration    14          0.787              1.416              0.875
 Vibration    15          0.799              1.385              0.830
 Vibration    16          0.869              1.220              0.625
 Vibration    17          0.878              1.199              0.603
 Vibration    18          0.942              1.063              0.475
 Vibration    19          0.955              1.037              0.454

                           ! Non-Optimized Parameters !
 Normal termination of Gaussian 16 at Thu Dec 10 10:34:30 2020.

 ----------------------------------------------------------------------
 # B3LYP/6-311++G(d,p) empiricaldispersion=gd3bj scf=xqc pop=npa geom=c
 heck
 ----------------------------------------------------------------------

 ---------------------------------------
 CID_148826569_JID_4735_Energie_neutraal
 ---------------------------------------
 Structure from the checkpoint file:  "JID_4735.chk"
 Charge =  0 Multiplicity = 1

 SCF Done:  E(RB3LYP) =  -934.305199405     A.U. after   16 cycles
 Normal termination of Gaussian 16 at Thu Dec 10 10:37:36 2020.

 ----------------------------------------------------------------------
 # B3LYP/6-311++G(d,p) empiricaldispersion=gd3bj scf=xqc pop=npa geom=c
 heck
 ----------------------------------------------------------------------

 -------------------------------------
 CID_148826569_JID_4735_Energie_kation
 -------------------------------------
 Structure from the checkpoint file:  "JID_4735.chk"
 Charge =  1 Multiplicity = 2

 SCF Done:  E(UB3LYP) =  -934.032058414     A.U. after   26 cycles
 Normal termination of Gaussian 16 at Thu Dec 10 10:44:37 2020.
 Gaussian 16:  ES64L-G16RevA.03 25-Dec-2016

 ----------------------------------------------------------------------
 # B3LYP/6-311++G(d,p) empiricaldispersion=gd3bj scf=xqc pop=npa geom=c
 heck
 ----------------------------------------------------------------------

 ------------------------------------
 CID_148826569_JID_4735_Energie_anion
 ------------------------------------
 Structure from the checkpoint file:  "JID_4735.chk"
 Charge = -1 Multiplicity = 2

                         Standard orientation:
 ---------------------------------------------------------------------
 Center     Atomic      Atomic             Coordinates (Angstroms)
 Number     Number       Type             X           Y           Z
 ---------------------------------------------------------------------
      1          6           0       -4.280042   -1.131917   -0.141407
      2          6           0       -2.797647   -1.087433    0.057949
      3          6           0       -2.024062    0.002735   -0.141989
      4          6           0       -0.558616   -0.068300   -0.067906
      5          7           0        0.193075    0.992616   -0.128240
      6          6           0        1.538528    0.676304   -0.067396
      7          6           0        2.590749    1.601076   -0.098363
      8          6           0        3.897972    1.136160   -0.020542
      9          6           0        4.169329   -0.237912    0.088583
     10          6           0        3.137674   -1.173305    0.121913
     11          6           0        1.825537   -0.706817    0.041654
     12         16           0        0.325898   -1.614981    0.043726
     13          7           0       -2.528363    1.279115   -0.454092
     14          6           0       -3.410922    1.912261    0.528173
     15          1           0       -4.595173   -0.372659   -0.864796
     16          1           0       -4.837956   -0.958467    0.790887
     17          1           0       -4.587489   -2.115567   -0.513949
     18          1           0       -2.311043   -2.007686    0.370335
     19          1           0        2.364988    2.659226   -0.180474
     20          1           0        4.721775    1.843231   -0.043559
     21          1           0        5.198723   -0.578790    0.147673
     22          1           0        3.351323   -2.234071    0.206306
     23          1           0       -1.747021    1.893212   -0.666036
     24          1           0       -2.975332    1.948521    1.538966
     25          1           0       -3.613859    2.935264    0.198150
     26          1           0       -4.367287    1.388248    0.589187
 ---------------------------------------------------------------------

 SCF Done:  E(UB3LYP) =  -934.314285917     A.U. after   23 cycles

 The electronic state is 2-A.
 Alpha  occ. eigenvalues --  -88.71920 -14.17369 -14.14376 -10.07282 -10.06235
 Alpha  occ. eigenvalues --  -10.06114 -10.05797 -10.05160 -10.04325 -10.04214
 Alpha  occ. eigenvalues --  -10.03928 -10.03374 -10.03128 -10.00555  -7.80588
 Alpha  occ. eigenvalues --   -5.76895  -5.76560  -5.76127  -0.81216  -0.77965
 Alpha  occ. eigenvalues --   -0.70909  -0.65355  -0.64020  -0.60743  -0.59186
 Alpha  occ. eigenvalues --   -0.56849  -0.52509  -0.48064  -0.45558  -0.43722
 Alpha  occ. eigenvalues --   -0.40766  -0.36567  -0.34855  -0.34216  -0.32161
 Alpha  occ. eigenvalues --   -0.31870  -0.30421  -0.29847  -0.28927  -0.28212
 Alpha  occ. eigenvalues --   -0.27414  -0.26677  -0.25714  -0.23632  -0.23000
 Alpha  occ. eigenvalues --   -0.22296  -0.21221  -0.19518  -0.16069  -0.15996
 Alpha  occ. eigenvalues --   -0.12631  -0.10612  -0.09799  -0.06937   0.04584
 Alpha virt. eigenvalues --    0.08170   0.08555   0.09567   0.10094   0.10782
 Alpha virt. eigenvalues --    0.11205   0.11596   0.11955   0.12685   0.13321
 Alpha virt. eigenvalues --    0.13804   0.14090   0.14469   0.15417   0.15826

  Beta  occ. eigenvalues --  -88.71894 -14.17364 -14.14169 -10.07270 -10.06062
  Beta  occ. eigenvalues --  -10.05770 -10.05747 -10.05201 -10.04301 -10.04285
  Beta  occ. eigenvalues --  -10.03963 -10.03183 -10.02970 -10.00124  -7.80565
  Beta  occ. eigenvalues --   -5.76888  -5.76556  -5.76027  -0.80779  -0.77861
  Beta  occ. eigenvalues --   -0.70655  -0.65031  -0.63626  -0.60393  -0.58917
  Beta  occ. eigenvalues --   -0.56754  -0.52366  -0.47585  -0.45415  -0.43288
  Beta  occ. eigenvalues --   -0.40517  -0.36404  -0.34678  -0.33955  -0.32071
  Beta  occ. eigenvalues --   -0.31700  -0.30311  -0.29707  -0.28559  -0.28032
  Beta  occ. eigenvalues --   -0.26627  -0.26557  -0.25564  -0.23401  -0.22806
  Beta  occ. eigenvalues --   -0.22144  -0.20107  -0.19383  -0.15599  -0.15183
  Beta  occ. eigenvalues --   -0.12369  -0.09760  -0.08862  -0.05441
  Beta virt. eigenvalues --    0.08094   0.08525   0.09482   0.10052   0.10406
  Beta virt. eigenvalues --    0.10829   0.11218   0.11818   0.11965   0.12626
  Beta virt. eigenvalues --    0.13299   0.13763   0.14427   0.14929   0.15531

 Mulliken charges and spin densities:
               1          2
     1  C   -0.784626  -0.002271
     2  C    0.076034   0.319219
     3  C    0.041622  -0.022656
     4  C   -0.032338   0.283087
     5  N    0.090066   0.087483
     6  C   -1.105120  -0.029598
     7  C   -0.814025   0.134818
     8  C   -0.340109  -0.052620
     9  C   -0.177958   0.161652
    10  C   -0.121432   0.004688
    11  C    1.851790   0.050297
    12  S   -0.710200   0.059052
    13  N   -0.145553   0.010543
    14  C   -0.333539  -0.070486
    15  H    0.155288   0.000401
    16  H    0.091865   0.045141
    17  H    0.106054   0.005831
    18  H    0.118137  -0.025443
    19  H    0.124134  -0.008865
    20  H    0.115164   0.003781
    21  H    0.105269  -0.011805
    22  H    0.127257  -0.002428
    23  H    0.256155   0.003036
    24  H    0.108167   0.016106
    25  H    0.078080   0.020178
    26  H    0.119818   0.020861
 Sum of Mulliken charges =  -1.00000   1.00000

 Dipole moment (field-independent basis, Debye):
    X=             -0.0166    Y=              0.2326    Z=              0.5406  Tot=              0.5888
 Quadrupole moment (field-independent basis, Debye-Ang):
   XX=           -131.8584   YY=           -101.9355   ZZ=           -103.8718
   XY=             -2.9013   XZ=             -1.4289   YZ=             -0.0260

 Summary of Natural Population Analysis:

                                       Natural Population
                Natural  -----------------------------------------------
    Atom  No    Charge         Core      Valence    Rydberg      Total
 -----------------------------------------------------------------------
      C    1   -0.30707      0.99967     2.30270    0.00470     3.30707
      C    2   -0.02141      0.99952     2.01331    0.00858     3.02141
      C    3    0.03536      0.99940     1.95177    0.01347     2.96464
      C    4    0.13690      0.99952     1.84804    0.01554     2.86310
      N    5   -0.24596      0.99962     2.73452    0.01182     3.74596
      C    6    0.06481      0.99944     1.92339    0.01236     2.93519
      C    7   -0.07524      0.99952     2.06660    0.00912     3.07524
      C    8   -0.13186      0.99958     2.12278    0.00950     3.13186
      C    9   -0.08236      0.99958     2.07282    0.00996     3.08236
      C   10   -0.11642      0.99951     2.10683    0.01008     3.11642
      C   11   -0.09309      0.99940     2.08338    0.01031     3.09309
      S   12    0.15463      4.99946     2.82676    0.01916     7.84537
      N   13   -0.33640      0.99969     2.82310    0.01361     3.83640
      C   14   -0.17259      0.99966     2.16586    0.00706     3.17259
      H   15    0.10031      0.00000     0.39849    0.00120     0.39969
      H   16    0.09710      0.00000     0.40139    0.00151     0.40290
      H   17    0.09525      0.00000     0.40381    0.00094     0.40475
      H   18    0.08796      0.00000     0.41106    0.00099     0.41204
      H   19    0.09567      0.00000     0.40283    0.00150     0.40433
      H   20    0.09079      0.00000     0.40813    0.00107     0.40921
      H   21    0.08826      0.00000     0.41068    0.00106     0.41174
      H   22    0.09393      0.00000     0.40442    0.00165     0.40607
      H   23    0.18951      0.00000     0.30625    0.00424     0.31049
      H   24    0.07876      0.00000     0.41810    0.00314     0.42124
      H   25    0.08543      0.00000     0.41318    0.00139     0.41457
      H   26    0.08773      0.00000     0.41037    0.00190     0.41227
 =======================================================================
   * Total *    0.00000     17.99359    35.83057    0.17584    54.00000

 Normal termination of Gaussian 16 at Thu Dec 10 10:50:07 2020.
