 Gaussian 16, Revision A.03,

 -----------------------------------------------------------
 # opt freq B3LYP/6-31G(d) empiricaldispersion=gd3bj scf=xqc
 -----------------------------------------------------------

 -------------------------------
 CID_102600040_JID_4631_neutraal
 -------------------------------
 Symbolic Z-matrix:
 Charge =  0 Multiplicity = 1

 SCF Done:  E(RB3LYP) =  -991.050438514     A.U. after   15 cycles
 SCF Done:  E(RB3LYP) =  -991.054365543     A.U. after   13 cycles
 SCF Done:  E(RB3LYP) =  -991.053544018     A.U. after   12 cycles
 SCF Done:  E(RB3LYP) =  -991.054254467     A.U. after   13 cycles
 SCF Done:  E(RB3LYP) =  -991.054904174     A.U. after    9 cycles
 SCF Done:  E(RB3LYP) =  -991.055090128     A.U. after   13 cycles
 SCF Done:  E(RB3LYP) =  -991.055205010     A.U. after   12 cycles
 SCF Done:  E(RB3LYP) =  -991.055464952     A.U. after   13 cycles
 SCF Done:  E(RB3LYP) =  -991.056203467     A.U. after   15 cycles
 SCF Done:  E(RB3LYP) =  -991.056744673     A.U. after   15 cycles
 SCF Done:  E(RB3LYP) =  -991.058114012     A.U. after   10 cycles
 SCF Done:  E(RB3LYP) =  -991.058114167     A.U. after    7 cycles
 SCF Done:  E(RB3LYP) =  -991.058114312     A.U. after    7 cycles
 SCF Done:  E(RB3LYP) =  -991.058114345     A.U. after    7 cycles
 SCF Done:  E(RB3LYP) =  -991.058114354     A.U. after    7 cycles
 Optimization completed.
    -- Stationary point found.
 Normal termination of Gaussian 16 at Thu Dec 10 10:18:49 2020.

 --------------------------------------------------------------------
 #N Geom=AllCheck Guess=TCheck SCRF=Check GenChk RB3LYP/6-31G(d) Freq
 --------------------------------------------------------------------

 Structure from the checkpoint file:  "JID_4631.chk"
 -------------------------------
 CID_102600040_JID_4631_neutraal
 -------------------------------
 Charge =  0 Multiplicity = 1

 SCF Done:  E(RB3LYP) =  -991.058114354     A.U. after    1 cycles

  Exact polarizability: 176.985  11.475 131.719   0.003   0.002  76.461
 Approx polarizability: 249.639  26.635 228.773   0.009   0.006 112.649

                      1                      2                      3
                      A                      A                      A
 Frequencies --     17.7753                55.8537                85.8624
 Red. masses --      4.1702                 7.2398                 4.2797
 Frc consts  --      0.0008                 0.0133                 0.0186
 IR Inten    --      0.0061                 2.6909                 2.5643

                      4                      5                      6
                      A                      A                      A
 Frequencies --     86.9757               131.5980               132.0966
 Red. masses --      4.5289                 1.3874                 4.5718
 Frc consts  --      0.0202                 0.0142                 0.0470
 IR Inten    --      0.1141                 0.0986                 0.9762

                      7                      8                      9
                      A                      A                      A
 Frequencies --    150.0578               180.3521               224.7616
 Red. masses --      2.2169                 2.9419                 3.4310
 Frc consts  --      0.0294                 0.0564                 0.1021
 IR Inten    --      0.0528                 0.6381                 6.5368

                     10                     11                     12
                      A                      A                      A
 Frequencies --    231.2477               252.0560               283.9733
 Red. masses --      4.8990                 1.0829                 1.2263
 Frc consts  --      0.1544                 0.0405                 0.0583
 IR Inten    --      2.0169                 0.0325                 0.6445

                     13                     14                     15
                      A                      A                      A
 Frequencies --    292.3547               323.2783               346.5600
 Red. masses --      2.7299                 5.4052                 4.6645
 Frc consts  --      0.1375                 0.3328                 0.3301
 IR Inten    --      0.4382                17.6356                 1.0470

                     16                     17                     18
                      A                      A                      A
 Frequencies --    349.6318               388.4011               422.2525
 Red. masses --      5.3554                 3.2692                 6.8656
 Frc consts  --      0.3857                 0.2906                 0.7212
 IR Inten    --      1.8206                 1.7456                 3.1081

                     19                     20                     21
                      A                      A                      A
 Frequencies --    534.9058               535.0233               580.7150
 Red. masses --      5.8682                 9.4505                 5.8106
 Frc consts  --      0.9893                 1.5939                 1.1545
 IR Inten    --      0.4464                 2.5736                 3.4249

                     22                     23                     24
                      A                      A                      A
 Frequencies --    597.4794               613.2633               642.0947
 Red. masses --      4.4136                 1.2048                 1.2315
 Frc consts  --      0.9283                 0.2670                 0.2992
 IR Inten    --      3.8550                50.8829                46.4517

                     25                     26                     27
                      A                      A                      A
 Frequencies --    670.4686               674.5426               762.4317
 Red. masses --      9.3453                11.6676                 2.5162
 Frc consts  --      2.4751                 3.1279                 0.8618
 IR Inten    --      2.9651                 0.2327                31.3414

                     28                     29                     30
                      A                      A                      A
 Frequencies --    789.5889               821.2853               822.0336
 Red. masses --      6.7410                 1.9744                 3.1612
 Frc consts  --      2.4762                 0.7846                 1.2586
 IR Inten    --     29.4788                 6.9411                 1.7818

                     31                     32                     33
                      A                      A                      A
 Frequencies --    868.8754               940.2180               958.2043
 Red. masses --      3.9052                 5.9738                 2.1847
 Frc consts  --      1.7370                 3.1114                 1.1818
 IR Inten    --     15.1920                 4.5972                 1.3785

                     34                     35                     36
                      A                      A                      A
 Frequencies --    959.5407              1033.6086              1051.8050
 Red. masses --      1.6208                 4.6354                 1.2816
 Frc consts  --      0.8793                 2.9177                 0.8354
 IR Inten    --      0.4030                32.5893                 0.0595

                     37                     38                     39
                      A                      A                      A
 Frequencies --   1091.2316              1133.7397              1155.0742
 Red. masses --      2.6959                 1.9739                 3.1752
 Frc consts  --      1.8914                 1.4948                 2.4960
 IR Inten    --     76.8147                47.8885                 2.4593

                     40                     41                     42
                      A                      A                      A
 Frequencies --   1186.0601              1219.9081              1245.6299
 Red. masses --      1.2750                 1.4887                 3.0607
 Frc consts  --      1.0568                 1.3053                 2.7980
 IR Inten    --      0.8789                 3.0800                24.7413

                     43                     44                     45
                      A                      A                      A
 Frequencies --   1263.1280              1286.2768              1375.8538
 Red. masses --      2.9097                 4.4775                 7.8291
 Frc consts  --      2.7353                 4.3647                 8.7319
 IR Inten    --     15.7852               491.1356                68.0576

                     46                     47                     48
                      A                      A                      A
 Frequencies --   1416.6709              1438.3483              1489.8476
 Red. masses --      1.1935                 1.2144                 1.2603
 Frc consts  --      1.4112                 1.4803                 1.6482
 IR Inten    --      3.0722                 3.1571                 1.8103

                     49                     50                     51
                      A                      A                      A
 Frequencies --   1510.5732              1512.6643              1516.1077
 Red. masses --      1.0469                 1.0480                 1.0467
 Frc consts  --      1.4074                 1.4128                 1.4176
 IR Inten    --      2.5592                 5.7831                 0.7874

                     52                     53                     54
                      A                      A                      A
 Frequencies --   1523.6966              1526.3484              1532.2837
 Red. masses --      1.0672                 1.0677                 1.2789
 Frc consts  --      1.4598                 1.4655                 1.7691
 IR Inten    --     18.8690                11.0697                 4.5587

                     55                     56                     57
                      A                      A                      A
 Frequencies --   1545.3805              1561.8153              1799.5520
 Red. masses --      4.5967                 4.4622                11.7168
 Frc consts  --      6.4680                 6.4129                22.3558
 IR Inten    --     98.8981                 7.3612               237.6189

                     58                     59                     60
                      A                      A                      A
 Frequencies --   2240.2338              3066.4307              3069.5095
 Red. masses --      5.9612                 1.0330                 1.0336
 Frc consts  --     17.6266                 5.7227                 5.7376
 IR Inten    --      0.4100                17.8033                17.5482

                     61                     62                     63
                      A                      A                      A
 Frequencies --   3074.6828              3142.6522              3145.3020
 Red. masses --      1.0298                 1.1042                 1.1039
 Frc consts  --      5.7359                 6.4251                 6.4342
 IR Inten    --     38.4502                 9.0892                31.7206

                     64                     65                     66
                      A                      A                      A
 Frequencies --   3147.9124              3155.6678              3159.1015
 Red. masses --      1.1073                 1.1047                 1.1039
 Frc consts  --      6.4651                 6.4813                 6.4911
 IR Inten    --     21.7834                 4.7632                18.9162

                     67                     68                     69
                      A                      A                      A
 Frequencies --   3184.0795              3293.4991              3495.6655
 Red. masses --      1.1068                 1.0945                 1.1607
 Frc consts  --      6.6114                 6.9951                 8.3566
 IR Inten    --     16.9460                 5.6410                63.8231

 - Thermochemistry -
 -------------------
 Temperature   298.150 Kelvin.  Pressure   1.00000 Atm.
 Atom     1 has atomic number  6 and mass  12.00000

 Molecular mass:   209.05105 amu.
 Principal axes and moments of inertia in atomic units:
                           1         2         3
     Eigenvalues --  1408.838935142.819586149.90165
           X            1.00000  -0.00190  -0.00000
           Y            0.00190   1.00000   0.00000
           Z            0.00000  -0.00000   1.00000
 This molecule is an asymmetric top.
 Rotational symmetry number  1.
 Warning -- assumption of classical behavior for rotation
           may cause significant error
 Rotational temperatures (Kelvin)      0.06148     0.01684     0.01408
 Rotational constants (GHZ):           1.28101     0.35092     0.29346
 Zero-point vibrational energy     504322.3 (Joules/Mol)
                                  120.53592 (Kcal/Mol)
 Warning -- explicit consideration of  23 degrees of freedom as
           vibrations may cause significant error
 Vibrational temperatures:     25.57    80.36   123.54   125.14   189.34
          (Kelvin)            190.06   215.90   259.49   323.38   332.71
                              362.65   408.57   420.63   465.13   498.62
                              503.04   558.82   607.53   769.61   769.78
                              835.52   859.64   882.35   923.83   964.65
                              970.52  1096.97  1136.04  1181.65  1182.72
                             1250.12  1352.76  1378.64  1380.57  1487.13
                             1513.31  1570.04  1631.20  1661.89  1706.48
                             1755.18  1792.18  1817.36  1850.67  1979.55
                             2038.27  2069.46  2143.56  2173.38  2176.39
                             2181.34  2192.26  2196.07  2204.61  2223.46
                             2247.10  2589.15  3223.20  4411.91  4416.34
                             4423.78  4521.58  4525.39  4529.14  4540.30
                             4545.24  4581.18  4738.61  5029.48

 Zero-point correction=                           0.192086 (Hartree/Particle)
 Thermal correction to Energy=                    0.206918
 Thermal correction to Enthalpy=                  0.207862
 Thermal correction to Gibbs Free Energy=         0.149210
 Sum of electronic and zero-point Energies=           -990.866028
 Sum of electronic and thermal Energies=              -990.851197
 Sum of electronic and thermal Enthalpies=            -990.850253
 Sum of electronic and thermal Free Energies=         -990.908904

                     E (Thermal)             CV                S
                      KCal/Mol        Cal/Mol-Kelvin    Cal/Mol-Kelvin
 Total                  129.843             53.833            123.442
 Electronic               0.000              0.000              0.000
 Translational            0.889              2.981             41.916
 Rotational               0.889              2.981             32.166
 Vibrational            128.065             47.871             49.360
 Vibration     1          0.593              1.986              6.868
 Vibration     2          0.596              1.975              4.599
 Vibration     3          0.601              1.959              3.752
 Vibration     4          0.601              1.958              3.727
 Vibration     5          0.612              1.922              2.923
 Vibration     6          0.612              1.921              2.915
 Vibration     7          0.618              1.903              2.671
 Vibration     8          0.629              1.866              2.325
 Vibration     9          0.649              1.803              1.920
 Vibration    10          0.653              1.793              1.869
 Vibration    11          0.664              1.759              1.716
 Vibration    12          0.682              1.703              1.510
 Vibration    13          0.688              1.688              1.460
 Vibration    14          0.708              1.629              1.293
 Vibration    15          0.725              1.582              1.182
 Vibration    16          0.727              1.576              1.168
 Vibration    17          0.757              1.495              1.006
 Vibration    18          0.785              1.422              0.884
 Vibration    19          0.890              1.173              0.576
 Vibration    20          0.890              1.173              0.576
 Vibration    21          0.937              1.073              0.484
 Vibration    22          0.955              1.037              0.454
 Vibration    23          0.973              1.004              0.427

 Optimization completed.
    -- Stationary point found.
 Normal termination of Gaussian 16 at Thu Dec 10 10:24:44 2020.

 ----------------------------------------------------------------------
 # B3LYP/6-311++G(d,p) empiricaldispersion=gd3bj scf=xqc pop=npa geom=c
 heck
 ----------------------------------------------------------------------

 ---------------------------------------
 CID_102600040_JID_4631_Energie_neutraal
 ---------------------------------------
 Structure from the checkpoint file:  "JID_4631.chk"
 Charge =  0 Multiplicity = 1

 SCF Done:  E(RB3LYP) =  -991.253401837     A.U. after   16 cycles
 Normal termination of Gaussian 16 at Thu Dec 10 10:27:14 2020.

 ----------------------------------------------------------------------
 # B3LYP/6-311++G(d,p) empiricaldispersion=gd3bj scf=xqc pop=npa geom=c
 heck
 ----------------------------------------------------------------------

 -------------------------------------
 CID_102600040_JID_4631_Energie_kation
 -------------------------------------
 Structure from the checkpoint file:  "JID_4631.chk"
 Charge =  1 Multiplicity = 2

 SCF Done:  E(UB3LYP) =  -990.925252557     A.U. after   27 cycles
 Normal termination of Gaussian 16 at Thu Dec 10 10:36:51 2020.
 Gaussian 16:  ES64L-G16RevA.03 25-Dec-2016

 ----------------------------------------------------------------------
 # B3LYP/6-311++G(d,p) empiricaldispersion=gd3bj scf=xqc pop=npa geom=c
 heck
 ----------------------------------------------------------------------

 ------------------------------------
 CID_102600040_JID_4631_Energie_anion
 ------------------------------------
 Structure from the checkpoint file:  "JID_4631.chk"
 Charge = -1 Multiplicity = 2

                         Standard orientation:
 ---------------------------------------------------------------------
 Center     Atomic      Atomic             Coordinates (Angstroms)
 Number     Number       Type             X           Y           Z
 ---------------------------------------------------------------------
      1          6           0        2.131313   -1.735784   -1.268589
      2          6           0        2.154317   -0.846314   -0.000065
      3          6           0        2.131215   -1.735909    1.268381
      4          6           0        3.365147   -0.015590    0.000048
      5          6           0        4.373011    0.648418    0.000431
      6          6           0        0.908868    0.028424   -0.000063
      7          7           0       -0.294028   -0.458297   -0.000037
      8          6           0       -1.240901    0.544208   -0.000028
      9          6           0       -0.745286    1.822757   -0.000054
     10         16           0        0.977662    1.793967   -0.000118
     11          6           0       -2.697782    0.273355    0.000030
     12          8           0       -3.542233    1.148835    0.000092
     13          8           0       -2.976266   -1.042994    0.000037
     14          6           0       -4.375687   -1.360739    0.000079
     15          1           0        2.998382   -2.402998   -1.270588
     16          1           0        2.160912   -1.120561   -2.172168
     17          1           0        1.213754   -2.329382   -1.275267
     18          1           0        2.998301   -2.403102    1.270422
     19          1           0        2.160692   -1.120766    2.172016
     20          1           0        1.213677   -2.329542    1.274893
     21          1           0        5.260139    1.239994    0.000555
     22          1           0       -1.316945    2.739339   -0.000045
     23          1           0       -4.862220   -0.951639    0.889572
     24          1           0       -4.862480   -0.950818   -0.888887
     25          1           0       -4.425891   -2.449595   -0.000399
 ---------------------------------------------------------------------

 SCF Done:  E(UB3LYP) =  -991.249457365     A.U. after   33 cycles
 SCF Done:  E(UB3LYP) =  -991.249457365     a.u. after    1 cycles

 The electronic state is 2-A.
 Alpha  occ. eigenvalues --  -88.70762 -19.00775 -18.93135 -14.15629 -10.11497
 Alpha  occ. eigenvalues --  -10.10320 -10.09684 -10.07235 -10.06998 -10.06076
 Alpha  occ. eigenvalues --  -10.05688 -10.05688 -10.02652 -10.00377  -7.79421
 Alpha  occ. eigenvalues --   -5.75704  -5.75346  -5.75075  -0.94705  -0.85099
 Alpha  occ. eigenvalues --   -0.80497  -0.71876  -0.63895  -0.62824  -0.60751
 Alpha  occ. eigenvalues --   -0.58321  -0.57031  -0.51600  -0.45130  -0.44649
 Alpha  occ. eigenvalues --   -0.41279  -0.39565  -0.36006  -0.34320  -0.34218
 Alpha  occ. eigenvalues --   -0.33650  -0.32034  -0.31199  -0.29101  -0.28889
 Alpha  occ. eigenvalues --   -0.27230  -0.26391  -0.26070  -0.24997  -0.22656
 Alpha  occ. eigenvalues --   -0.22467  -0.21742  -0.20148  -0.17296  -0.17251
 Alpha  occ. eigenvalues --   -0.15704  -0.12784  -0.12414  -0.11379  -0.08897
 Alpha  occ. eigenvalues --    0.06656
 Alpha virt. eigenvalues --    0.07744   0.08731   0.09056   0.10173   0.11099
 Alpha virt. eigenvalues --    0.11810   0.11856   0.12498   0.12839   0.12856
 Alpha virt. eigenvalues --    0.13498   0.13646   0.14262   0.15026   0.15629

  Beta  occ. eigenvalues --  -88.70680 -19.00663 -18.92935 -14.15713 -10.11237
  Beta  occ. eigenvalues --  -10.10335 -10.09689 -10.07234 -10.06778 -10.06076
  Beta  occ. eigenvalues --  -10.05675 -10.05675 -10.02615  -9.99675  -7.79346
  Beta  occ. eigenvalues --   -5.75670  -5.75318  -5.74789  -0.94409  -0.84751
  Beta  occ. eigenvalues --   -0.80347  -0.71825  -0.63707  -0.62407  -0.60425
  Beta  occ. eigenvalues --   -0.58292  -0.56692  -0.51505  -0.44640  -0.44180
  Beta  occ. eigenvalues --   -0.41119  -0.39266  -0.35841  -0.34077  -0.33948
  Beta  occ. eigenvalues --   -0.33504  -0.31906  -0.30932  -0.28911  -0.28830
  Beta  occ. eigenvalues --   -0.27106  -0.25957  -0.25628  -0.24702  -0.22458
  Beta  occ. eigenvalues --   -0.21690  -0.21493  -0.19731  -0.17245  -0.17169
  Beta  occ. eigenvalues --   -0.14805  -0.12361  -0.11490  -0.11193  -0.06558
  Beta virt. eigenvalues --    0.07690   0.08695   0.09012   0.10148   0.11064
  Beta virt. eigenvalues --    0.11810   0.11817   0.12428   0.12765   0.12808
  Beta virt. eigenvalues --    0.13451   0.13550   0.14334   0.14933   0.15032

 Mulliken charges and spin densities:
               1          2
     1  C   -0.633610   0.008828
     2  C    1.113657   0.019936
     3  C   -0.633734   0.008829
     4  C   -0.025891  -0.030123
     5  C    0.127247   0.029114
     6  C   -0.633035   0.074000
     7  N    0.157265  -0.042611
     8  C   -0.623448  -0.040461
     9  C    0.598037   0.557110
    10  S   -0.783610   0.150545
    11  C   -0.684666   0.182961
    12  O   -0.382817   0.068539
    13  O   -0.103984   0.016109
    14  C   -0.192381  -0.002573
    15  H    0.126461   0.009274
    16  H    0.151325  -0.001127
    17  H    0.158534   0.005419
    18  H    0.126434   0.009275
    19  H    0.151327  -0.001128
    20  H    0.158561   0.005413
    21  H    0.156038   0.000354
    22  H    0.251618  -0.037688
    23  H    0.151792   0.005190
    24  H    0.151879   0.005131
    25  H    0.117002  -0.000315
 Sum of Mulliken charges =  -1.00000   1.00000

 Dipole moment (field-independent basis, Debye):
    X=              3.9204    Y=             -3.8285    Z=             -0.0002  Tot=              5.4797
 Quadrupole moment (field-independent basis, Debye-Ang):
   XX=           -123.0142   YY=           -105.7271   ZZ=            -98.0382
   XY=              9.7127   XZ=              0.0022   YZ=              0.0007

 Summary of Natural Population Analysis:

                                       Natural Population
                Natural  -----------------------------------------------
    Atom  No    Charge         Core      Valence    Rydberg      Total
 -----------------------------------------------------------------------
      C    1   -0.26798      0.99965     2.26295    0.00538     3.26798
      C    2   -0.10290      0.99946     2.09187    0.01156     3.10290
      C    3   -0.26798      0.99965     2.26295    0.00538     3.26798
      C    4    0.01969      0.99939     1.97067    0.01025     2.98031
      C    5   -0.13537      0.99927     2.13185    0.00425     3.13537
      C    6    0.05472      0.99956     1.92312    0.02260     2.94528
      N    7   -0.25573      0.99962     2.74446    0.01165     3.75573
      C    8   -0.00619      0.99942     1.99286    0.01391     3.00619
      C    9   -0.04280      0.99950     2.03351    0.00979     3.04280
      S   10    0.20338      4.99943     2.77591    0.02129     7.79662
      C   11    0.42502      0.99963     1.55175    0.02359     2.57498
      O   12   -0.31858      0.99988     3.31286    0.00584     4.31858
      O   13   -0.26809      0.99986     3.25991    0.00833     4.26809
      C   14   -0.10604      0.99962     2.09777    0.00866     3.10604
      H   15    0.09116      0.00000     0.40797    0.00087     0.40884
      H   16    0.10286      0.00000     0.39640    0.00074     0.39714
      H   17    0.10933      0.00000     0.38982    0.00084     0.39067
      H   18    0.09116      0.00000     0.40797    0.00087     0.40884
      H   19    0.10286      0.00000     0.39640    0.00074     0.39714
      H   20    0.10933      0.00000     0.38982    0.00084     0.39067
      H   21    0.10744      0.00000     0.39093    0.00163     0.39256
      H   22    0.10323      0.00000     0.39579    0.00098     0.39677
      H   23    0.08539      0.00000     0.41332    0.00129     0.41461
      H   24    0.08540      0.00000     0.41331    0.00129     0.41460
      H   25    0.08068      0.00000     0.41843    0.00089     0.41932
 =======================================================================
   * Total *    0.00000     17.99393    36.83259    0.17349    55.00000

 Normal termination of Gaussian 16 at Thu Dec 10 10:44:55 2020.
