 Gaussian 16, Revision A.03,

 -----------------------------------------------------------
 # opt freq B3LYP/6-31G(d) empiricaldispersion=gd3bj scf=xqc
 -----------------------------------------------------------

 ------------------------------
 CID_61772148_JID_7401_neutraal
 ------------------------------
 Symbolic Z-matrix:
 Charge =  0 Multiplicity = 1

 SCF Done:  E(RB3LYP) =  -735.355154980     A.U. after   14 cycles
 SCF Done:  E(RB3LYP) =  -735.358385617     A.U. after   12 cycles
 SCF Done:  E(RB3LYP) =  -735.357829936     A.U. after   12 cycles
 SCF Done:  E(RB3LYP) =  -735.358790818     A.U. after   12 cycles
 SCF Done:  E(RB3LYP) =  -735.359550580     A.U. after   12 cycles
 SCF Done:  E(RB3LYP) =  -735.360012278     A.U. after   12 cycles
 SCF Done:  E(RB3LYP) =  -735.360099600     A.U. after   10 cycles
 SCF Done:  E(RB3LYP) =  -735.360132271     A.U. after   10 cycles
 SCF Done:  E(RB3LYP) =  -735.360143598     A.U. after   10 cycles
 SCF Done:  E(RB3LYP) =  -735.360147830     A.U. after    8 cycles
 SCF Done:  E(RB3LYP) =  -735.360197660     A.U. after    9 cycles
 SCF Done:  E(RB3LYP) =  -735.360196608     A.U. after    9 cycles
 SCF Done:  E(RB3LYP) =  -735.360197815     A.U. after    9 cycles
 SCF Done:  E(RB3LYP) =  -735.360197764     A.U. after    7 cycles
 SCF Done:  E(RB3LYP) =  -735.360197822     A.U. after    7 cycles
 Optimization completed on the basis of negligible forces.
    -- Stationary point found.
 Normal termination of Gaussian 16 at Fri Dec 11 12:20:58 2020.

 --------------------------------------------------------------------
 #N Geom=AllCheck Guess=TCheck SCRF=Check GenChk RB3LYP/6-31G(d) Freq
 --------------------------------------------------------------------

 Structure from the checkpoint file:  "JID_7401.chk"
 ------------------------------
 CID_61772148_JID_7401_neutraal
 ------------------------------
 Charge =  0 Multiplicity = 1

 SCF Done:  E(RB3LYP) =  -735.360197822     A.U. after    1 cycles

  Exact polarizability: 162.945 -25.996 152.253   5.774  -0.166 152.840
 Approx polarizability: 221.046 -47.401 219.877  10.910   4.444 250.867

                      1                      2                      3
                      A                      A                      A
 Frequencies --     27.4465                28.7836                41.3878
 Red. masses --      2.9433                 3.2432                 2.2731
 Frc consts  --      0.0013                 0.0016                 0.0023
 IR Inten    --      0.0330                 0.0624                 0.0400

                      4                      5                      6
                      A                      A                      A
 Frequencies --     43.1524                74.4827               103.8699
 Red. masses --      3.1441                 3.4295                 3.2997
 Frc consts  --      0.0034                 0.0112                 0.0210
 IR Inten    --      0.2775                 0.6084                 0.5427

                      7                      8                      9
                      A                      A                      A
 Frequencies --    137.3437               157.1568               171.1413
 Red. masses --      1.0670                 2.2465                 2.7777
 Frc consts  --      0.0119                 0.0327                 0.0479
 IR Inten    --      0.0026                 1.6997                 0.7424

                     10                     11                     12
                      A                      A                      A
 Frequencies --    174.2262               199.7855               226.1223
 Red. masses --      1.4539                 3.1054                 2.9926
 Frc consts  --      0.0260                 0.0730                 0.0902
 IR Inten    --      0.4984                 0.7658                 3.1497

                     13                     14                     15
                      A                      A                      A
 Frequencies --    252.2536               303.8099               312.2187
 Red. masses --      3.3999                 2.5338                 3.8192
 Frc consts  --      0.1275                 0.1378                 0.2194
 IR Inten    --      4.9206                 0.1446                 1.5074

                     16                     17                     18
                      A                      A                      A
 Frequencies --    350.3001               376.0243               416.2841
 Red. masses --      4.3070                 3.5915                 3.0078
 Frc consts  --      0.3114                 0.2992                 0.3071
 IR Inten    --      2.1599                 0.8248                 0.5562

                     19                     20                     21
                      A                      A                      A
 Frequencies --    454.3537               466.9094               481.4813
 Red. masses --      2.9137                 2.3421                 2.7615
 Frc consts  --      0.3544                 0.3008                 0.3772
 IR Inten    --      5.3740                 6.4383                 0.2308

                     22                     23                     24
                      A                      A                      A
 Frequencies --    521.4364               529.6957               551.0983
 Red. masses --      1.3264                 4.2390                 2.5765
 Frc consts  --      0.2125                 0.7008                 0.4610
 IR Inten    --     48.4922                24.5883                13.9555

                     25                     26                     27
                      A                      A                      A
 Frequencies --    566.7222               576.9138               621.5971
 Red. masses --      2.9767                 4.0247                 2.6043
 Frc consts  --      0.5633                 0.7892                 0.5929
 IR Inten    --     11.3651                11.2198                 3.2928

                     28                     29                     30
                      A                      A                      A
 Frequencies --    693.2702               719.1910               765.4581
 Red. masses --      4.6816                 3.7521                 4.0729
 Frc consts  --      1.3257                 1.1434                 1.4060
 IR Inten    --      9.6993                 1.3921                 4.6250

                     31                     32                     33
                      A                      A                      A
 Frequencies --    779.7475               781.2885               826.6346
 Red. masses --      1.9132                 1.3904                 1.6836
 Frc consts  --      0.6854                 0.5001                 0.6778
 IR Inten    --     20.9292                 6.1862                 0.9280

                     34                     35                     36
                      A                      A                      A
 Frequencies --    843.7699               877.0028               890.3986
 Red. masses --      1.5930                 3.4215                 3.4130
 Frc consts  --      0.6682                 1.5505                 1.5942
 IR Inten    --      6.2735                 8.0089                 3.1518

                     37                     38                     39
                      A                      A                      A
 Frequencies --    905.1105               932.5742               949.7334
 Red. masses --      2.3075                 1.3289                 1.2971
 Frc consts  --      1.1138                 0.6810                 0.6894
 IR Inten    --      1.1614                 1.8836                 0.1577

                     40                     41                     42
                      A                      A                      A
 Frequencies --    962.6030               966.8163               987.0353
 Red. masses --      2.1140                 2.1416                 1.9725
 Frc consts  --      1.1541                 1.1794                 1.1322
 IR Inten    --      1.0067                 8.8979                 1.4364

                     43                     44                     45
                      A                      A                      A
 Frequencies --   1000.2914              1010.6777              1026.4755
 Red. masses --      1.9362                 1.4647                 1.5154
 Frc consts  --      1.1415                 0.8815                 0.9408
 IR Inten    --      4.7537                 0.9652                 5.5398

                     46                     47                     48
                      A                      A                      A
 Frequencies --   1027.5353              1059.7691              1061.1541
 Red. masses --      1.6292                 1.8335                 1.6491
 Frc consts  --      1.0135                 1.2132                 1.0941
 IR Inten    --      5.9664                 4.0227                 5.9755

                     49                     50                     51
                      A                      A                      A
 Frequencies --   1074.0751              1085.6065              1105.6513
 Red. masses --      2.3232                 1.5963                 2.9382
 Frc consts  --      1.5791                 1.1084                 2.1162
 IR Inten    --     24.6197                 0.0087               101.4262

                     52                     53                     54
                      A                      A                      A
 Frequencies --   1136.3289              1141.2089              1154.1720
 Red. masses --      2.6466                 5.1559                 2.0896
 Frc consts  --      2.0135                 3.9563                 1.6401
 IR Inten    --      2.7638               123.6441                12.5487

                     55                     56                     57
                      A                      A                      A
 Frequencies --   1195.1262              1210.4436              1221.3114
 Red. masses --      1.5269                 1.4164                 1.4190
 Frc consts  --      1.2850                 1.2227                 1.2471
 IR Inten    --      6.2235                 2.3767                 4.3826

                     58                     59                     60
                      A                      A                      A
 Frequencies --   1233.3405              1246.0552              1258.9877
 Red. masses --      2.0373                 1.4561                 1.3845
 Frc consts  --      1.8259                 1.3320                 1.2930
 IR Inten    --      6.3647                 7.8025                19.8408

                     61                     62                     63
                      A                      A                      A
 Frequencies --   1275.0695              1287.2971              1310.7313
 Red. masses --      3.1759                 1.1922                 1.3023
 Frc consts  --      3.0421                 1.1640                 1.3182
 IR Inten    --      1.9649                 0.5633                 1.3833

                     64                     65                     66
                      A                      A                      A
 Frequencies --   1313.4318              1319.1877              1335.1263
 Red. masses --      1.3597                 1.2694                 1.2715
 Frc consts  --      1.3820                 1.3016                 1.3354
 IR Inten    --      1.6412                10.0815                 2.5148

                     67                     68                     69
                      A                      A                      A
 Frequencies --   1347.8756              1350.8570              1364.2968
 Red. masses --      1.6028                 2.8912                 1.3424
 Frc consts  --      1.7157                 3.1084                 1.4722
 IR Inten    --      0.7407                 4.2301                 0.1588

                     70                     71                     72
                      A                      A                      A
 Frequencies --   1380.9839              1392.0488              1409.5774
 Red. masses --      1.6966                 1.4306                 1.2540
 Frc consts  --      1.9064                 1.6333                 1.4680
 IR Inten    --     21.0943                 4.1734                25.4477

                     73                     74                     75
                      A                      A                      A
 Frequencies --   1431.8687              1438.5731              1446.3833
 Red. masses --      1.3848                 1.2736                 1.4208
 Frc consts  --      1.6728                 1.5530                 1.7512
 IR Inten    --     39.6002                 1.3043                22.7690

                     76                     77                     78
                      A                      A                      A
 Frequencies --   1450.8023              1461.5258              1507.3194
 Red. masses --      1.2319                 1.9760                 1.0454
 Frc consts  --      1.5277                 2.4868                 1.3994
 IR Inten    --      1.3126                35.4370                 0.0168

                     79                     80                     81
                      A                      A                      A
 Frequencies --   1515.4979              1519.2535              1521.2379
 Red. masses --      1.0804                 1.0960                 1.1936
 Frc consts  --      1.4619                 1.4904                 1.6274
 IR Inten    --      1.5912                 4.1285                20.5099

                     82                     83                     84
                      A                      A                      A
 Frequencies --   1523.1618              1524.7289              1525.2319
 Red. masses --      1.0454                 1.1085                 1.1118
 Frc consts  --      1.4289                 1.5183                 1.5238
 IR Inten    --     14.1769                 1.3760                 3.5238

                     85                     86                     87
                      A                      A                      A
 Frequencies --   1527.1794              1550.6392              1551.4975
 Red. masses --      1.0860                 1.2018                 1.9905
 Frc consts  --      1.4924                 1.7026                 2.8230
 IR Inten    --      2.9513                 4.1414                16.8826

                     88                     89                     90
                      A                      A                      A
 Frequencies --   1631.3649              1675.8931              3032.3872
 Red. masses --      5.9524                 5.9820                 1.0834
 Frc consts  --      9.3335                 9.8989                 5.8693
 IR Inten    --      0.8631                 4.5062                29.1803

                     91                     92                     93
                      A                      A                      A
 Frequencies --   3036.4121              3037.4620              3046.4276
 Red. masses --      1.0390                 1.0383                 1.0675
 Frc consts  --      5.6442                 5.6443                 5.8373
 IR Inten    --     10.3338                56.1534                 8.8439

                     94                     95                     96
                      A                      A                      A
 Frequencies --   3056.6031              3062.6000              3068.5335
 Red. masses --      1.0658                 1.0647                 1.0593
 Frc consts  --      5.8670                 5.8838                 5.8769
 IR Inten    --     18.9610                12.0128                54.8799

                     97                     98                     99
                      A                      A                      A
 Frequencies --   3072.1009              3075.5642              3082.4485
 Red. masses --      1.0761                 1.0651                 1.1001
 Frc consts  --      5.9837                 5.9361                 6.1586
 IR Inten    --     32.6695                37.0279                43.1623

                    100                    101                    102
                      A                      A                      A
 Frequencies --   3084.2647              3095.7395              3109.8996
 Red. masses --      1.1000                 1.1012                 1.1014
 Frc consts  --      6.1653                 6.2179                 6.2759
 IR Inten    --      0.4369                13.6381                 8.5591

                    103                    104                    105
                      A                      A                      A
 Frequencies --   3115.0070              3119.9704              3125.1417
 Red. masses --      1.1035                 1.1050                 1.1048
 Frc consts  --      6.3085                 6.3372                 6.3573
 IR Inten    --     22.7479                34.2561                84.5290

                    106                    107                    108
                      A                      A                      A
 Frequencies --   3125.5897              3130.3632              3167.6443
 Red. masses --      1.0998                 1.0995                 1.0861
 Frc consts  --      6.3306                 6.3478                 6.4211
 IR Inten    --     26.0183                13.9096                12.6623

                    109                    110                    111
                      A                      A                      A
 Frequencies --   3186.1244              3210.4228              3651.6410
 Red. masses --      1.0940                 1.0891                 1.0650
 Frc consts  --      6.5430                 6.6139                 8.3668
 IR Inten    --     27.6621                 3.1018                65.8283

 - Thermochemistry -
 -------------------
 Temperature   298.150 Kelvin.  Pressure   1.00000 Atm.
 Atom     1 has atomic number  6 and mass  12.00000

 Molecular mass:   234.16198 amu.
 Principal axes and moments of inertia in atomic units:
                           1         2         3
     Eigenvalues --  3138.594035157.831146415.04399
           X            0.99994  -0.00655   0.00919
           Y            0.00668   0.99987  -0.01477
           Z           -0.00909   0.01483   0.99985
 This molecule is an asymmetric top.
 Rotational symmetry number  1.
 Warning -- assumption of classical behavior for rotation
           may cause significant error
 Rotational temperatures (Kelvin)      0.02760     0.01679     0.01350
 Rotational constants (GHZ):           0.57502     0.34990     0.28133
 Zero-point vibrational energy     908419.2 (Joules/Mol)
                                  217.11740 (Kcal/Mol)
 Warning -- explicit consideration of  26 degrees of freedom as
           vibrations may cause significant error
 Vibrational temperatures:     39.49    41.41    59.55    62.09   107.16
          (Kelvin)            149.45   197.61   226.11   246.23   250.67
                              287.45   325.34   362.94   437.11   449.21
                              504.00   541.02   598.94   653.71   671.78
                              692.74   750.23   762.11   792.91   815.39
                              830.05   894.34   997.46  1034.76  1101.32
                             1121.88  1124.10  1189.34  1214.00  1261.81
                             1281.08  1302.25  1341.77  1366.45  1384.97
                             1391.03  1420.12  1439.20  1454.14  1476.87
                             1478.39  1524.77  1526.76  1545.35  1561.95
                             1590.79  1634.92  1641.95  1660.60  1719.52
                             1741.56  1757.19  1774.50  1792.80  1811.40
                             1834.54  1852.13  1885.85  1889.74  1898.02
                             1920.95  1939.29  1943.58  1962.92  1986.93
                             2002.85  2028.07  2060.14  2069.79  2081.02
                             2087.38  2102.81  2168.70  2180.46  2185.87
                             2188.72  2191.49  2193.74  2194.47  2197.27
                             2231.02  2232.26  2347.17  2411.24  4362.93
                             4368.72  4370.23  4383.13  4397.77  4406.40
                             4414.94  4420.07  4425.05  4434.96  4437.57
                             4454.08  4474.45  4481.80  4488.94  4496.38
                             4497.03  4503.89  4557.53  4584.12  4619.08
                             5253.90

 Zero-point correction=                           0.345999 (Hartree/Particle)
 Thermal correction to Energy=                    0.363161
 Thermal correction to Enthalpy=                  0.364105
 Thermal correction to Gibbs Free Energy=         0.299336
 Sum of electronic and zero-point Energies=           -735.014199
 Sum of electronic and thermal Energies=              -734.997037
 Sum of electronic and thermal Enthalpies=            -734.996092
 Sum of electronic and thermal Free Energies=         -735.060862

                     E (Thermal)             CV                S
                      KCal/Mol        Cal/Mol-Kelvin    Cal/Mol-Kelvin
 Total                  227.887             65.425            136.319
 Electronic               0.000              0.000              0.000
 Translational            0.889              2.981             42.254
 Rotational               0.889              2.981             33.007
 Vibrational            226.110             59.464             61.058
 Vibration     1          0.593              1.984              6.006
 Vibration     2          0.593              1.984              5.912
 Vibration     3          0.594              1.981              5.192
 Vibration     4          0.595              1.980              5.109
 Vibration     5          0.599              1.966              4.031
 Vibration     6          0.605              1.946              3.380
 Vibration     7          0.614              1.916              2.841
 Vibration     8          0.621              1.895              2.584
 Vibration     9          0.626              1.878              2.423
 Vibration    10          0.627              1.874              2.389
 Vibration    11          0.638              1.840              2.135
 Vibration    12          0.650              1.801              1.910
 Vibration    13          0.664              1.759              1.715
 Vibration    14          0.695              1.666              1.396
 Vibration    15          0.701              1.650              1.351
 Vibration    16          0.727              1.575              1.165
 Vibration    17          0.747              1.521              1.055
 Vibration    18          0.780              1.435              0.905
 Vibration    19          0.813              1.351              0.783
 Vibration    20          0.824              1.323              0.746
 Vibration    21          0.838              1.291              0.706
 Vibration    22          0.876              1.203              0.607
 Vibration    23          0.885              1.184              0.588
 Vibration    24          0.906              1.137              0.542
 Vibration    25          0.923              1.103              0.511
 Vibration    26          0.933              1.081              0.491

 Optimization completed on the basis of negligible forces.
    -- Stationary point found.
 Normal termination of Gaussian 16 at Fri Dec 11 12:36:11 2020.

 ----------------------------------------------------------------------
 # B3LYP/6-311++G(d,p) empiricaldispersion=gd3bj scf=xqc pop=npa geom=c
 heck
 ----------------------------------------------------------------------

 --------------------------------------
 CID_61772148_JID_7401_Energie_neutraal
 --------------------------------------
 Structure from the checkpoint file:  "JID_7401.chk"
 Charge =  0 Multiplicity = 1

 SCF Done:  E(RB3LYP) =  -735.566409005     A.U. after   14 cycles
 Normal termination of Gaussian 16 at Fri Dec 11 12:44:41 2020.

 ----------------------------------------------------------------------
 # B3LYP/6-311++G(d,p) empiricaldispersion=gd3bj scf=xqc pop=npa geom=c
 heck
 ----------------------------------------------------------------------

 ------------------------------------
 CID_61772148_JID_7401_Energie_kation
 ------------------------------------
 Structure from the checkpoint file:  "JID_7401.chk"
 Charge =  1 Multiplicity = 2

 SCF Done:  E(UB3LYP) =  -735.270636647     A.U. after   23 cycles
 Normal termination of Gaussian 16 at Fri Dec 11 12:59:56 2020.
 Gaussian 16:  ES64L-G16RevA.03 25-Dec-2016

 ----------------------------------------------------------------------
 # B3LYP/6-311++G(d,p) empiricaldispersion=gd3bj scf=xqc pop=npa geom=c
 heck
 ----------------------------------------------------------------------

 -----------------------------------
 CID_61772148_JID_7401_Energie_anion
 -----------------------------------
 Structure from the checkpoint file:  "JID_7401.chk"
 Charge = -1 Multiplicity = 2

                         Standard orientation:
 ---------------------------------------------------------------------
 Center     Atomic      Atomic             Coordinates (Angstroms)
 Number     Number       Type             X           Y           Z
 ---------------------------------------------------------------------
      1          6           0        3.784786   -1.789039   -0.535085
      2          6           0        2.749485   -0.694566   -0.465247
      3          6           0        2.427395   -0.081021    0.761835
      4          6           0        1.457860    0.925253    0.790784
      5          6           0        0.787499    1.338000   -0.362325
      6          6           0        1.130142    0.742775   -1.579410
      7          6           0        2.095266   -0.261334   -1.622461
      8          6           0       -0.302014    2.403237   -0.296945
      9          6           0       -1.658773    1.919470   -0.847990
     10          8           0       -2.343426    1.108002    0.100425
     11          6           0       -1.944827   -0.264983    0.181210
     12          6           0       -2.851445   -0.976793    1.191193
     13          6           0       -2.782226   -2.478205    0.808666
     14          6           0       -2.072795   -2.528381   -0.575214
     15          6           0       -2.116327   -1.085186   -1.103018
     16          8           0       -0.511157    2.896708    1.016303
     17          6           0        3.118145   -0.501537    2.035389
     18          1           0        4.765186   -1.442891   -0.183149
     19          1           0        3.511616   -2.646632    0.093314
     20          1           0        3.907167   -2.151646   -1.560014
     21          1           0        1.204939    1.405938    1.730197
     22          1           0        0.645901    1.058643   -2.500745
     23          1           0        2.347993   -0.720573   -2.575368
     24          1           0        0.014936    3.258943   -0.909142
     25          1           0       -2.305405    2.790194   -0.993122
     26          1           0       -1.544301    1.404562   -1.808173
     27          1           0       -0.899290   -0.329978    0.503457
     28          1           0       -2.555630   -0.778989    2.226001
     29          1           0       -3.865705   -0.583097    1.060036
     30          1           0       -3.787225   -2.908377    0.754369
     31          1           0       -2.231394   -3.061902    1.552865
     32          1           0       -2.535091   -3.242133   -1.263813
     33          1           0       -1.027416   -2.835016   -0.450721
     34          1           0       -3.095475   -0.853033   -1.542709
     35          1           0       -1.343931   -0.889459   -1.852295
     36          1           0       -1.215561    2.329180    1.381884
     37          1           0        2.752686    0.075289    2.889688
     38          1           0        2.955151   -1.565236    2.252474
     39          1           0        4.204486   -0.357600    1.972847
 ---------------------------------------------------------------------

 SCF Done:  E(UB3LYP) =  -735.553725491     A.U. after   33 cycles
 SCF Done:  E(UB3LYP) =  -735.553725491     a.u. after    1 cycles

 The electronic state is 2-A.
 Alpha  occ. eigenvalues --  -19.04403 -19.03257 -10.13888 -10.13287 -10.12417
 Alpha  occ. eigenvalues --  -10.08572 -10.08419 -10.08408 -10.07685 -10.07611
 Alpha  occ. eigenvalues --  -10.07270 -10.07177 -10.07160 -10.07137 -10.07113
 Alpha  occ. eigenvalues --  -10.06956 -10.06948  -0.96078  -0.93065  -0.76881
 Alpha  occ. eigenvalues --   -0.74252  -0.69927  -0.66954  -0.65392  -0.62028
 Alpha  occ. eigenvalues --   -0.61438  -0.59934  -0.57435  -0.53585  -0.50389
 Alpha  occ. eigenvalues --   -0.47946  -0.47681  -0.47123  -0.42540  -0.42059
 Alpha  occ. eigenvalues --   -0.40372  -0.39663  -0.38426  -0.37139  -0.35713
 Alpha  occ. eigenvalues --   -0.34287  -0.33927  -0.33590  -0.32651  -0.32023
 Alpha  occ. eigenvalues --   -0.31235  -0.30374  -0.30222  -0.29216  -0.28977
 Alpha  occ. eigenvalues --   -0.26908  -0.26383  -0.25715  -0.25184  -0.24981
 Alpha  occ. eigenvalues --   -0.24813  -0.24277  -0.23804  -0.22682  -0.21659
 Alpha  occ. eigenvalues --   -0.19839  -0.17939  -0.15303  -0.13903   0.04120
 Alpha virt. eigenvalues --    0.06050   0.06358   0.06938   0.07719   0.07998
 Alpha virt. eigenvalues --    0.08348   0.08561   0.08775   0.09204   0.09546
 Alpha virt. eigenvalues --    0.10343   0.10816   0.10870   0.11338   0.11648

  Beta  occ. eigenvalues --  -19.04399 -19.03254 -10.13883 -10.13279 -10.12412
  Beta  occ. eigenvalues --  -10.08568 -10.08418 -10.08408 -10.07672 -10.07597
  Beta  occ. eigenvalues --  -10.07253 -10.07169 -10.07155 -10.07105 -10.07093
  Beta  occ. eigenvalues --  -10.06942 -10.06911  -0.96069  -0.93057  -0.76866
  Beta  occ. eigenvalues --   -0.74232  -0.69908  -0.66929  -0.65369  -0.61996
  Beta  occ. eigenvalues --   -0.61403  -0.59894  -0.57390  -0.53555  -0.50356
  Beta  occ. eigenvalues --   -0.47900  -0.47646  -0.47091  -0.42521  -0.42036
  Beta  occ. eigenvalues --   -0.40351  -0.39626  -0.38408  -0.37115  -0.35681
  Beta  occ. eigenvalues --   -0.34257  -0.33892  -0.33565  -0.32629  -0.31995
  Beta  occ. eigenvalues --   -0.31201  -0.30340  -0.30195  -0.29184  -0.28943
  Beta  occ. eigenvalues --   -0.26892  -0.26360  -0.25693  -0.25155  -0.24955
  Beta  occ. eigenvalues --   -0.24786  -0.24249  -0.23784  -0.22655  -0.21638
  Beta  occ. eigenvalues --   -0.19830  -0.17930  -0.15284  -0.13884
  Beta virt. eigenvalues --    0.06114   0.06680   0.06917   0.07466   0.07905
  Beta virt. eigenvalues --    0.08263   0.08703   0.08790   0.09155   0.09456
  Beta virt. eigenvalues --    0.09757   0.10724   0.11098   0.11166   0.11585

 Mulliken charges and spin densities:
               1          2
     1  C    2.225646  -2.777070
     2  C   -1.640086   2.406513
     3  C   -1.858539   1.779867
     4  C   -0.133761  -0.199205
     5  C    1.467862  -0.909498
     6  C   -0.527436   0.069799
     7  C    0.608227  -1.110036
     8  C   -0.066307  -0.740811
     9  C    0.038195  -0.089126
    10  O   -0.093504   0.008196
    11  C   -0.834165   0.527526
    12  C    0.131520  -0.387073
    13  C    0.032932  -0.400131
    14  C    0.138442  -0.609553
    15  C   -0.103111   0.026900
    16  O   -0.174530  -0.002144
    17  C    0.774052  -1.240875
    18  H   -0.080369   0.227942
    19  H   -0.152494   0.318345
    20  H   -0.390980   0.539621
    21  H    0.040611   0.138867
    22  H   -0.478133   0.642579
    23  H   -0.472447   0.635946
    24  H    0.076045   0.111399
    25  H   -0.008524   0.218727
    26  H   -0.021981   0.141000
    27  H    1.172289  -0.939231
    28  H   -0.059403   0.199695
    29  H    0.028296   0.141305
    30  H    0.022268   0.110692
    31  H   -0.245450   0.391524
    32  H   -0.368355   0.537015
    33  H    0.166404  -0.029284
    34  H   -0.057513   0.219079
    35  H    0.135500   0.033591
    36  H    0.230853   0.020521
    37  H   -0.233733   0.379694
    38  H   -0.193842   0.361254
    39  H   -0.094479   0.246439
 Sum of Mulliken charges =  -1.00000   1.00000

 Dipole moment (field-independent basis, Debye):
    X=             -2.9058    Y=              3.9193    Z=              0.6711  Tot=              4.9250
 Quadrupole moment (field-independent basis, Debye-Ang):
   XX=           -174.0148   YY=           -161.1406   ZZ=           -151.3660
   XY=              3.7685   XZ=             -0.3475   YZ=             -1.6196

 Summary of Natural Population Analysis:

                                       Natural Population
                Natural  -----------------------------------------------
    Atom  No    Charge         Core      Valence    Rydberg      Total
 -----------------------------------------------------------------------
      C    1   -0.29467      0.99964     2.28944    0.00560     3.29467
      C    2   -0.01638      0.99947     2.00650    0.01040     3.01638
      C    3   -0.01059      0.99947     2.00103    0.01008     3.01059
      C    4   -0.10307      0.99946     2.09426    0.00935     3.10307
      C    5   -0.03365      0.99948     2.02261    0.01156     3.03365
      C    6   -0.10618      0.99950     2.09683    0.00985     3.10618
      C    7   -0.09269      0.99951     2.08288    0.01031     3.09269
      C    8    0.04748      0.99952     1.93872    0.01427     2.95252
      C    9   -0.01766      0.99955     2.00568    0.01243     3.01766
      O   10   -0.31046      0.99988     3.30093    0.00965     4.31046
      C   11    0.05766      0.99949     1.92825    0.01460     2.94234
      C   12   -0.19413      0.99962     2.18697    0.00755     3.19413
      C   13   -0.19318      0.99965     2.18607    0.00746     3.19318
      C   14   -0.19107      0.99964     2.18375    0.00767     3.19107
      C   15   -0.20585      0.99961     2.19802    0.00822     3.20585
      O   16   -0.37183      0.99990     3.36574    0.00620     4.37183
      C   17   -0.29451      0.99964     2.28910    0.00577     3.29451
      H   18    0.10369      0.00000     0.39507    0.00124     0.39631
      H   19    0.10658      0.00000     0.39203    0.00139     0.39342
      H   20    0.10356      0.00000     0.39519    0.00125     0.39644
      H   21    0.10799      0.00000     0.39076    0.00125     0.39201
      H   22    0.09975      0.00000     0.39873    0.00152     0.40025
      H   23    0.10076      0.00000     0.39802    0.00122     0.39924
      H   24    0.09237      0.00000     0.40631    0.00132     0.40763
      H   25    0.09142      0.00000     0.40760    0.00098     0.40858
      H   26    0.08961      0.00000     0.40896    0.00143     0.41039
      H   27    0.09052      0.00000     0.40622    0.00326     0.40948
      H   28    0.10023      0.00000     0.39877    0.00100     0.39977
      H   29    0.09947      0.00000     0.39895    0.00158     0.40053
      H   30    0.09648      0.00000     0.40252    0.00100     0.40352
      H   31    0.10000      0.00000     0.39884    0.00116     0.40000
      H   32    0.10014      0.00000     0.39873    0.00114     0.39986
      H   33    0.09953      0.00000     0.39870    0.00177     0.40047
      H   34    0.09613      0.00000     0.40252    0.00135     0.40387
      H   35    0.10540      0.00000     0.39315    0.00146     0.39460
      H   36    0.23394      0.00000     0.26286    0.00320     0.26606
      H   37    0.10203      0.00000     0.39705    0.00092     0.39797
      H   38    0.10744      0.00000     0.39120    0.00136     0.39256
      H   39    0.10376      0.00000     0.39520    0.00104     0.39624
 =======================================================================
   * Total *    0.00000     16.99303    46.81413    0.19284    64.00000

 Normal termination of Gaussian 16 at Fri Dec 11 13:21:43 2020.
