 Gaussian 16, Revision A.03,

 -----------------------------------------------------------
 # opt freq B3LYP/6-31G(d) empiricaldispersion=gd3bj scf=xqc
 -----------------------------------------------------------

 -------------------------------
 CID_131176247_JID_3956_neutraal
 -------------------------------
 Symbolic Z-matrix:
 Charge =  0 Multiplicity = 1

 SCF Done:  E(RB3LYP) =  -575.381724650     A.U. after   15 cycles
 SCF Done:  E(RB3LYP) =  -575.389248631     A.U. after   13 cycles
 SCF Done:  E(RB3LYP) =  -575.389902749     A.U. after   13 cycles
 SCF Done:  E(RB3LYP) =  -575.390522622     A.U. after   12 cycles
 SCF Done:  E(RB3LYP) =  -575.390813381     A.U. after   12 cycles
 SCF Done:  E(RB3LYP) =  -575.390988598     A.U. after   12 cycles
 SCF Done:  E(RB3LYP) =  -575.391106381     A.U. after   12 cycles
 SCF Done:  E(RB3LYP) =  -575.391159551     A.U. after   11 cycles
 SCF Done:  E(RB3LYP) =  -575.391267197     A.U. after   12 cycles
 SCF Done:  E(RB3LYP) =  -575.391386627     A.U. after   12 cycles
 SCF Done:  E(RB3LYP) =  -575.391457747     A.U. after   11 cycles
 SCF Done:  E(RB3LYP) =  -575.391460632     A.U. after   10 cycles
 SCF Done:  E(RB3LYP) =  -575.391461483     A.U. after   10 cycles
 SCF Done:  E(RB3LYP) =  -575.391461540     A.U. after    8 cycles
 SCF Done:  E(RB3LYP) =  -575.391461546     A.U. after    7 cycles
 Optimization completed.
    -- Stationary point found.
 Normal termination of Gaussian 16 at Sun Dec 13 12:27:40 2020.

 --------------------------------------------------------------------
 #N Geom=AllCheck Guess=TCheck SCRF=Check GenChk RB3LYP/6-31G(d) Freq
 --------------------------------------------------------------------

 Structure from the checkpoint file:  "JID_3956.chk"
 -------------------------------
 CID_131176247_JID_3956_neutraal
 -------------------------------
 Charge =  0 Multiplicity = 1

 SCF Done:  E(RB3LYP) =  -575.391461546     A.U. after    1 cycles

  Exact polarizability: 184.545  -6.044 123.212  11.417   1.980  79.482
 Approx polarizability: 256.981  -2.741 190.330  22.566   7.411 115.949

                      1                      2                      3
                      A                      A                      A
 Frequencies --     21.2066                37.6051                59.5897
 Red. masses --      3.8221                 3.1068                 2.9710
 Frc consts  --      0.0010                 0.0026                 0.0062
 IR Inten    --      0.9505                 0.3210                 0.6770

                      4                      5                      6
                      A                      A                      A
 Frequencies --    108.1406               118.8853               140.9053
 Red. masses --      2.9308                 2.0325                 1.3027
 Frc consts  --      0.0202                 0.0169                 0.0152
 IR Inten    --      3.9602                 0.8492                 0.5292

                      7                      8                      9
                      A                      A                      A
 Frequencies --    175.5696               195.6756               243.9231
 Red. masses --      2.3191                 3.6976                 2.8905
 Frc consts  --      0.0421                 0.0834                 0.1013
 IR Inten    --      1.9452                 0.3643                 7.3181

                     10                     11                     12
                      A                      A                      A
 Frequencies --    261.4062               298.7034               308.0788
 Red. masses --      1.5950                 2.9464                 1.7688
 Frc consts  --      0.0642                 0.1549                 0.0989
 IR Inten    --      1.7328                 2.1219                22.4815

                     13                     14                     15
                      A                      A                      A
 Frequencies --    313.9775               350.5251               370.7384
 Red. masses --      1.3203                 5.6147                 2.2811
 Frc consts  --      0.0767                 0.4065                 0.1847
 IR Inten    --     89.6160                 2.5837                 3.0785

                     16                     17                     18
                      A                      A                      A
 Frequencies --    404.7621               442.4341               470.3032
 Red. masses --      2.7827                 4.0220                 3.2288
 Frc consts  --      0.2686                 0.4639                 0.4208
 IR Inten    --     34.0286                 1.5182                 1.9876

                     19                     20                     21
                      A                      A                      A
 Frequencies --    523.2552               603.6703               662.3182
 Red. masses --      2.9603                 4.1184                 5.5195
 Frc consts  --      0.4775                 0.8843                 1.4265
 IR Inten    --      0.2257                 1.0863                10.7353

                     22                     23                     24
                      A                      A                      A
 Frequencies --    684.4286               725.3015               744.7411
 Red. masses --      5.0015                 3.1974                 1.3350
 Frc consts  --      1.3804                 0.9910                 0.4363
 IR Inten    --      3.9086                 7.5276                19.8144

                     25                     26                     27
                      A                      A                      A
 Frequencies --    757.8714               773.8087               837.5572
 Red. masses --      1.3689                 4.7303                 2.5651
 Frc consts  --      0.4633                 1.6688                 1.0602
 IR Inten    --     20.9091                 0.2832                 1.6718

                     28                     29                     30
                      A                      A                      A
 Frequencies --    874.9345               882.3119               908.9186
 Red. masses --      1.7439                 1.3345                 1.2398
 Frc consts  --      0.7866                 0.6121                 0.6035
 IR Inten    --      3.9518                12.0425                 0.9357

                     31                     32                     33
                      A                      A                      A
 Frequencies --    947.4126               973.6211               990.4953
 Red. masses --      2.3080                 2.0674                 1.5396
 Frc consts  --      1.2206                 1.1547                 0.8899
 IR Inten    --      2.0608                 1.3797                 0.9852

                     34                     35                     36
                      A                      A                      A
 Frequencies --   1024.8689              1058.3937              1076.6273
 Red. masses --      1.7758                 1.8123                 1.5160
 Frc consts  --      1.0990                 1.1961                 1.0353
 IR Inten    --      4.2473                 7.3554                 3.9830

                     37                     38                     39
                      A                      A                      A
 Frequencies --   1096.8915              1127.0032              1131.0040
 Red. masses --      2.4228                 2.6259                 1.7231
 Frc consts  --      1.7175                 1.9651                 1.2986
 IR Inten    --     10.5947                29.3314                 4.8222

                     40                     41                     42
                      A                      A                      A
 Frequencies --   1155.0383              1182.0477              1206.4390
 Red. masses --      2.0249                 1.9244                 3.0967
 Frc consts  --      1.5916                 1.5842                 2.6555
 IR Inten    --      6.3301                 4.1683                21.3266

                     43                     44                     45
                      A                      A                      A
 Frequencies --   1245.9328              1259.3954              1287.7010
 Red. masses --      1.2087                 1.9188                 1.3124
 Frc consts  --      1.1055                 1.7931                 1.2822
 IR Inten    --      2.4991                 1.7686                14.9095

                     46                     47                     48
                      A                      A                      A
 Frequencies --   1303.9265              1340.5022              1360.9898
 Red. masses --      2.0628                 1.1173                 1.8302
 Frc consts  --      2.0664                 1.1829                 1.9974
 IR Inten    --     39.7070                 0.5464                 0.8406

                     49                     50                     51
                      A                      A                      A
 Frequencies --   1379.9622              1407.9375              1411.5343
 Red. masses --      1.4129                 1.4591                 1.3853
 Frc consts  --      1.5852                 1.7041                 1.6262
 IR Inten    --     97.9736                 2.9379                93.5543

                     52                     53                     54
                      A                      A                      A
 Frequencies --   1431.8540              1440.9215              1442.3378
 Red. masses --      1.3410                 1.2709                 1.3032
 Frc consts  --      1.6198                 1.5546                 1.5973
 IR Inten    --     50.0094                 4.1006                13.1347

                     55                     56                     57
                      A                      A                      A
 Frequencies --   1504.7531              1507.4193              1510.1950
 Red. masses --      1.1798                 1.6554                 1.0445
 Frc consts  --      1.5739                 2.2162                 1.4035
 IR Inten    --     17.4222                 4.0657                 6.4070

                     58                     59                     60
                      A                      A                      A
 Frequencies --   1517.1084              1518.5708              1520.8657
 Red. masses --      1.1014                 1.0752                 1.2389
 Frc consts  --      1.4936                 1.4609                 1.6884
 IR Inten    --     12.7303                 5.6740                 5.2645

                     61                     62                     63
                      A                      A                      A
 Frequencies --   1531.9826              1541.6625              1608.6262
 Red. masses --      1.0592                 1.0540                 6.0818
 Frc consts  --      1.4646                 1.4759                 9.2725
 IR Inten    --     12.6177                 6.1050                39.6892

                     64                     65                     66
                      A                      A                      A
 Frequencies --   1687.4078              1729.1410              2918.5239
 Red. masses --      7.6582                 7.6462                 1.0734
 Frc consts  --     12.8474                13.4697                 5.3867
 IR Inten    --    156.1530               517.6672                94.3804

                     67                     68                     69
                      A                      A                      A
 Frequencies --   3026.7259              3039.4529              3041.5899
 Red. masses --      1.0631                 1.0442                 1.0716
 Frc consts  --      5.7380                 5.6835                 5.8407
 IR Inten    --     47.8347                12.8634                38.4224

                     70                     71                     72
                      A                      A                      A
 Frequencies --   3042.4491              3047.3527              3075.9579
 Red. masses --      1.0384                 1.0753                 1.0986
 Frc consts  --      5.6633                 5.8832                 6.1243
 IR Inten    --     34.8610                45.7649                52.4371

                     73                     74                     75
                      A                      A                      A
 Frequencies --   3089.2647              3092.3495              3107.5650
 Red. masses --      1.0966                 1.1004                 1.0995
 Frc consts  --      6.1660                 6.1996                 6.2561
 IR Inten    --     14.2660                19.3321                53.5608

                     76                     77                     78
                      A                      A                      A
 Frequencies --   3115.8427              3138.5391              3223.1964
 Red. masses --      1.1020                 1.1003                 1.0908
 Frc consts  --      6.3036                 6.3857                 6.6768
 IR Inten    --     66.7899                15.9971                 3.2687

                     79                     80                     81
                      A                      A                      A
 Frequencies --   3224.3992              3251.5462              3704.1220
 Red. masses --      1.0889                 1.0969                 1.0679
 Frc consts  --      6.6701                 6.8327                 8.6324
 IR Inten    --      2.0469                 3.6077                31.8407

 - Thermochemistry -
 -------------------
 Temperature   298.150 Kelvin.  Pressure   1.00000 Atm.
 Atom     1 has atomic number  6 and mass  12.00000

 Molecular mass:   180.12626 amu.
 Principal axes and moments of inertia in atomic units:
                           1         2         3
     Eigenvalues --  1252.897814500.362995276.59262
           X            0.99996  -0.00811  -0.00331
           Y            0.00806   0.99985  -0.01504
           Z            0.00343   0.01501   0.99988
 This molecule is an asymmetric top.
 Rotational symmetry number  1.
 Warning -- assumption of classical behavior for rotation
           may cause significant error
 Rotational temperatures (Kelvin)      0.06913     0.01925     0.01641
 Rotational constants (GHZ):           1.44045     0.40102     0.34203
 Zero-point vibrational energy     657353.9 (Joules/Mol)
                                  157.11136 (Kcal/Mol)
 Warning -- explicit consideration of  20 degrees of freedom as
           vibrations may cause significant error
 Vibrational temperatures:     30.51    54.11    85.74   155.59   171.05
          (Kelvin)            202.73   252.61   281.53   350.95   376.11
                              429.77   443.26   451.74   504.33   533.41
                              582.36   636.56   676.66   752.85   868.55
                              952.93   984.74  1043.55  1071.52  1090.41
                             1113.34  1205.06  1258.84  1269.45  1307.73
                             1363.12  1400.82  1425.10  1474.56  1522.79
                             1549.03  1578.18  1621.51  1627.26  1661.84
                             1700.70  1735.80  1792.62  1811.99  1852.71
                             1876.06  1928.68  1958.16  1985.46  2025.71
                             2030.88  2060.12  2073.16  2075.20  2165.00
                             2168.84  2172.83  2182.78  2184.88  2188.19
                             2204.18  2218.11  2314.45  2427.80  2487.85
                             4199.10  4354.78  4373.09  4376.17  4377.41
                             4384.46  4425.62  4444.76  4449.20  4471.09
                             4483.00  4515.66  4637.46  4639.19  4678.25
                             5329.41

 Zero-point correction=                           0.250373 (Hartree/Particle)
 Thermal correction to Energy=                    0.264464
 Thermal correction to Enthalpy=                  0.265409
 Thermal correction to Gibbs Free Energy=         0.208275
 Sum of electronic and zero-point Energies=           -575.141089
 Sum of electronic and thermal Energies=              -575.126997
 Sum of electronic and thermal Enthalpies=            -575.126053
 Sum of electronic and thermal Free Energies=         -575.183186

                     E (Thermal)             CV                S
                      KCal/Mol        Cal/Mol-Kelvin    Cal/Mol-Kelvin
 Total                  165.954             52.064            120.248
 Electronic               0.000              0.000              0.000
 Translational            0.889              2.981             41.472
 Rotational               0.889              2.981             31.765
 Vibrational            164.176             46.103             47.011
 Vibration     1          0.593              1.985              6.518
 Vibration     2          0.594              1.982              5.381
 Vibration     3          0.597              1.974              4.471
 Vibration     4          0.606              1.943              3.302
 Vibration     5          0.609              1.934              3.118
 Vibration     6          0.615              1.912              2.792
 Vibration     7          0.628              1.872              2.375
 Vibration     8          0.636              1.846              2.173
 Vibration     9          0.659              1.773              1.774
 Vibration    10          0.669              1.743              1.652
 Vibration    11          0.692              1.676              1.424
 Vibration    12          0.698              1.658              1.373
 Vibration    13          0.702              1.647              1.341
 Vibration    14          0.727              1.574              1.164
 Vibration    15          0.743              1.532              1.077
 Vibration    16          0.770              1.460              0.945
 Vibration    17          0.802              1.378              0.819
 Vibration    18          0.827              1.316              0.737
 Vibration    19          0.878              1.199              0.602
 Vibration    20          0.962              1.024              0.443

 Optimization completed.
    -- Stationary point found.
 Normal termination of Gaussian 16 at Sun Dec 13 12:34:05 2020.

 ----------------------------------------------------------------------
 # B3LYP/6-311++G(d,p) empiricaldispersion=gd3bj scf=xqc pop=npa geom=c
 heck
 ----------------------------------------------------------------------

 ---------------------------------------
 CID_131176247_JID_3956_Energie_neutraal
 ---------------------------------------
 Structure from the checkpoint file:  "JID_3956.chk"
 Charge =  0 Multiplicity = 1

 SCF Done:  E(RB3LYP) =  -575.556658506     A.U. after   16 cycles
 Normal termination of Gaussian 16 at Sun Dec 13 12:37:29 2020.

 ----------------------------------------------------------------------
 # B3LYP/6-311++G(d,p) empiricaldispersion=gd3bj scf=xqc pop=npa geom=c
 heck
 ----------------------------------------------------------------------

 -------------------------------------
 CID_131176247_JID_3956_Energie_kation
 -------------------------------------
 Structure from the checkpoint file:  "JID_3956.chk"
 Charge =  1 Multiplicity = 2

 SCF Done:  E(UB3LYP) =  -575.292828040     A.U. after   22 cycles
 Normal termination of Gaussian 16 at Sun Dec 13 12:44:10 2020.
 Gaussian 16:  ES64L-G16RevA.03 25-Dec-2016

 ----------------------------------------------------------------------
 # B3LYP/6-311++G(d,p) empiricaldispersion=gd3bj scf=xqc pop=npa geom=c
 heck
 ----------------------------------------------------------------------

 ------------------------------------
 CID_131176247_JID_3956_Energie_anion
 ------------------------------------
 Structure from the checkpoint file:  "JID_3956.chk"
 Charge = -1 Multiplicity = 2

                         Standard orientation:
 ---------------------------------------------------------------------
 Center     Atomic      Atomic             Coordinates (Angstroms)
 Number     Number       Type             X           Y           Z
 ---------------------------------------------------------------------
      1          6           0       -3.966555   -0.564866    1.392095
      2          6           0       -3.605926   -1.157698    0.026629
      3          6           0       -3.167779   -0.114588   -1.009068
      4          6           0       -1.883303    0.629835   -0.624478
      5          7           0       -0.801070   -0.323393   -0.471286
      6          6           0        0.423338   -0.034008   -0.220714
      7          6           0        1.426928   -1.088636   -0.176489
      8          6           0        2.754711   -0.881684    0.036916
      9          6           0        3.227045    0.461996    0.249848
     10          6           0        2.329431    1.477157    0.245407
     11          7           0        1.001079    1.251585   -0.010778
     12          8           0        0.173356    2.337996    0.311108
     13          6           0        3.741096   -2.018300    0.065903
     14          1           0       -3.098090   -0.097864    1.869663
     15          1           0       -4.336038   -1.340015    2.073145
     16          1           0       -4.749105    0.199614    1.301537
     17          1           0       -2.793316   -1.883113    0.144732
     18          1           0       -4.470186   -1.706758   -0.370170
     19          1           0       -3.001696   -0.612807   -1.972525
     20          1           0       -3.969370    0.623116   -1.160114
     21          1           0       -1.667914    1.361917   -1.426546
     22          1           0       -2.056689    1.209960    0.291058
     23          1           0        1.025147   -2.084510   -0.326725
     24          1           0        4.276239    0.668130    0.425882
     25          1           0        2.571324    2.516054    0.431219
     26          1           0       -0.212490    2.618398   -0.536791
     27          1           0        4.509293   -1.888793   -0.707038
     28          1           0        4.262497   -2.059023    1.030572
     29          1           0        3.249565   -2.980873   -0.098616
 ---------------------------------------------------------------------

 SCF Done:  E(UB3LYP) =  -575.545769810     A.U. after   33 cycles
 SCF Done:  E(UB3LYP) =  -575.545769810     a.u. after    1 cycles

 The electronic state is 2-A.
 Alpha  occ. eigenvalues --  -19.06288 -14.28872 -14.15216 -10.12739 -10.09805
 Alpha  occ. eigenvalues --  -10.07228 -10.06986 -10.06630 -10.06013 -10.05763
 Alpha  occ. eigenvalues --  -10.05308 -10.05104 -10.04669  -0.99373  -0.81496
 Alpha  occ. eigenvalues --   -0.76839  -0.69828  -0.68662  -0.63896  -0.60766
 Alpha  occ. eigenvalues --   -0.59059  -0.53409  -0.52556  -0.48925  -0.46461
 Alpha  occ. eigenvalues --   -0.43194  -0.39381  -0.38206  -0.37053  -0.35644
 Alpha  occ. eigenvalues --   -0.34713  -0.33546  -0.32759  -0.31861  -0.29728
 Alpha  occ. eigenvalues --   -0.29332  -0.28793  -0.27980  -0.26817  -0.25711
 Alpha  occ. eigenvalues --   -0.24551  -0.22965  -0.22558  -0.22247  -0.21440
 Alpha  occ. eigenvalues --   -0.18498  -0.16341  -0.12440  -0.07724   0.04852
 Alpha virt. eigenvalues --    0.06769   0.07134   0.07650   0.08380   0.09170
 Alpha virt. eigenvalues --    0.09458   0.10240   0.10597   0.10923   0.11748
 Alpha virt. eigenvalues --    0.11991   0.12478   0.12809   0.13288   0.13979

  Beta  occ. eigenvalues --  -19.06254 -14.28749 -14.15187 -10.12738 -10.09667
  Beta  occ. eigenvalues --  -10.07202 -10.06853 -10.06625 -10.06008 -10.05762
  Beta  occ. eigenvalues --  -10.05336 -10.05097 -10.04605  -0.99244  -0.81375
  Beta  occ. eigenvalues --   -0.76721  -0.69613  -0.68632  -0.63782  -0.60686
  Beta  occ. eigenvalues --   -0.58983  -0.53367  -0.52416  -0.48735  -0.46390
  Beta  occ. eigenvalues --   -0.43042  -0.39263  -0.38071  -0.36944  -0.35599
  Beta  occ. eigenvalues --   -0.34592  -0.33500  -0.32666  -0.31697  -0.29676
  Beta  occ. eigenvalues --   -0.29292  -0.28762  -0.27929  -0.26554  -0.25657
  Beta  occ. eigenvalues --   -0.24479  -0.22941  -0.22498  -0.22198  -0.21386
  Beta  occ. eigenvalues --   -0.18193  -0.15732  -0.12360  -0.07372
  Beta virt. eigenvalues --    0.06961   0.07186   0.08429   0.08462   0.08998
  Beta virt. eigenvalues --    0.09172   0.09679   0.10554   0.10889   0.11079
  Beta virt. eigenvalues --    0.11885   0.12127   0.12578   0.12981   0.13397

 Mulliken charges and spin densities:
               1          2
     1  C   -0.328690  -0.264237
     2  C   -0.212219   0.103631
     3  C    0.237580  -0.699354
     4  C    0.175581  -0.424352
     5  N   -0.086308   0.096266
     6  C   -0.758076  -0.420788
     7  C    0.472312   0.655468
     8  C    0.294923   0.058131
     9  C   -0.833457   0.118705
    10  C    0.202504  -0.014443
    11  N   -0.205781   0.016333
    12  O    0.032043  -0.044028
    13  C    1.004910  -1.601913
    14  H    0.122024   0.035552
    15  H    0.085528   0.029355
    16  H    0.043982   0.069747
    17  H    0.134403   0.008582
    18  H    0.071800   0.050517
    19  H    0.096813   0.033821
    20  H   -0.086313   0.212007
    21  H   -0.666918   0.802064
    22  H    0.198242  -0.033000
    23  H    0.133529   0.029305
    24  H   -0.359570   0.518040
    25  H   -0.452094   0.638893
    26  H   -0.269267   0.551409
    27  H   -0.116552   0.270183
    28  H    0.081352   0.059769
    29  H   -0.012280   0.144335
 Sum of Mulliken charges =  -1.00000   1.00000

 Dipole moment (field-independent basis, Debye):
    X=             -2.2707    Y=             -4.3676    Z=              3.1412  Tot=              5.8395
 Quadrupole moment (field-independent basis, Debye-Ang):
   XX=           -138.0811   YY=           -120.5436   ZZ=           -105.4318
   XY=              0.5562   XZ=              0.5235   YZ=              5.0836

 Summary of Natural Population Analysis:

                                       Natural Population
                Natural  -----------------------------------------------
    Atom  No    Charge         Core      Valence    Rydberg      Total
 -----------------------------------------------------------------------
      C    1   -0.28757      0.99967     2.28351    0.00439     3.28757
      C    2   -0.19351      0.99964     2.18661    0.00727     3.19351
      C    3   -0.18753      0.99963     2.17700    0.01090     3.18753
      C    4   -0.10173      0.99960     2.08853    0.01360     3.10173
      N    5   -0.29890      0.99963     2.78739    0.01188     3.79890
      C    6    0.20817      0.99951     1.77652    0.01579     2.79183
      C    7   -0.11316      0.99946     2.10347    0.01022     3.11316
      C    8    0.01517      0.99951     1.97639    0.00894     2.98483
      C    9   -0.16415      0.99952     2.15386    0.01077     3.16415
      C   10    0.05528      0.99953     1.93261    0.01258     2.94472
      N   11   -0.05990      0.99956     2.54701    0.01333     3.55990
      O   12   -0.27531      0.99990     3.26758    0.00783     4.27531
      C   13   -0.29271      0.99964     2.28769    0.00539     3.29271
      H   14    0.09995      0.00000     0.39913    0.00092     0.40005
      H   15    0.09306      0.00000     0.40606    0.00089     0.40694
      H   16    0.09173      0.00000     0.40722    0.00105     0.40827
      H   17    0.10487      0.00000     0.39375    0.00139     0.39513
      H   18    0.08780      0.00000     0.41108    0.00112     0.41220
      H   19    0.09580      0.00000     0.40291    0.00128     0.40420
      H   20    0.08978      0.00000     0.40922    0.00100     0.41022
      H   21    0.08458      0.00000     0.41177    0.00365     0.41542
      H   22    0.08938      0.00000     0.40917    0.00145     0.41062
      H   23    0.10263      0.00000     0.39626    0.00111     0.39737
      H   24    0.10315      0.00000     0.39583    0.00102     0.39685
      H   25    0.10555      0.00000     0.39312    0.00133     0.39445
      H   26    0.24257      0.00000     0.24235    0.01508     0.25743
      H   27    0.10459      0.00000     0.39397    0.00145     0.39541
      H   28    0.10046      0.00000     0.39867    0.00087     0.39954
      H   29    0.09997      0.00000     0.39924    0.00079     0.40003
 =======================================================================
   * Total *    0.00000     12.99480    35.83793    0.16727    49.00000

 Normal termination of Gaussian 16 at Sun Dec 13 12:54:21 2020.
