 Gaussian 16, Revision A.03,

 -----------------------------------------------------------
 # opt freq B3LYP/6-31G(d) empiricaldispersion=gd3bj scf=xqc
 -----------------------------------------------------------

 -------------------------------
 CID_147164436_JID_9250_neutraal
 -------------------------------
 Symbolic Z-matrix:
 Charge =  0 Multiplicity = 1

 SCF Done:  E(RB3LYP) =  -920.286149385     A.U. after   15 cycles
 SCF Done:  E(RB3LYP) =  -920.294555362     A.U. after   13 cycles
 SCF Done:  E(RB3LYP) =  -920.296744444     A.U. after   14 cycles
 SCF Done:  E(RB3LYP) =  -920.298956823     A.U. after   13 cycles
 SCF Done:  E(RB3LYP) =  -920.296529272     A.U. after   15 cycles
 SCF Done:  E(RB3LYP) =  -920.298619875     A.U. after   13 cycles
 SCF Done:  E(RB3LYP) =  -920.300268048     A.U. after   11 cycles
 SCF Done:  E(RB3LYP) =  -920.300368239     A.U. after   13 cycles
 SCF Done:  E(RB3LYP) =  -920.301012539     A.U. after   12 cycles
 SCF Done:  E(RB3LYP) =  -920.301275315     A.U. after   12 cycles
 SCF Done:  E(RB3LYP) =  -920.303153413     A.U. after    9 cycles
 SCF Done:  E(RB3LYP) =  -920.303153561     A.U. after    7 cycles
 SCF Done:  E(RB3LYP) =  -920.303153616     A.U. after    7 cycles
 SCF Done:  E(RB3LYP) =  -920.303153611     A.U. after    6 cycles
 SCF Done:  E(RB3LYP) =  -920.303153598     A.U. after    6 cycles
 Optimization completed.
    -- Stationary point found.
 Normal termination of Gaussian 16 at Sat Dec 12 09:49:04 2020.

 --------------------------------------------------------------------
 #N Geom=AllCheck Guess=TCheck SCRF=Check GenChk RB3LYP/6-31G(d) Freq
 --------------------------------------------------------------------

 Structure from the checkpoint file:  "JID_9250.chk"
 -------------------------------
 CID_147164436_JID_9250_neutraal
 -------------------------------
 Charge =  0 Multiplicity = 1

 SCF Done:  E(RB3LYP) =  -920.303153598     A.U. after    1 cycles

  Exact polarizability: 151.263   1.112 195.476   4.858   5.115 149.433
 Approx polarizability: 188.746  -0.158 285.987   5.798  31.919 238.899

                      1                      2                      3
                      A                      A                      A
 Frequencies --     10.4336                28.3439                33.6248
 Red. masses --      3.9437                 3.9397                 3.3655
 Frc consts  --      0.0003                 0.0019                 0.0022
 IR Inten    --      0.1308                 2.0430                 0.1901

                      4                      5                      6
                      A                      A                      A
 Frequencies --     41.8513                46.4446                64.3805
 Red. masses --      3.1326                 3.5904                 5.0343
 Frc consts  --      0.0032                 0.0046                 0.0123
 IR Inten    --      1.7978                 1.5522                 1.3618

                      7                      8                      9
                      A                      A                      A
 Frequencies --     69.8050                95.5329               102.8952
 Red. masses --      3.6749                 6.2652                 3.6307
 Frc consts  --      0.0106                 0.0337                 0.0226
 IR Inten    --      1.4652                 1.0133                 6.9106

                     10                     11                     12
                      A                      A                      A
 Frequencies --    117.9639               142.8202               161.6499
 Red. masses --      2.5727                 2.2201                 3.0902
 Frc consts  --      0.0211                 0.0267                 0.0476
 IR Inten    --      3.6350                 1.0361                 0.8278

                     13                     14                     15
                      A                      A                      A
 Frequencies --    169.0474               185.0727               215.8775
 Red. masses --      2.1078                 1.4106                 3.1269
 Frc consts  --      0.0355                 0.0285                 0.0859
 IR Inten    --      0.2927                 1.7542                 2.0231

                     16                     17                     18
                      A                      A                      A
 Frequencies --    223.2004               235.6925               258.1304
 Red. masses --      2.5569                 1.3302                 1.2062
 Frc consts  --      0.0750                 0.0435                 0.0474
 IR Inten    --      4.6610                 0.2109                 0.1223

                     19                     20                     21
                      A                      A                      A
 Frequencies --    270.4917               282.5129               299.7242
 Red. masses --      1.8029                 2.5552                 1.2070
 Frc consts  --      0.0777                 0.1202                 0.0639
 IR Inten    --      1.4453                 1.0160                 0.4037

                     22                     23                     24
                      A                      A                      A
 Frequencies --    311.8758               331.4810               339.1081
 Red. masses --      2.8788                 2.6936                 3.4906
 Frc consts  --      0.1650                 0.1744                 0.2365
 IR Inten    --      1.8931                 7.5135                13.5032

                     25                     26                     27
                      A                      A                      A
 Frequencies --    366.9248               376.1364               410.3869
 Red. masses --      2.7304                 2.8184                 3.1366
 Frc consts  --      0.2166                 0.2349                 0.3112
 IR Inten    --      7.2441                 9.7980                16.3516

                     28                     29                     30
                      A                      A                      A
 Frequencies --    416.8783               455.0539               473.9794
 Red. masses --      2.1896                 1.8038                 3.3283
 Frc consts  --      0.2242                 0.2201                 0.4405
 IR Inten    --      0.1228                 2.4331                 6.4662

                     31                     32                     33
                      A                      A                      A
 Frequencies --    497.5441               521.2805               547.8145
 Red. masses --      3.4228                 3.4538                 3.9016
 Frc consts  --      0.4992                 0.5530                 0.6898
 IR Inten    --      0.6210                 0.4285                11.1077

                     34                     35                     36
                      A                      A                      A
 Frequencies --    573.4595               576.5731               715.4173
 Red. masses --      2.6919                 4.1046                 5.1760
 Frc consts  --      0.5216                 0.8040                 1.5609
 IR Inten    --      6.9391                 2.1562                 6.4078

                     37                     38                     39
                      A                      A                      A
 Frequencies --    731.7280               760.5406               813.3127
 Red. masses --      4.2448                 3.6133                 3.5363
 Frc consts  --      1.3391                 1.2314                 1.3782
 IR Inten    --     12.2934                 8.9682                10.6437

                     40                     41                     42
                      A                      A                      A
 Frequencies --    825.2892               838.9685               866.1152
 Red. masses --      2.0918                 3.1378                 3.6715
 Frc consts  --      0.8394                 1.3013                 1.6227
 IR Inten    --     51.7332                 2.4110                30.4036

                     43                     44                     45
                      A                      A                      A
 Frequencies --    890.2172               899.3291               922.9183
 Red. masses --      3.5547                 2.7684                 2.3885
 Frc consts  --      1.6598                 1.3192                 1.1987
 IR Inten    --     11.7885                 8.1541                10.4970

                     46                     47                     48
                      A                      A                      A
 Frequencies --    948.9279               962.7160              1001.8136
 Red. masses --      2.4046                 1.8170                 1.2231
 Frc consts  --      1.2757                 0.9922                 0.7232
 IR Inten    --     29.4050                 0.8368                29.2597

                     49                     50                     51
                      A                      A                      A
 Frequencies --   1036.5922              1055.1026              1079.2567
 Red. masses --      1.9435                 2.2231                 1.7119
 Frc consts  --      1.2304                 1.4581                 1.1749
 IR Inten    --     17.2963                32.8303                27.4676

                     52                     53                     54
                      A                      A                      A
 Frequencies --   1085.3892              1096.2309              1107.9520
 Red. masses --      2.3145                 1.5185                 5.1762
 Frc consts  --      1.6065                 1.0752                 3.7437
 IR Inten    --     54.9364                13.3661               128.5550

                     55                     56                     57
                      A                      A                      A
 Frequencies --   1121.9913              1135.5609              1139.1580
 Red. masses --      1.6148                 1.4109                 1.3230
 Frc consts  --      1.1977                 1.0719                 1.0115
 IR Inten    --     22.4029                48.2362                17.3833

                     58                     59                     60
                      A                      A                      A
 Frequencies --   1143.4373              1149.0436              1170.3420
 Red. masses --      1.5071                 1.9262                 2.2585
 Frc consts  --      1.1610                 1.4984                 1.8226
 IR Inten    --     56.0619                58.2027                 3.1392

                     61                     62                     63
                      A                      A                      A
 Frequencies --   1177.1604              1195.9492              1230.2363
 Red. masses --      1.3853                 1.4380                 2.4464
 Frc consts  --      1.1310                 1.2118                 2.1815
 IR Inten    --     52.2353                 8.2498                54.0769

                     64                     65                     66
                      A                      A                      A
 Frequencies --   1242.2465              1253.8169              1284.5075
 Red. masses --      2.2233                 1.7136                 2.0171
 Frc consts  --      2.0214                 1.5872                 1.9608
 IR Inten    --     39.5466                24.8425               404.9058

                     67                     68                     69
                      A                      A                      A
 Frequencies --   1299.0095              1308.3252              1318.4767
 Red. masses --      1.1936                 1.4383                 2.0895
 Frc consts  --      1.1867                 1.4506                 2.1401
 IR Inten    --      5.5007                45.5388                95.9245

                     70                     71                     72
                      A                      A                      A
 Frequencies --   1326.4568              1336.7075              1352.5839
 Red. masses --      2.0544                 2.1414                 1.5777
 Frc consts  --      2.1297                 2.2544                 1.7006
 IR Inten    --     80.7504                46.3908                 4.9498

                     73                     74                     75
                      A                      A                      A
 Frequencies --   1392.6016              1394.4972              1407.7239
 Red. masses --      1.4902                 1.6072                 1.2722
 Frc consts  --      1.7027                 1.8414                 1.4854
 IR Inten    --      5.4996                46.4882                12.9997

                     76                     77                     78
                      A                      A                      A
 Frequencies --   1416.6558              1422.5932              1438.0674
 Red. masses --      1.4210                 1.4373                 2.7990
 Frc consts  --      1.6803                 1.7137                 3.4104
 IR Inten    --     20.7599                43.5640                76.6386

                     79                     80                     81
                      A                      A                      A
 Frequencies --   1444.6385              1468.8772              1475.5326
 Red. masses --      1.2832                 1.1537                 1.1606
 Frc consts  --      1.5779                 1.4666                 1.4887
 IR Inten    --     10.1037                 0.2991                 4.8682

                     82                     83                     84
                      A                      A                      A
 Frequencies --   1491.8246              1497.5525              1505.3621
 Red. masses --      1.1441                 1.2065                 1.0443
 Frc consts  --      1.5002                 1.5942                 1.3943
 IR Inten    --      0.9663                28.1487                15.5632

                     85                     86                     87
                      A                      A                      A
 Frequencies --   1512.8227              1517.1592              1517.3395
 Red. masses --      1.0983                 1.0462                 1.0587
 Frc consts  --      1.4810                 1.4189                 1.4361
 IR Inten    --     10.4493                12.0314                15.9690

                     88                     89                     90
                      A                      A                      A
 Frequencies --   1517.9748              1524.5903              1528.0350
 Red. masses --      1.0839                 1.0719                 1.0596
 Frc consts  --      1.4715                 1.4680                 1.4577
 IR Inten    --      9.5952                 6.2380                11.1948

                     91                     92                     93
                      A                      A                      A
 Frequencies --   1531.2505              1534.8198              1535.9961
 Red. masses --      1.0873                 1.0480                 1.0577
 Frc consts  --      1.5020                 1.4545                 1.4703
 IR Inten    --      8.8853                 4.1823                11.1102

                     94                     95                     96
                      A                      A                      A
 Frequencies --   1539.1860              1545.1933              1550.9742
 Red. masses --      1.0535                 1.0559                 1.1302
 Frc consts  --      1.4705                 1.4854                 1.6018
 IR Inten    --     10.6117                10.9570                12.1306

                     97                     98                     99
                      A                      A                      A
 Frequencies --   1697.5273              1784.1843              1795.1203
 Red. masses --      4.3698                11.0392                10.8401
 Frc consts  --      7.4190                20.7046                20.5812
 IR Inten    --    351.2277                23.1836               552.4023

                    100                    101                    102
                      A                      A                      A
 Frequencies --   2927.9837              2936.8479              3009.7322
 Red. masses --      1.0619                 1.0626                 1.0511
 Frc consts  --      5.3636                 5.4001                 5.6096
 IR Inten    --     44.2109               176.0495                32.0160

                    103                    104                    105
                      A                      A                      A
 Frequencies --   3015.5560              3019.0204              3030.7912
 Red. masses --      1.0681                 1.0508                 1.0810
 Frc consts  --      5.7229                 5.6429                 5.8506
 IR Inten    --     41.0336                87.2539                25.8540

                    106                    107                    108
                      A                      A                      A
 Frequencies --   3058.1402              3079.1799              3081.4584
 Red. masses --      1.0400                 1.0729                 1.0612
 Frc consts  --      5.7307                 5.9937                 5.9368
 IR Inten    --     27.6008                14.6366                24.1716

                    109                    110                    111
                      A                      A                      A
 Frequencies --   3083.0051              3091.3121              3093.4180
 Red. masses --      1.0712                 1.0902                 1.0960
 Frc consts  --      5.9988                 6.1384                 6.1793
 IR Inten    --     56.1825                48.9490                11.1941

                    112                    113                    114
                      A                      A                      A
 Frequencies --   3095.9266              3104.3580              3129.2357
 Red. masses --      1.0604                 1.0818                 1.0976
 Frc consts  --      5.9883                 6.1424                 6.3322
 IR Inten    --     68.8798                30.6067                23.9310

                    115                    116                    117
                      A                      A                      A
 Frequencies --   3131.7709              3141.2044              3144.4936
 Red. masses --      1.1016                 1.1010                 1.1060
 Frc consts  --      6.3659                 6.4007                 6.4431
 IR Inten    --     26.1358                19.7276                 1.3803

                    118                    119                    120
                      A                      A                      A
 Frequencies --   3147.0450              3153.9474              3162.5174
 Red. masses --      1.1048                 1.1034                 1.1002
 Frc consts  --      6.4468                 6.4669                 6.4831
 IR Inten    --     12.1730                10.7783                12.8833

                    121                    122                    123
                      A                      A                      A
 Frequencies --   3162.6087              3236.2363              3247.5776
 Red. masses --      1.1053                 1.0921                 1.0878
 Frc consts  --      6.5138                 6.7391                 6.7599
 IR Inten    --      8.6648                 5.4735                 0.3908

 - Thermochemistry -
 -------------------
 Temperature   298.150 Kelvin.  Pressure   1.00000 Atm.
 Atom     1 has atomic number  6 and mass  12.00000

 Molecular mass:   272.17361 amu.
 Principal axes and moments of inertia in atomic units:
                           1         2         3
     Eigenvalues --  4129.786056572.894068468.88962
           X            0.99978  -0.02023  -0.00603
           Y            0.02017   0.99975  -0.01002
           Z            0.00623   0.00990   0.99993
 This molecule is an asymmetric top.
 Rotational symmetry number  1.
 Warning -- assumption of classical behavior for rotation
           may cause significant error
 Rotational temperatures (Kelvin)      0.02097     0.01318     0.01023
 Rotational constants (GHZ):           0.43701     0.27457     0.21310
 Zero-point vibrational energy     983021.0 (Joules/Mol)
                                  234.94767 (Kcal/Mol)
 Warning -- explicit consideration of  35 degrees of freedom as
           vibrations may cause significant error
 Vibrational temperatures:     15.01    40.78    48.38    60.21    66.82
          (Kelvin)             92.63   100.43   137.45   148.04   169.72
                              205.49   232.58   243.22   266.28   310.60
                              321.14   339.11   371.39   389.18   406.47
                              431.24   448.72   476.93   487.90   527.92
                              541.18   590.46   599.79   654.72   681.95
                              715.85   750.01   788.18   825.08   829.56
                             1029.33  1052.79  1094.25  1170.18  1187.41
                             1207.09  1246.15  1280.82  1293.93  1327.87
                             1365.30  1385.13  1441.39  1491.42  1518.06
                             1552.81  1561.63  1577.23  1594.10  1614.30
                             1633.82  1638.99  1645.15  1653.22  1683.86
                             1693.67  1720.70  1770.04  1787.32  1803.96
                             1848.12  1868.98  1882.39  1896.99  1908.48
                             1923.22  1946.07  2003.64  2006.37  2025.40
                             2038.25  2046.79  2069.06  2078.51  2113.39
                             2122.96  2146.40  2154.64  2165.88  2176.61
                             2182.85  2183.11  2184.03  2193.55  2198.50
                             2203.13  2208.26  2209.96  2214.55  2223.19
                             2231.51  2442.36  2567.04  2582.78  4212.72
                             4225.47  4330.33  4338.71  4343.70  4360.63
                             4399.98  4430.25  4433.53  4435.76  4447.71
                             4450.74  4454.35  4466.48  4502.27  4505.92
                             4519.49  4524.23  4527.90  4537.83  4550.16
                             4550.29  4656.22  4672.54

 Zero-point correction=                           0.374413 (Hartree/Particle)
 Thermal correction to Energy=                    0.396562
 Thermal correction to Enthalpy=                  0.397506
 Thermal correction to Gibbs Free Energy=         0.320335
 Sum of electronic and zero-point Energies=           -919.928741
 Sum of electronic and thermal Energies=              -919.906592
 Sum of electronic and thermal Enthalpies=            -919.905648
 Sum of electronic and thermal Free Energies=         -919.982819

                     E (Thermal)             CV                S
                      KCal/Mol        Cal/Mol-Kelvin    Cal/Mol-Kelvin
 Total                  248.846             79.285            162.420
 Electronic               0.000              0.000              0.000
 Translational            0.889              2.981             42.703
 Rotational               0.889              2.981             33.796
 Vibrational            247.069             73.324             85.921
 Vibration     1          0.593              1.987              7.927
 Vibration     2          0.593              1.984              5.942
 Vibration     3          0.594              1.983              5.603
 Vibration     4          0.594              1.980              5.169
 Vibration     5          0.595              1.979              4.963
 Vibration     6          0.597              1.971              4.318
 Vibration     7          0.598              1.969              4.159
 Vibration     8          0.603              1.952              3.543
 Vibration     9          0.605              1.947              3.399
 Vibration    10          0.608              1.934              3.133
 Vibration    11          0.616              1.910              2.766
 Vibration    12          0.622              1.889              2.530
 Vibration    13          0.625              1.881              2.446
 Vibration    14          0.631              1.860              2.277
 Vibration    15          0.645              1.817              1.993
 Vibration    16          0.649              1.806              1.933
 Vibration    17          0.655              1.786              1.835
 Vibration    18          0.667              1.749              1.674
 Vibration    19          0.674              1.728              1.593
 Vibration    20          0.682              1.706              1.518
 Vibration    21          0.692              1.674              1.418
 Vibration    22          0.700              1.651              1.352
 Vibration    23          0.714              1.613              1.253
 Vibration    24          0.719              1.597              1.216
 Vibration    25          0.740              1.540              1.093
 Vibration    26          0.747              1.521              1.055
 Vibration    27          0.775              1.448              0.925
 Vibration    28          0.780              1.434              0.903
 Vibration    29          0.813              1.350              0.781
 Vibration    30          0.831              1.308              0.726
 Vibration    31          0.853              1.255              0.664
 Vibration    32          0.876              1.203              0.607
 Vibration    33          0.903              1.144              0.549
 Vibration    34          0.930              1.089              0.498
 Vibration    35          0.933              1.082              0.492

 Optimization completed.
    -- Stationary point found.
 Normal termination of Gaussian 16 at Sat Dec 12 10:13:09 2020.

 ----------------------------------------------------------------------
 # B3LYP/6-311++G(d,p) empiricaldispersion=gd3bj scf=xqc pop=npa geom=c
 heck
 ----------------------------------------------------------------------

 ---------------------------------------
 CID_147164436_JID_9250_Energie_neutraal
 ---------------------------------------
 Structure from the checkpoint file:  "JID_9250.chk"
 Charge =  0 Multiplicity = 1

 SCF Done:  E(RB3LYP) =  -920.569847513     A.U. after   15 cycles
 Normal termination of Gaussian 16 at Sat Dec 12 10:23:56 2020.

 ----------------------------------------------------------------------
 # B3LYP/6-311++G(d,p) empiricaldispersion=gd3bj scf=xqc pop=npa geom=c
 heck
 ----------------------------------------------------------------------

 -------------------------------------
 CID_147164436_JID_9250_Energie_kation
 -------------------------------------
 Structure from the checkpoint file:  "JID_9250.chk"
 Charge =  1 Multiplicity = 2

 SCF Done:  E(UB3LYP) =  -920.298973194     A.U. after   24 cycles
 Normal termination of Gaussian 16 at Sat Dec 12 10:48:32 2020.
 Gaussian 16:  ES64L-G16RevA.03 25-Dec-2016

 ----------------------------------------------------------------------
 # B3LYP/6-311++G(d,p) empiricaldispersion=gd3bj scf=xqc pop=npa geom=c
 heck
 ----------------------------------------------------------------------

 ------------------------------------
 CID_147164436_JID_9250_Energie_anion
 ------------------------------------
 Structure from the checkpoint file:  "JID_9250.chk"
 Charge = -1 Multiplicity = 2

                         Standard orientation:
 ---------------------------------------------------------------------
 Center     Atomic      Atomic             Coordinates (Angstroms)
 Number     Number       Type             X           Y           Z
 ---------------------------------------------------------------------
      1          6           0       -1.451500    0.746691    2.019678
      2          6           0       -1.149431   -0.205084    0.861691
      3          6           0       -2.311928   -1.151770    0.514477
      4          7           0       -3.471601   -0.417771   -0.006431
      5          6           0       -3.877835   -0.858443   -1.333352
      6          6           0       -4.592282   -0.380594    0.919128
      7          6           0       -0.716006    0.489519   -0.421525
      8          8           0       -0.488244   -0.102853   -1.460280
      9          8           0       -0.584118    1.822859   -0.268400
     10          6           0        0.052516    2.566844   -1.320974
     11          6           0        1.464684    2.912044   -0.868868
     12          8           0        2.179591    1.694784   -0.661284
     13          6           0        2.348847    1.289928    0.650121
     14          8           0        2.275530    2.061953    1.589791
     15          6           0        2.587093   -0.138413    0.755205
     16          6           0        2.326330   -0.977105   -0.285892
     17          7           0        2.439460   -2.329679   -0.301234
     18          6           0        1.682551   -3.087591   -1.286778
     19          6           0        2.830138   -3.035613    0.904452
     20          1           0       -2.277429    1.416541    1.765992
     21          1           0       -0.576991    1.356404    2.260086
     22          1           0       -1.728463    0.170954    2.910479
     23          1           0       -0.285103   -0.828068    1.135827
     24          1           0       -1.960415   -1.865808   -0.237278
     25          1           0       -2.580547   -1.733916    1.408380
     26          1           0       -4.274191   -1.893144   -1.349891
     27          1           0       -4.661672   -0.193683   -1.713477
     28          1           0       -3.022307   -0.802961   -2.011376
     29          1           0       -5.050061   -1.375517    1.089811
     30          1           0       -4.267010    0.013293    1.886060
     31          1           0       -5.370013    0.285011    0.528576
     32          1           0        0.059576    1.966337   -2.232199
     33          1           0       -0.541548    3.472968   -1.470793
     34          1           0        1.983389    3.474253   -1.652183
     35          1           0        1.456590    3.491322    0.056930
     36          1           0        2.860481   -0.488623    1.742735
     37          1           0        1.968016   -0.550225   -1.214759
     38          1           0        2.254564   -3.965247   -1.606739
     39          1           0        0.716563   -3.426546   -0.883455
     40          1           0        1.479955   -2.455981   -2.153504
     41          1           0        3.718340   -2.566568    1.336797
     42          1           0        2.031063   -3.033485    1.662255
     43          1           0        3.071076   -4.071580    0.652582
 ---------------------------------------------------------------------

 SCF Done:  E(UB3LYP) =  -920.561273855     A.U. after   33 cycles
 SCF Done:  E(UB3LYP) =  -920.561273855     a.u. after    1 cycles

 The electronic state is 2-A.
 Alpha  occ. eigenvalues --  -19.07692 -19.05725 -19.01439 -18.99418 -14.25231
 Alpha  occ. eigenvalues --  -14.21432 -10.20531 -10.18710 -10.14395 -10.13953
 Alpha  occ. eigenvalues --  -10.11414 -10.10344 -10.10315 -10.10007 -10.09935
 Alpha  occ. eigenvalues --  -10.09484 -10.08864 -10.06224 -10.05796  -1.01778
 Alpha  occ. eigenvalues --   -0.99203  -0.92782  -0.90788  -0.86499  -0.83261
 Alpha  occ. eigenvalues --   -0.71514  -0.69408  -0.66976  -0.63316  -0.61876
 Alpha  occ. eigenvalues --   -0.60782  -0.59855  -0.57133  -0.53896  -0.50282
 Alpha  occ. eigenvalues --   -0.48524  -0.47278  -0.46382  -0.42660  -0.41603
 Alpha  occ. eigenvalues --   -0.40961  -0.40586  -0.39021  -0.38505  -0.37593
 Alpha  occ. eigenvalues --   -0.37533  -0.36701  -0.36576  -0.35363  -0.34118
 Alpha  occ. eigenvalues --   -0.33599  -0.32379  -0.31483  -0.30868  -0.30820
 Alpha  occ. eigenvalues --   -0.30733  -0.30168  -0.29897  -0.29331  -0.29138
 Alpha  occ. eigenvalues --   -0.27937  -0.27800  -0.27401  -0.26328  -0.24968
 Alpha  occ. eigenvalues --   -0.24628  -0.24416  -0.22281  -0.22183  -0.19513
 Alpha  occ. eigenvalues --   -0.18489  -0.17435  -0.12737  -0.11597   0.03979
 Alpha virt. eigenvalues --    0.05833   0.06251   0.06876   0.07407   0.08047
 Alpha virt. eigenvalues --    0.08405   0.08877   0.09109   0.09384   0.09701
 Alpha virt. eigenvalues --    0.10221   0.10359   0.10935   0.11637   0.11722

  Beta  occ. eigenvalues --  -19.07683 -19.05721 -19.01423 -18.99382 -14.25224
  Beta  occ. eigenvalues --  -14.21419 -10.20498 -10.18667 -10.14388 -10.13949
  Beta  occ. eigenvalues --  -10.11339 -10.10293 -10.10261 -10.09993 -10.09912
  Beta  occ. eigenvalues --  -10.09472 -10.08859 -10.06217 -10.05801  -1.01749
  Beta  occ. eigenvalues --   -0.99167  -0.92755  -0.90739  -0.86449  -0.83236
  Beta  occ. eigenvalues --   -0.71479  -0.69356  -0.66922  -0.63240  -0.61851
  Beta  occ. eigenvalues --   -0.60729  -0.59799  -0.57086  -0.53861  -0.50220
  Beta  occ. eigenvalues --   -0.48429  -0.47254  -0.46333  -0.42602  -0.41556
  Beta  occ. eigenvalues --   -0.40907  -0.40551  -0.38982  -0.38472  -0.37545
  Beta  occ. eigenvalues --   -0.37461  -0.36666  -0.36540  -0.35311  -0.34070
  Beta  occ. eigenvalues --   -0.33552  -0.32338  -0.31418  -0.30805  -0.30774
  Beta  occ. eigenvalues --   -0.30693  -0.30104  -0.29836  -0.29273  -0.29119
  Beta  occ. eigenvalues --   -0.27913  -0.27766  -0.27377  -0.26291  -0.24946
  Beta  occ. eigenvalues --   -0.24588  -0.24393  -0.22215  -0.21973  -0.19437
  Beta  occ. eigenvalues --   -0.18468  -0.17401  -0.12662  -0.11487
  Beta virt. eigenvalues --    0.05852   0.06466   0.06893   0.07443   0.07670
  Beta virt. eigenvalues --    0.08439   0.08803   0.09044   0.09317   0.09534
  Beta virt. eigenvalues --    0.09659   0.10562   0.10860   0.11210   0.11711

 Mulliken charges and spin densities:
               1          2
     1  C   -0.552583  -0.237466
     2  C    0.591060   0.556970
     3  C   -1.146736  -0.161021
     4  N    0.153614   0.080961
     5  C    0.105676  -0.393818
     6  C    0.119213  -0.443609
     7  C   -0.748596  -0.215535
     8  O   -0.172174   0.026379
     9  O    0.145996  -0.000298
    10  C    0.321320  -0.230143
    11  C   -0.201965  -0.068538
    12  O   -0.028068   0.001076
    13  C   -0.502001  -0.191836
    14  O   -0.219630   0.013430
    15  C    0.714595  -0.075982
    16  C   -1.000572   0.310035
    17  N   -0.023224   0.206001
    18  C    0.841228  -1.167198
    19  C    0.892250  -1.266728
    20  H    0.134292   0.028301
    21  H    0.121301   0.074066
    22  H    0.078377   0.074137
    23  H    0.548433  -0.306028
    24  H    0.557801  -0.308012
    25  H   -0.444233   0.608354
    26  H   -0.092130   0.193018
    27  H   -0.004018   0.123226
    28  H    0.066611   0.095215
    29  H   -0.009833   0.120861
    30  H    0.024649   0.108835
    31  H    0.005145   0.129387
    32  H    0.197673  -0.000548
    33  H   -0.064478   0.222726
    34  H    0.022674   0.130769
    35  H    0.226179  -0.033176
    36  H    0.126661   0.048284
    37  H    0.189972   0.026627
    38  H   -0.405001   0.576703
    39  H   -0.532033   0.697312
    40  H    0.026764   0.097241
    41  H   -0.153994   0.304338
    42  H   -0.366880   0.548048
    43  H   -0.543335   0.697635
 Sum of Mulliken charges =  -1.00000   1.00000

 Dipole moment (field-independent basis, Debye):
    X=             -2.1510    Y=              7.1442    Z=             -2.4937  Tot=              7.8667
 Quadrupole moment (field-independent basis, Debye-Ang):
   XX=           -180.1422   YY=           -187.5337   ZZ=           -152.1323
   XY=              6.9413   XZ=             -5.0669   YZ=             -3.4808

 Summary of Natural Population Analysis:

                                       Natural Population
                Natural  -----------------------------------------------
    Atom  No    Charge         Core      Valence    Rydberg      Total
 -----------------------------------------------------------------------
      C    1   -0.28842      0.99965     2.28251    0.00626     3.28842
      C    2   -0.16246      0.99954     2.15118    0.01174     3.16246
      C    3   -0.07863      0.99959     2.06615    0.01290     3.07863
      N    4   -0.28798      0.99973     2.77621    0.01204     3.78798
      C    5   -0.17396      0.99964     2.16754    0.00677     3.17396
      C    6   -0.17188      0.99965     2.16561    0.00662     3.17188
      C    7    0.43005      0.99965     1.54251    0.02779     2.56995
      O    8   -0.32104      0.99987     3.31526    0.00591     4.32104
      O    9   -0.28038      0.99985     3.27081    0.00971     4.28038
      C   10   -0.03021      0.99956     2.01894    0.01172     3.03021
      C   11   -0.02686      0.99957     2.01668    0.01062     3.02686
      O   12   -0.29904      0.99987     3.29061    0.00857     4.29904
      C   13    0.38781      0.99963     1.58759    0.02497     2.61219
      O   14   -0.31912      0.99987     3.31389    0.00536     4.31912
      C   15   -0.23187      0.99949     2.22212    0.01025     3.23187
      C   16    0.07317      0.99953     1.91506    0.01224     2.92683
      N   17   -0.23016      0.99968     2.71920    0.01128     3.73016
      C   18   -0.16860      0.99963     2.16113    0.00784     3.16860
      C   19   -0.17914      0.99964     2.17089    0.00861     3.17914
      H   20    0.10117      0.00000     0.39768    0.00115     0.39883
      H   21    0.11238      0.00000     0.38669    0.00093     0.38762
      H   22    0.09666      0.00000     0.40260    0.00074     0.40334
      H   23    0.11692      0.00000     0.38034    0.00274     0.38308
      H   24    0.10379      0.00000     0.39388    0.00233     0.39621
      H   25    0.09263      0.00000     0.40572    0.00166     0.40737
      H   26    0.07789      0.00000     0.42041    0.00169     0.42211
      H   27    0.09076      0.00000     0.40807    0.00117     0.40924
      H   28    0.10382      0.00000     0.39503    0.00115     0.39618
      H   29    0.07855      0.00000     0.41972    0.00173     0.42145
      H   30    0.09601      0.00000     0.40289    0.00110     0.40399
      H   31    0.09237      0.00000     0.40655    0.00109     0.40763
      H   32    0.10223      0.00000     0.39627    0.00150     0.39777
      H   33    0.09203      0.00000     0.40686    0.00111     0.40797
      H   34    0.08918      0.00000     0.40978    0.00104     0.41082
      H   35    0.10384      0.00000     0.39468    0.00148     0.39616
      H   36    0.10786      0.00000     0.39113    0.00102     0.39214
      H   37    0.10850      0.00000     0.38968    0.00182     0.39150
      H   38    0.09540      0.00000     0.40312    0.00148     0.40460
      H   39    0.09645      0.00000     0.40129    0.00225     0.40355
      H   40    0.10137      0.00000     0.39754    0.00109     0.39863
      H   41    0.09872      0.00000     0.40021    0.00108     0.40128
      H   42    0.09763      0.00000     0.39982    0.00255     0.40237
      H   43    0.10254      0.00000     0.39574    0.00172     0.39746
 =======================================================================
   * Total *   -0.00000     18.99363    54.75961    0.24677    74.00000

 Normal termination of Gaussian 16 at Sat Dec 12 11:21:38 2020.
