 Gaussian 16, Revision A.03,

 -----------------------------------------------------------
 # opt freq B3LYP/6-31G(d) empiricaldispersion=gd3bj scf=xqc
 -----------------------------------------------------------

 -------------------------------
 CID_105833657_JID_9605_neutraal
 -------------------------------
 Symbolic Z-matrix:
 Charge =  0 Multiplicity = 1

 SCF Done:  E(RB3LYP) =  -1199.88017930     A.U. after   15 cycles
 SCF Done:  E(RB3LYP) =  -1199.89240743     A.U. after   12 cycles
 SCF Done:  E(RB3LYP) =  -1199.89344328     A.U. after   11 cycles
 SCF Done:  E(RB3LYP) =  -1199.89361935     A.U. after   11 cycles
 SCF Done:  E(RB3LYP) =  -1199.89368626     A.U. after   11 cycles
 SCF Done:  E(RB3LYP) =  -1199.89380490     A.U. after   10 cycles
 SCF Done:  E(RB3LYP) =  -1199.89397539     A.U. after   11 cycles
 SCF Done:  E(RB3LYP) =  -1199.89415947     A.U. after   11 cycles
 SCF Done:  E(RB3LYP) =  -1199.89423285     A.U. after   11 cycles
 SCF Done:  E(RB3LYP) =  -1199.89425012     A.U. after   10 cycles
 SCF Done:  E(RB3LYP) =  -1199.89428003     A.U. after    8 cycles
 SCF Done:  E(RB3LYP) =  -1199.89428137     A.U. after    8 cycles
 SCF Done:  E(RB3LYP) =  -1199.89428160     A.U. after    7 cycles
 SCF Done:  E(RB3LYP) =  -1199.89428181     A.U. after    7 cycles
 SCF Done:  E(RB3LYP) =  -1199.89428197     A.U. after    7 cycles
 Optimization completed.
    -- Stationary point found.
 Normal termination of Gaussian 16 at Sat Dec 12 10:03:46 2020.

 --------------------------------------------------------------------
 #N Geom=AllCheck Guess=TCheck SCRF=Check GenChk RB3LYP/6-31G(d) Freq
 --------------------------------------------------------------------

 Structure from the checkpoint file:  "JID_9605.chk"
 -------------------------------
 CID_105833657_JID_9605_neutraal
 -------------------------------
 Charge =  0 Multiplicity = 1

 SCF Done:  E(RB3LYP) =  -1199.89428197     A.U. after    1 cycles

  Exact polarizability: 205.231   3.380 225.957   4.798  -6.728 118.690
 Approx polarizability: 276.713  15.714 364.473   9.530 -22.093 181.214

                      1                      2                      3
                      A                      A                      A
 Frequencies --     31.8834                45.1170                61.1028
 Red. masses --      3.9495                 4.1998                 4.0177
 Frc consts  --      0.0024                 0.0050                 0.0088
 IR Inten    --      0.0866                 0.1181                 0.2357

                      4                      5                      6
                      A                      A                      A
 Frequencies --     79.8777               101.1010               104.9566
 Red. masses --      3.1789                 2.5389                 2.1149
 Frc consts  --      0.0120                 0.0153                 0.0137
 IR Inten    --      0.0359                 2.9968                 2.1937

                      7                      8                      9
                      A                      A                      A
 Frequencies --    111.5006               116.8467               135.6595
 Red. masses --      2.2192                 1.4906                 2.6932
 Frc consts  --      0.0163                 0.0120                 0.0292
 IR Inten    --      0.5584                 0.3164                 1.6798

                     10                     11                     12
                      A                      A                      A
 Frequencies --    167.8404               180.1410               187.7353
 Red. masses --      2.6134                 3.6254                 3.9430
 Frc consts  --      0.0434                 0.0693                 0.0819
 IR Inten    --      0.0768                 1.0187                 2.4312

                     13                     14                     15
                      A                      A                      A
 Frequencies --    209.4377               216.3352               235.1775
 Red. masses --      1.3545                 1.4556                 3.1958
 Frc consts  --      0.0350                 0.0401                 0.1041
 IR Inten    --      1.8406                 0.8782                 0.7050

                     16                     17                     18
                      A                      A                      A
 Frequencies --    256.5768               280.8147               304.0388
 Red. masses --      8.8345                 1.8267                 3.7042
 Frc consts  --      0.3427                 0.0849                 0.2017
 IR Inten    --      4.4496                 5.9124                 1.6962

                     19                     20                     21
                      A                      A                      A
 Frequencies --    318.6868               348.4244               414.0961
 Red. masses --      3.2171                 3.8458                 3.6540
 Frc consts  --      0.1925                 0.2751                 0.3692
 IR Inten    --      3.5133                 8.3986                 3.9470

                     22                     23                     24
                      A                      A                      A
 Frequencies --    437.3526               450.7623               473.5976
 Red. masses --      4.6717                 6.7622                 3.8918
 Frc consts  --      0.5265                 0.8095                 0.5143
 IR Inten    --      4.1658                 5.0272                17.7174

                     25                     26                     27
                      A                      A                      A
 Frequencies --    481.9020               495.9048               535.4695
 Red. masses --      1.2326                 2.0958                 3.1066
 Frc consts  --      0.1686                 0.3037                 0.5248
 IR Inten    --     71.3007                 1.4008                 0.4667

                     28                     29                     30
                      A                      A                      A
 Frequencies --    580.6698               614.1149               620.8847
 Red. masses --      3.9885                 6.5965                 4.0246
 Frc consts  --      0.7924                 1.4658                 0.9141
 IR Inten    --     10.5139                 1.2582                 5.5157

                     31                     32                     33
                      A                      A                      A
 Frequencies --    636.2582               662.1698               667.3677
 Red. masses --      3.7127                 8.6645                 4.2395
 Frc consts  --      0.8855                 2.2384                 1.1125
 IR Inten    --      2.2243                 0.3018                 1.5000

                     34                     35                     36
                      A                      A                      A
 Frequencies --    714.2218               746.3526               799.4305
 Red. masses --      7.3901                 3.0218                 1.3143
 Frc consts  --      2.2211                 0.9918                 0.4949
 IR Inten    --      4.2694                18.6525                 6.2919

                     37                     38                     39
                      A                      A                      A
 Frequencies --    808.6336               851.8084               872.5782
 Red. masses --      1.4129                 3.6235                 3.4904
 Frc consts  --      0.5444                 1.5490                 1.5658
 IR Inten    --      4.7684                22.9152                 5.5784

                     40                     41                     42
                      A                      A                      A
 Frequencies --    914.7525               945.4270               971.1950
 Red. masses --      2.8984                 2.8937                 1.8872
 Frc consts  --      1.4289                 1.5239                 1.0488
 IR Inten    --     19.6030                 7.9358                11.4101

                     43                     44                     45
                      A                      A                      A
 Frequencies --    987.3674               993.4327              1009.8811
 Red. masses --      2.2223                 2.0079                 3.2547
 Frc consts  --      1.2765                 1.1675                 1.9557
 IR Inten    --     15.3465                 5.9743                18.1078

                     46                     47                     48
                      A                      A                      A
 Frequencies --   1019.4025              1032.5130              1069.1638
 Red. masses --      1.9441                 1.6655                 2.5176
 Frc consts  --      1.1903                 1.0462                 1.6956
 IR Inten    --     40.1657                 1.5904                52.1745

                     49                     50                     51
                      A                      A                      A
 Frequencies --   1077.0088              1087.2696              1109.8472
 Red. masses --      1.4470                 3.4242                 3.9754
 Frc consts  --      0.9889                 2.3850                 2.8851
 IR Inten    --      2.2658                10.9237                26.3804

                     52                     53                     54
                      A                      A                      A
 Frequencies --   1115.0362              1155.7402              1182.5371
 Red. masses --      1.9737                 2.9863                 2.0564
 Frc consts  --      1.4458                 2.3502                 1.6942
 IR Inten    --      7.5791                89.7139                78.2112

                     55                     56                     57
                      A                      A                      A
 Frequencies --   1188.3582              1196.0156              1218.2774
 Red. masses --      1.5593                 1.7882                 2.4405
 Frc consts  --      1.2974                 1.5071                 2.1341
 IR Inten    --      4.1060                34.2324                19.3420

                     58                     59                     60
                      A                      A                      A
 Frequencies --   1223.5644              1237.8085              1246.1139
 Red. masses --      1.6270                 1.9560                 1.9526
 Frc consts  --      1.4352                 1.7657                 1.7864
 IR Inten    --      7.9020                78.0848                 4.5057

                     61                     62                     63
                      A                      A                      A
 Frequencies --   1262.3200              1279.2827              1291.8615
 Red. masses --      2.7316                 1.2886                 2.1362
 Frc consts  --      2.5645                 1.2425                 2.1005
 IR Inten    --     24.7753                27.4626                13.2304

                     64                     65                     66
                      A                      A                      A
 Frequencies --   1301.1020              1324.5483              1344.3649
 Red. masses --      2.6235                 1.2910                 1.4066
 Frc consts  --      2.6167                 1.3345                 1.4978
 IR Inten    --      9.7187                 6.3486                 8.3800

                     67                     68                     69
                      A                      A                      A
 Frequencies --   1350.9946              1362.9910              1367.4361
 Red. masses --      1.3522                 3.9536                 1.3686
 Frc consts  --      1.4541                 4.3274                 1.5078
 IR Inten    --      7.0130               128.8148                 8.3160

                     70                     71                     72
                      A                      A                      A
 Frequencies --   1376.9343              1407.1380              1432.8495
 Red. masses --      1.3224                 1.3274                 1.2977
 Frc consts  --      1.4772                 1.5486                 1.5698
 IR Inten    --      5.0987                33.6874                17.0767

                     73                     74                     75
                      A                      A                      A
 Frequencies --   1436.3104              1438.9864              1442.0029
 Red. masses --      1.3104                 1.3793                 1.3615
 Frc consts  --      1.5928                 1.6828                 1.6681
 IR Inten    --     14.9930                 8.9818                 3.8232

                     76                     77                     78
                      A                      A                      A
 Frequencies --   1446.9933              1473.2878              1504.1166
 Red. masses --      3.7920                 2.9787                 1.1407
 Frc consts  --      4.6779                 3.8093                 1.5205
 IR Inten    --    113.5722               306.9924                 0.1115

                     79                     80                     81
                      A                      A                      A
 Frequencies --   1509.4319              1512.8002              1514.1173
 Red. masses --      1.0794                 1.0434                 1.0565
 Frc consts  --      1.4489                 1.4070                 1.4271
 IR Inten    --      2.3181                 6.9847                10.0672

                     82                     83                     84
                      A                      A                      A
 Frequencies --   1519.7227              1522.9808              1524.7714
 Red. masses --      1.0758                 1.1615                 1.0877
 Frc consts  --      1.4640                 1.5873                 1.4899
 IR Inten    --      1.0098                 7.7975                 2.9093

                     85                     86                     87
                      A                      A                      A
 Frequencies --   1531.2333              1536.0948              1538.9339
 Red. masses --      1.0829                 1.0703                 1.0524
 Frc consts  --      1.4959                 1.4880                 1.4685
 IR Inten    --      0.3037                 3.8051                12.6751

                     88                     89                     90
                      A                      A                      A
 Frequencies --   1548.7109              1560.9797              1606.9828
 Red. masses --      1.1007                 6.8330                 7.1592
 Frc consts  --      1.5555                 9.8097                10.8927
 IR Inten    --     11.5881                35.4220                42.1868

                     91                     92                     93
                      A                      A                      A
 Frequencies --   1630.9411              3008.1640              3048.2162
 Red. masses --      7.5853                 1.0373                 1.0386
 Frc consts  --     11.8877                 5.5303                 5.6859
 IR Inten    --     18.9646                39.0712                34.8785

                     94                     95                     96
                      A                      A                      A
 Frequencies --   3054.6839              3061.2564              3063.2908
 Red. masses --      1.0980                 1.0363                 1.0842
 Frc consts  --      6.0363                 5.7217                 5.9941
 IR Inten    --     35.6516                18.2996                 8.7119

                     97                     98                     99
                      A                      A                      A
 Frequencies --   3072.3814              3082.7182              3091.0782
 Red. masses --      1.0715                 1.0628                 1.0622
 Frc consts  --      5.9592                 5.9504                 5.9799
 IR Inten    --     36.2245                27.7319                23.1716

                    100                    101                    102
                      A                      A                      A
 Frequencies --   3097.9959              3100.2476              3104.5250
 Red. masses --      1.1016                 1.0689                 1.0880
 Frc consts  --      6.2290                 6.0533                 6.1782
 IR Inten    --     17.8994                11.6235                14.0779

                    103                    104                    105
                      A                      A                      A
 Frequencies --   3115.9810              3129.7986              3130.6140
 Red. masses --      1.0971                 1.1006                 1.1009
 Frc consts  --      6.2760                 6.3520                 6.3573
 IR Inten    --      1.4747                42.2939                36.5133

                    106                    107                    108
                      A                      A                      A
 Frequencies --   3137.4213              3140.8214              3146.7398
 Red. masses --      1.0980                 1.1030                 1.1010
 Frc consts  --      6.3681                 6.4110                 6.4235
 IR Inten    --     27.9957                40.1750                 5.1931

                    109                    110                    111
                      A                      A                      A
 Frequencies --   3150.7999              3172.1175              3680.8698
 Red. masses --      1.0992                 1.0994                 1.0805
 Frc consts  --      6.4296                 6.5180                 8.6253
 IR Inten    --      7.4220                14.3251                84.5796

 - Thermochemistry -
 -------------------
 Temperature   298.150 Kelvin.  Pressure   1.00000 Atm.
 Atom     1 has atomic number  6 and mass  12.00000

 Molecular mass:   280.13578 amu.
 Principal axes and moments of inertia in atomic units:
                           1         2         3
     Eigenvalues --  4023.003286531.627769566.60693
           X            0.99999   0.00237   0.00213
           Y           -0.00240   0.99989   0.01449
           Z           -0.00210  -0.01450   0.99989
 This molecule is an asymmetric top.
 Rotational symmetry number  1.
 Warning -- assumption of classical behavior for rotation
           may cause significant error
 Rotational temperatures (Kelvin)      0.02153     0.01326     0.00905
 Rotational constants (GHZ):           0.44861     0.27631     0.18865
 Zero-point vibrational energy     872248.0 (Joules/Mol)
                                  208.47228 (Kcal/Mol)
 Warning -- explicit consideration of  29 degrees of freedom as
           vibrations may cause significant error
 Vibrational temperatures:     45.87    64.91    87.91   114.93   145.46
          (Kelvin)            151.01   160.42   168.12   195.18   241.48
                              259.18   270.11   301.33   311.26   338.37
                              369.16   404.03   437.44   458.52   501.31
                              595.79   629.25   648.55   681.40   693.35
                              713.50   770.42   835.45   883.57   893.31
                              915.43   952.71   960.19  1027.61  1073.83
                             1150.20  1163.44  1225.56  1255.45  1316.12
                             1360.26  1397.33  1420.60  1429.33  1452.99
                             1466.69  1485.56  1538.29  1549.58  1564.34
                             1596.82  1604.29  1662.85  1701.41  1709.78
                             1720.80  1752.83  1760.44  1780.93  1792.88
                             1816.20  1840.60  1858.70  1872.00  1905.73
                             1934.24  1943.78  1961.04  1967.44  1981.10
                             2024.56  2061.55  2066.53  2070.38  2074.72
                             2081.90  2119.73  2164.09  2171.74  2176.58
                             2178.48  2186.54  2191.23  2193.81  2203.10
                             2210.10  2214.18  2228.25  2245.90  2312.09
                             2346.56  4328.08  4385.70  4395.01  4404.47
                             4407.39  4420.47  4435.34  4447.37  4457.33
                             4460.56  4466.72  4483.20  4503.08  4504.26
                             4514.05  4518.94  4527.46  4533.30  4563.97
                             5295.95

 Zero-point correction=                           0.332222 (Hartree/Particle)
 Thermal correction to Energy=                    0.351247
 Thermal correction to Enthalpy=                  0.352191
 Thermal correction to Gibbs Free Energy=         0.284416
 Sum of electronic and zero-point Energies=          -1199.562060
 Sum of electronic and thermal Energies=             -1199.543035
 Sum of electronic and thermal Enthalpies=           -1199.542091
 Sum of electronic and thermal Free Energies=        -1199.609866

                     E (Thermal)             CV                S
                      KCal/Mol        Cal/Mol-Kelvin    Cal/Mol-Kelvin
 Total                  220.411             71.057            142.645
 Electronic               0.000              0.000              0.000
 Translational            0.889              2.981             42.789
 Rotational               0.889              2.981             33.885
 Vibrational            218.634             65.095             65.971
 Vibration     1          0.594              1.983              5.709
 Vibration     2          0.595              1.979              5.021
 Vibration     3          0.597              1.973              4.421
 Vibration     4          0.600              1.963              3.894
 Vibration     5          0.604              1.948              3.433
 Vibration     6          0.605              1.945              3.360
 Vibration     7          0.607              1.940              3.243
 Vibration     8          0.608              1.935              3.152
 Vibration     9          0.613              1.918              2.864
 Vibration    10          0.625              1.882              2.460
 Vibration    11          0.629              1.867              2.327
 Vibration    12          0.632              1.857              2.250
 Vibration    13          0.642              1.826              2.049
 Vibration    14          0.645              1.816              1.990
 Vibration    15          0.655              1.787              1.839
 Vibration    16          0.666              1.752              1.685
 Vibration    17          0.680              1.709              1.529
 Vibration    18          0.695              1.666              1.395
 Vibration    19          0.705              1.638              1.317
 Vibration    20          0.726              1.578              1.173
 Vibration    21          0.778              1.440              0.912
 Vibration    22          0.798              1.389              0.835
 Vibration    23          0.810              1.359              0.793
 Vibration    24          0.830              1.309              0.728
 Vibration    25          0.838              1.290              0.705
 Vibration    26          0.851              1.259              0.668
 Vibration    27          0.890              1.172              0.575
 Vibration    28          0.937              1.073              0.484
 Vibration    29          0.974              1.002              0.426

                           ! Non-Optimized Parameters !
 Normal termination of Gaussian 16 at Sat Dec 12 10:24:21 2020.

 ----------------------------------------------------------------------
 # B3LYP/6-311++G(d,p) empiricaldispersion=gd3bj scf=xqc pop=npa geom=c
 heck
 ----------------------------------------------------------------------

 ---------------------------------------
 CID_105833657_JID_9605_Energie_neutraal
 ---------------------------------------
 Structure from the checkpoint file:  "JID_9605.chk"
 Charge =  0 Multiplicity = 1

 SCF Done:  E(RB3LYP) =  -1200.13442907     A.U. after   16 cycles
 Normal termination of Gaussian 16 at Sat Dec 12 10:32:43 2020.

 ----------------------------------------------------------------------
 # B3LYP/6-311++G(d,p) empiricaldispersion=gd3bj scf=xqc pop=npa geom=c
 heck
 ----------------------------------------------------------------------

 -------------------------------------
 CID_105833657_JID_9605_Energie_kation
 -------------------------------------
 Structure from the checkpoint file:  "JID_9605.chk"
 Charge =  1 Multiplicity = 2

 SCF Done:  E(UB3LYP) =  -1199.87315364     A.U. after   23 cycles
 Normal termination of Gaussian 16 at Sat Dec 12 10:48:58 2020.
 Gaussian 16:  ES64L-G16RevA.03 25-Dec-2016

 ----------------------------------------------------------------------
 # B3LYP/6-311++G(d,p) empiricaldispersion=gd3bj scf=xqc pop=npa geom=c
 heck
 ----------------------------------------------------------------------

 ------------------------------------
 CID_105833657_JID_9605_Energie_anion
 ------------------------------------
 Structure from the checkpoint file:  "JID_9605.chk"
 Charge = -1 Multiplicity = 2

                         Standard orientation:
 ---------------------------------------------------------------------
 Center     Atomic      Atomic             Coordinates (Angstroms)
 Number     Number       Type             X           Y           Z
 ---------------------------------------------------------------------
      1          6           0        0.573602   -3.132747   -0.761066
      2          6           0        0.223170   -2.406782    0.536777
      3          7           0       -0.974765   -1.589893    0.410014
      4          6           0       -1.151366   -0.267621    0.138954
      5          6           0       -2.495727   -0.065203   -0.092796
      6          6           0       -3.116867   -1.327134    0.030246
      7          7           0       -2.181592   -2.241751    0.318918
      8          6           0       -4.554426   -1.712813   -0.106067
      9          7           0       -2.649036    1.301946   -0.305405
     10          6           0       -1.438012    1.943122   -0.211465
     11         16           0       -1.170580    3.582877   -0.410617
     12          7           0       -0.488651    0.951731    0.078077
     13          6           0        0.923225    1.241169    0.280835
     14          6           0        1.460724    0.822344    1.680170
     15          6           0        2.894519    0.295376    1.433159
     16          6           0        3.220202    0.670596   -0.032143
     17          6           0        1.861157    0.595003   -0.747463
     18          8           0        4.297048   -0.045615   -0.611612
     19          6           0        4.062442   -1.403007   -0.925685
     20          1           0       -0.257504   -3.775538   -1.062353
     21          1           0        1.466393   -3.751501   -0.619885
     22          1           0        0.769366   -2.422465   -1.571182
     23          1           0        0.029145   -3.126134    1.336975
     24          1           0        1.037491   -1.759423    0.863130
     25          1           0       -5.180654   -1.199904    0.634050
     26          1           0       -4.945088   -1.461367   -1.099476
     27          1           0       -4.658313   -2.790151    0.043086
     28          1           0       -3.490567    1.816540   -0.512669
     29          1           0        0.983855    2.326674    0.179269
     30          1           0        1.443002    1.680555    2.357248
     31          1           0        0.818978    0.059637    2.131799
     32          1           0        2.932165   -0.793587    1.549211
     33          1           0        3.631052    0.711066    2.125471
     34          1           0        3.560227    1.712298   -0.057401
     35          1           0        1.576305   -0.446683   -0.924576
     36          1           0        1.847041    1.114844   -1.709023
     37          1           0        3.680102   -1.980411   -0.070867
     38          1           0        3.363101   -1.522709   -1.765215
     39          1           0        5.029242   -1.820884   -1.216794
 ---------------------------------------------------------------------

 SCF Done:  E(UB3LYP) =  -1200.12654021     A.U. after   33 cycles
 SCF Done:  E(UB3LYP) =  -1200.12654021     a.u. after    1 cycles

 The electronic state is 2-A.
 Alpha  occ. eigenvalues --  -88.70592 -19.04587 -14.30963 -14.30240 -14.28930
 Alpha  occ. eigenvalues --  -14.24354 -10.20155 -10.16347 -10.14709 -10.14235
 Alpha  occ. eigenvalues --  -10.13542 -10.12667 -10.12512 -10.12162 -10.09904
 Alpha  occ. eigenvalues --  -10.09558 -10.09149 -10.08603 -10.08233  -7.79346
 Alpha  occ. eigenvalues --   -5.75787  -5.75119  -5.74904  -0.98052  -0.95767
 Alpha  occ. eigenvalues --   -0.94311  -0.85271  -0.77288  -0.76224  -0.71878
 Alpha  occ. eigenvalues --   -0.68118  -0.65856  -0.64906  -0.63716  -0.62227
 Alpha  occ. eigenvalues --   -0.60154  -0.56618  -0.55121  -0.53589  -0.50917
 Alpha  occ. eigenvalues --   -0.49507  -0.47720  -0.44589  -0.44290  -0.43687
 Alpha  occ. eigenvalues --   -0.42189  -0.40677  -0.39464  -0.37325  -0.37256
 Alpha  occ. eigenvalues --   -0.36489  -0.36162  -0.35395  -0.34632  -0.33644
 Alpha  occ. eigenvalues --   -0.32045  -0.31659  -0.30663  -0.30136  -0.29687
 Alpha  occ. eigenvalues --   -0.29525  -0.29235  -0.28767  -0.28520  -0.27668
 Alpha  occ. eigenvalues --   -0.27342  -0.25755  -0.23733  -0.22153  -0.21453
 Alpha  occ. eigenvalues --   -0.18779  -0.17986  -0.15431  -0.13440  -0.11028
 Alpha  occ. eigenvalues --    0.03623
 Alpha virt. eigenvalues --    0.05047   0.06276   0.06508   0.06994   0.07816
 Alpha virt. eigenvalues --    0.07852   0.08777   0.08817   0.09219   0.09614
 Alpha virt. eigenvalues --    0.10085   0.10564   0.10827   0.11163   0.11837

  Beta  occ. eigenvalues --  -88.70590 -19.04580 -14.30963 -14.30238 -14.28901
  Beta  occ. eigenvalues --  -14.24335 -10.20153 -10.16343 -10.14707 -10.14233
  Beta  occ. eigenvalues --  -10.13522 -10.12627 -10.12508 -10.12162 -10.09894
  Beta  occ. eigenvalues --  -10.09550 -10.09129 -10.08563 -10.08199  -7.79344
  Beta  occ. eigenvalues --   -5.75786  -5.75118  -5.74901  -0.98040  -0.95749
  Beta  occ. eigenvalues --   -0.94297  -0.85246  -0.77267  -0.76206  -0.71864
  Beta  occ. eigenvalues --   -0.68084  -0.65827  -0.64882  -0.63681  -0.62188
  Beta  occ. eigenvalues --   -0.60109  -0.56566  -0.55077  -0.53556  -0.50898
  Beta  occ. eigenvalues --   -0.49466  -0.47695  -0.44554  -0.44264  -0.43660
  Beta  occ. eigenvalues --   -0.42162  -0.40649  -0.39444  -0.37295  -0.37229
  Beta  occ. eigenvalues --   -0.36463  -0.36139  -0.35372  -0.34603  -0.33597
  Beta  occ. eigenvalues --   -0.32012  -0.31619  -0.30627  -0.30110  -0.29674
  Beta  occ. eigenvalues --   -0.29495  -0.29208  -0.28735  -0.28489  -0.27639
  Beta  occ. eigenvalues --   -0.27319  -0.25735  -0.23710  -0.22130  -0.21399
  Beta  occ. eigenvalues --   -0.18759  -0.17969  -0.15405  -0.13433  -0.11010
  Beta virt. eigenvalues --    0.05743   0.06196   0.06596   0.06700   0.07412
  Beta virt. eigenvalues --    0.08097   0.08266   0.09025   0.09174   0.09518
  Beta virt. eigenvalues --    0.10018   0.10444   0.10779   0.10852   0.11379

 Mulliken charges and spin densities:
               1          2
     1  C    0.606662  -1.111182
     2  C   -0.750431   0.568235
     3  N    0.261078  -0.061044
     4  C   -0.375508   0.188301
     5  C    0.505940   0.291679
     6  C   -0.611729   0.340096
     7  N   -0.202366   0.118892
     8  C    1.477801  -2.055557
     9  N   -0.247442   0.104901
    10  C    0.007567   0.282645
    11  S   -0.835031  -0.027461
    12  N    0.557032   0.013672
    13  C   -0.467584  -0.546874
    14  C   -0.440059  -0.043481
    15  C    0.776253  -0.670293
    16  C   -1.406220   0.321678
    17  C    0.264386   0.023556
    18  O   -0.029658   0.024810
    19  C    0.422205  -0.739069
    20  H    0.130305   0.043125
    21  H   -0.412278   0.568747
    22  H   -0.201816   0.358986
    23  H   -0.412919   0.643788
    24  H    1.028029  -1.003032
    25  H   -0.303397   0.472522
    26  H   -0.209936   0.377365
    27  H   -0.008261   0.173708
    28  H   -0.073581   0.434191
    29  H    0.173477  -0.109659
    30  H   -0.027429   0.209290
    31  H    0.006749   0.206180
    32  H   -0.421767   0.610059
    33  H    0.030940   0.146440
    34  H    0.140331   0.065512
    35  H    0.503826  -0.328686
    36  H    0.094572   0.105522
    37  H   -0.163737   0.309135
    38  H   -0.059974   0.202411
    39  H   -0.326031   0.490891
 Sum of Mulliken charges =  -1.00000   1.00000

 Dipole moment (field-independent basis, Debye):
    X=              1.2093    Y=              2.4888    Z=              0.4397  Tot=              2.8017
 Quadrupole moment (field-independent basis, Debye-Ang):
   XX=           -215.4536   YY=           -195.6322   ZZ=           -156.0963
   XY=             15.2584   XZ=              0.8005   YZ=              3.5229

 Summary of Natural Population Analysis:

                                       Natural Population
                Natural  -----------------------------------------------
    Atom  No    Charge         Core      Valence    Rydberg      Total
 -----------------------------------------------------------------------
      C    1   -0.28938      0.99966     2.28474    0.00498     3.28938
      C    2   -0.08584      0.99961     2.07532    0.01092     3.08584
      N    3   -0.11827      0.99962     2.60646    0.01218     3.61827
      C    4    0.17609      0.99937     1.81282    0.01172     2.82391
      C    5    0.02040      0.99934     1.96839    0.01188     2.97960
      C    6    0.07130      0.99956     1.91565    0.01349     2.92870
      N    7   -0.15542      0.99971     2.64497    0.01074     3.65542
      C    8   -0.29792      0.99963     2.29298    0.00531     3.29792
      N    9   -0.27607      0.99962     2.76628    0.01017     3.77607
      C   10    0.13420      0.99964     1.84543    0.02073     2.86580
      S   11   -0.14278      4.99958     3.13021    0.01300     8.14278
      N   12   -0.22566      0.99957     2.71438    0.01170     3.72566
      C   13   -0.01254      0.99957     2.00159    0.01139     3.01254
      C   14   -0.19610      0.99962     2.18896    0.00752     3.19610
      C   15   -0.20692      0.99962     2.19867    0.00863     3.20692
      C   16    0.07200      0.99952     1.91427    0.01421     2.92800
      C   17   -0.20926      0.99958     2.20324    0.00643     3.20926
      O   18   -0.29706      0.99988     3.28728    0.00991     4.29706
      C   19   -0.10132      0.99960     2.09214    0.00958     3.10132
      H   20    0.10750      0.00000     0.39131    0.00118     0.39250
      H   21    0.10561      0.00000     0.39263    0.00176     0.39439
      H   22    0.09654      0.00000     0.40225    0.00121     0.40346
      H   23    0.10610      0.00000     0.39226    0.00164     0.39390
      H   24    0.09854      0.00000     0.39865    0.00281     0.40146
      H   25    0.10680      0.00000     0.39144    0.00176     0.39320
      H   26    0.10625      0.00000     0.39231    0.00144     0.39375
      H   27    0.11060      0.00000     0.38831    0.00109     0.38940
      H   28    0.21393      0.00000     0.28298    0.00309     0.28607
      H   29    0.12268      0.00000     0.37561    0.00171     0.37732
      H   30    0.10487      0.00000     0.39425    0.00088     0.39513
      H   31    0.10331      0.00000     0.39549    0.00119     0.39669
      H   32    0.10130      0.00000     0.39696    0.00174     0.39870
      H   33    0.10393      0.00000     0.39510    0.00097     0.39607
      H   34    0.08990      0.00000     0.40872    0.00137     0.41010
      H   35    0.10097      0.00000     0.39696    0.00207     0.39903
      H   36    0.10832      0.00000     0.39072    0.00096     0.39168
      H   37    0.08086      0.00000     0.41705    0.00209     0.41914
      H   38    0.07931      0.00000     0.41927    0.00142     0.42069
      H   39    0.09322      0.00000     0.40570    0.00108     0.40678
 =======================================================================
   * Total *   -0.00000     22.99230    51.77175    0.23595    75.00000

 Normal termination of Gaussian 16 at Sat Dec 12 11:12:24 2020.
