 Gaussian 16, Revision A.03,

 -----------------------------------------------------------
 # opt freq B3LYP/6-31G(d) empiricaldispersion=gd3bj scf=xqc
 -----------------------------------------------------------

 ------------------------------
 CID_59085581_JID_3783_neutraal
 ------------------------------
 Symbolic Z-matrix:
 Charge =  0 Multiplicity = 1

 SCF Done:  E(RB3LYP) =  -594.149523021     A.U. after   15 cycles
 SCF Done:  E(RB3LYP) =  -594.156368462     A.U. after   13 cycles
 SCF Done:  E(RB3LYP) =  -594.157215596     A.U. after   13 cycles
 SCF Done:  E(RB3LYP) =  -594.156882564     A.U. after   13 cycles
 SCF Done:  E(RB3LYP) =  -594.157931393     A.U. after   12 cycles
 SCF Done:  E(RB3LYP) =  -594.158044717     A.U. after   12 cycles
 SCF Done:  E(RB3LYP) =  -594.158084251     A.U. after   12 cycles
 SCF Done:  E(RB3LYP) =  -594.158156905     A.U. after   11 cycles
 SCF Done:  E(RB3LYP) =  -594.158177867     A.U. after   10 cycles
 SCF Done:  E(RB3LYP) =  -594.158181944     A.U. after   10 cycles
 SCF Done:  E(RB3LYP) =  -594.158182548     A.U. after    8 cycles
 SCF Done:  E(RB3LYP) =  -594.158182644     A.U. after    7 cycles
 Optimization completed.
    -- Stationary point found.
 Normal termination of Gaussian 16 at Wed Dec  9 23:36:28 2020.

 --------------------------------------------------------------------
 #N Geom=AllCheck Guess=TCheck SCRF=Check GenChk RB3LYP/6-31G(d) Freq
 --------------------------------------------------------------------

 Structure from the checkpoint file:  "JID_3783.chk"
 ------------------------------
 CID_59085581_JID_3783_neutraal
 ------------------------------
 Charge =  0 Multiplicity = 1

 SCF Done:  E(RB3LYP) =  -594.158182644     A.U. after    1 cycles

  Exact polarizability: 147.094   2.027 120.659 -11.117   2.000  74.848
 Approx polarizability: 210.062  -0.405 209.850 -23.690  11.302 110.880

                      1                      2                      3
                      A                      A                      A
 Frequencies --     47.6684                53.8956                77.5706
 Red. masses --      4.3207                 4.1849                 5.0344
 Frc consts  --      0.0058                 0.0072                 0.0178
 IR Inten    --      4.4885                 0.3914                 4.0570

                      4                      5                      6
                      A                      A                      A
 Frequencies --    104.1890               146.4327               170.5223
 Red. masses --      1.0720                 4.4649                 1.6128
 Frc consts  --      0.0069                 0.0564                 0.0276
 IR Inten    --      0.0435                 3.1370                 2.8779

                      7                      8                      9
                      A                      A                      A
 Frequencies --    175.8119               203.6448               238.8072
 Red. masses --      1.2711                 3.1078                 1.2639
 Frc consts  --      0.0231                 0.0759                 0.0425
 IR Inten    --      0.5409                 0.4294                 0.9175

                     10                     11                     12
                      A                      A                      A
 Frequencies --    281.1751               309.0975               334.7278
 Red. masses --      2.6531                 4.1036                 6.1695
 Frc consts  --      0.1236                 0.2310                 0.4073
 IR Inten    --      1.3720                 3.6668                 3.8018

                     13                     14                     15
                      A                      A                      A
 Frequencies --    361.6241               418.8483               453.9664
 Red. masses --      3.1055                 3.7986                 2.1131
 Frc consts  --      0.2393                 0.3926                 0.2566
 IR Inten    --      0.1892                 8.3242                 7.5597

                     16                     17                     18
                      A                      A                      A
 Frequencies --    515.4896               525.9251               534.2736
 Red. masses --      3.8870                 3.1434                 4.3748
 Frc consts  --      0.6086                 0.5123                 0.7358
 IR Inten    --      9.5045                 0.8929                 7.2961

                     19                     20                     21
                      A                      A                      A
 Frequencies --    576.8558               588.7307               625.5399
 Red. masses --      3.4394                 4.3428                 4.0831
 Frc consts  --      0.6743                 0.8869                 0.9414
 IR Inten    --      3.5096                 6.2609                 3.1591

                     22                     23                     24
                      A                      A                      A
 Frequencies --    627.9643               740.6187               777.6341
 Red. masses --      4.5203                 4.0558                 3.6314
 Frc consts  --      1.0502                 1.3108                 1.2938
 IR Inten    --      2.8615                 8.4600                 7.9708

                     25                     26                     27
                      A                      A                      A
 Frequencies --    813.1111               818.5728               867.7920
 Red. masses --      1.2615                 2.9992                 1.8388
 Frc consts  --      0.4914                 1.1840                 0.8158
 IR Inten    --     14.1213                 7.9034                 7.5030

                     28                     29                     30
                      A                      A                      A
 Frequencies --    873.3935               973.3864               993.2210
 Red. masses --      1.4906                 2.3735                 2.8631
 Frc consts  --      0.6699                 1.3250                 1.6641
 IR Inten    --     14.9264                 3.7195                 2.5471

                     31                     32                     33
                      A                      A                      A
 Frequencies --   1029.4755              1050.4452              1061.1782
 Red. masses --      1.7558                 1.5813                 1.4906
 Frc consts  --      1.0964                 1.0281                 0.9890
 IR Inten    --      1.3298                 9.3218                 1.6527

                     34                     35                     36
                      A                      A                      A
 Frequencies --   1071.7605              1077.9101              1124.9947
 Red. masses --      1.5290                 1.5237                 2.1963
 Frc consts  --      1.0348                 1.0430                 1.6377
 IR Inten    --      7.2457                 0.2105                 1.3319

                     37                     38                     39
                      A                      A                      A
 Frequencies --   1160.2341              1209.9867              1229.1995
 Red. masses --      4.9271                 1.7523                 3.4555
 Frc consts  --      3.9078                 1.5115                 3.0762
 IR Inten    --      7.0791                13.3266                10.3812

                     40                     41                     42
                      A                      A                      A
 Frequencies --   1246.7234              1277.2406              1326.2699
 Red. masses --      3.1396                 1.6455                 1.4039
 Frc consts  --      2.8752                 1.5816                 1.4549
 IR Inten    --     64.3226                 6.3875                21.5121

                     43                     44                     45
                      A                      A                      A
 Frequencies --   1361.6775              1416.4060              1417.9700
 Red. masses --      1.4890                 1.8435                 1.5016
 Frc consts  --      1.6267                 2.1790                 1.7789
 IR Inten    --      9.7630                31.3386                37.0195

                     46                     47                     48
                      A                      A                      A
 Frequencies --   1441.3707              1452.7897              1475.2467
 Red. masses --      1.3313                 1.3110                 1.1864
 Frc consts  --      1.6296                 1.6302                 1.5213
 IR Inten    --     11.1405                 3.4214                10.1933

                     49                     50                     51
                      A                      A                      A
 Frequencies --   1481.2818              1498.6600              1501.7212
 Red. masses --      1.9115                 1.0500                 1.0581
 Frc consts  --      2.4711                 1.3895                 1.4059
 IR Inten    --     52.1375                17.5213                34.3631

                     52                     53                     54
                      A                      A                      A
 Frequencies --   1510.4607              1514.2564              1516.4089
 Red. masses --      1.0445                 1.1069                 1.0500
 Frc consts  --      1.4040                 1.4954                 1.4226
 IR Inten    --      8.5350                12.0768                15.5952

                     55                     56                     57
                      A                      A                      A
 Frequencies --   1532.5634              1607.3781              1675.1280
 Red. masses --      1.3192                 5.5859                 6.5354
 Frc consts  --      1.8256                 8.5032                10.8049
 IR Inten    --      0.9474               100.9303                89.4064

                     58                     59                     60
                      A                      A                      A
 Frequencies --   1756.3094              1819.7173              3047.7489
 Red. masses --      9.0753                10.4044                 1.0380
 Frc consts  --     16.4936                20.2990                 5.6805
 IR Inten    --    437.0094               183.6829                19.7863

                     61                     62                     63
                      A                      A                      A
 Frequencies --   3055.5222              3056.4055              3088.9873
 Red. masses --      1.0414                 1.0388                 1.0619
 Frc consts  --      5.7282                 5.7174                 5.9700
 IR Inten    --     10.5055                 1.7751                26.7654

                     64                     65                     66
                      A                      A                      A
 Frequencies --   3100.1047              3112.6854              3120.2414
 Red. masses --      1.1004                 1.0971                 1.0960
 Frc consts  --      6.2307                 6.2626                 6.2868
 IR Inten    --     15.0270                 7.5002                 5.6569

                     67                     68                     69
                      A                      A                      A
 Frequencies --   3141.8830              3155.4088              3164.5545
 Red. masses --      1.1009                 1.1011                 1.1010
 Frc consts  --      6.4030                 6.4591                 6.4962
 IR Inten    --     15.6316                10.5332                 7.5923

                     70                     71                     72
                      A                      A                      A
 Frequencies --   3174.7726              3216.0287              3225.0047
 Red. masses --      1.1045                 1.0911                 1.0916
 Frc consts  --      6.5588                 6.6489                 6.6889
 IR Inten    --      7.7481                 6.8433                 2.8614

 - Thermochemistry -
 -------------------
 Temperature   298.150 Kelvin.  Pressure   1.00000 Atm.
 Atom     1 has atomic number  6 and mass  12.00000

 Molecular mass:   179.09463 amu.
 Principal axes and moments of inertia in atomic units:
                           1         2         3
     Eigenvalues --  1291.017533176.958233891.04721
           X            0.99995  -0.00816  -0.00539
           Y            0.00800   0.99953  -0.02948
           Z            0.00563   0.02943   0.99955
 This molecule is an asymmetric top.
 Rotational symmetry number  1.
 Warning -- assumption of classical behavior for rotation
           may cause significant error
 Rotational temperatures (Kelvin)      0.06709     0.02726     0.02226
 Rotational constants (GHZ):           1.39792     0.56807     0.46382
 Zero-point vibrational energy     566638.8 (Joules/Mol)
                                  135.42991 (Kcal/Mol)
 Warning -- explicit consideration of  20 degrees of freedom as
           vibrations may cause significant error
 Vibrational temperatures:     68.58    77.54   111.61   149.90   210.68
          (Kelvin)            245.34   252.95   293.00   343.59   404.55
                              444.72   481.60   520.30   602.63   653.16
                              741.67   756.69   768.70   829.97   847.05
                              900.01   903.50  1065.59  1118.84  1169.89
                             1177.74  1248.56  1256.62  1400.49  1429.02
                             1481.19  1511.36  1526.80  1542.02  1550.87
                             1618.62  1669.32  1740.90  1768.54  1793.76
                             1837.66  1908.21  1959.15  2037.89  2040.14
                             2073.81  2090.24  2122.55  2131.23  2156.24
                             2160.64  2173.22  2178.68  2181.77  2205.02
                             2312.66  2410.14  2526.94  2618.17  4385.03
                             4396.21  4397.49  4444.36  4460.36  4478.46
                             4489.33  4520.47  4539.93  4553.09  4567.79
                             4627.15  4640.06

 Zero-point correction=                           0.215821 (Hartree/Particle)
 Thermal correction to Energy=                    0.228991
 Thermal correction to Enthalpy=                  0.229935
 Thermal correction to Gibbs Free Energy=         0.175931
 Sum of electronic and zero-point Energies=           -593.942361
 Sum of electronic and thermal Energies=              -593.929192
 Sum of electronic and thermal Enthalpies=            -593.928248
 Sum of electronic and thermal Free Energies=         -593.982252

                     E (Thermal)             CV                S
                      KCal/Mol        Cal/Mol-Kelvin    Cal/Mol-Kelvin
 Total                  143.694             48.818            113.661
 Electronic               0.000              0.000              0.000
 Translational            0.889              2.981             41.455
 Rotational               0.889              2.981             31.146
 Vibrational            141.916             42.857             41.060
 Vibration     1          0.595              1.978              4.912
 Vibration     2          0.596              1.976              4.669
 Vibration     3          0.599              1.964              3.951
 Vibration     4          0.605              1.946              3.374
 Vibration     5          0.617              1.907              2.718
 Vibration     6          0.626              1.879              2.430
 Vibration     7          0.628              1.872              2.372
 Vibration     8          0.639              1.835              2.100
 Vibration     9          0.657              1.781              1.812
 Vibration    10          0.681              1.708              1.527
 Vibration    11          0.698              1.656              1.367
 Vibration    12          0.716              1.606              1.237
 Vibration    13          0.736              1.551              1.115
 Vibration    14          0.782              1.429              0.896
 Vibration    15          0.812              1.352              0.784
 Vibration    16          0.871              1.216              0.621
 Vibration    17          0.881              1.193              0.596
 Vibration    18          0.889              1.174              0.578
 Vibration    19          0.933              1.081              0.491
 Vibration    20          0.946              1.056              0.469

                           ! Non-Optimized Parameters !
 Normal termination of Gaussian 16 at Wed Dec  9 23:42:43 2020.

 ----------------------------------------------------------------------
 # B3LYP/6-311++G(d,p) empiricaldispersion=gd3bj scf=xqc pop=npa geom=c
 heck
 ----------------------------------------------------------------------

 --------------------------------------
 CID_59085581_JID_3783_Energie_neutraal
 --------------------------------------
 Structure from the checkpoint file:  "JID_3783.chk"
 Charge =  0 Multiplicity = 1

 SCF Done:  E(RB3LYP) =  -594.326061441     A.U. after   15 cycles
 Normal termination of Gaussian 16 at Wed Dec  9 23:44:57 2020.

 ----------------------------------------------------------------------
 # B3LYP/6-311++G(d,p) empiricaldispersion=gd3bj scf=xqc pop=npa geom=c
 heck
 ----------------------------------------------------------------------

 ------------------------------------
 CID_59085581_JID_3783_Energie_kation
 ------------------------------------
 Structure from the checkpoint file:  "JID_3783.chk"
 Charge =  1 Multiplicity = 2

 SCF Done:  E(UB3LYP) =  -594.030822765     A.U. after   22 cycles
 Normal termination of Gaussian 16 at Wed Dec  9 23:49:19 2020.
 Gaussian 16:  ES64L-G16RevA.03 25-Dec-2016

 ----------------------------------------------------------------------
 # B3LYP/6-311++G(d,p) empiricaldispersion=gd3bj scf=xqc pop=npa geom=c
 heck
 ----------------------------------------------------------------------

 -----------------------------------
 CID_59085581_JID_3783_Energie_anion
 -----------------------------------
 Structure from the checkpoint file:  "JID_3783.chk"
 Charge = -1 Multiplicity = 2

                         Standard orientation:
 ---------------------------------------------------------------------
 Center     Atomic      Atomic             Coordinates (Angstroms)
 Number     Number       Type             X           Y           Z
 ---------------------------------------------------------------------
      1          6           0       -3.935878    0.155540    0.590031
      2          6           0       -2.487458    0.053457    0.192193
      3          6           0       -1.906142   -1.147908   -0.105698
      4          6           0       -0.517745   -1.268424   -0.468008
      5          8           0        0.071350   -2.328196   -0.696178
      6          7           0        0.192456   -0.034336   -0.542226
      7          6           0       -0.380647    1.182288   -0.238063
      8          6           0       -1.697341    1.238632    0.127588
      9          6           0        0.470956    2.417265   -0.333476
     10          6           0        1.604123   -0.132017   -0.910659
     11          6           0        2.558759   -0.088527    0.286938
     12          8           0        3.612590    0.510988    0.201907
     13          6           0        2.129370   -0.846498    1.522592
     14          1           0       -4.420366   -0.824251    0.598560
     15          1           0       -4.484388    0.805044   -0.103107
     16          1           0       -4.034749    0.597544    1.589097
     17          1           0       -2.461343   -2.078299   -0.063658
     18          1           0       -2.136843    2.201246    0.363699
     19          1           0        1.386541    2.339256    0.262182
     20          1           0        0.778389    2.613922   -1.367863
     21          1           0       -0.096161    3.281261    0.018742
     22          1           0        1.717064   -1.110836   -1.387794
     23          1           0        1.883148    0.651071   -1.615453
     24          1           0        1.292155   -0.327246    2.005722
     25          1           0        1.765769   -1.842058    1.246538
     26          1           0        2.964089   -0.911476    2.222453
 ---------------------------------------------------------------------

 SCF Done:  E(UB3LYP) =  -594.320831286     A.U. after   33 cycles
 SCF Done:  E(UB3LYP) =  -594.320831286     a.u. after    1 cycles

 The electronic state is 2-A.
 Alpha  occ. eigenvalues --  -18.99819 -18.94831 -14.23482 -10.14204 -10.13276
 Alpha  occ. eigenvalues --  -10.09371 -10.09275 -10.06245 -10.05818 -10.05387
 Alpha  occ. eigenvalues --  -10.05234 -10.03836 -10.02684  -0.93308  -0.90580
 Alpha  occ. eigenvalues --   -0.83174  -0.70695  -0.66145  -0.64305  -0.61102
 Alpha  occ. eigenvalues --   -0.57559  -0.56998  -0.49738  -0.46533  -0.42849
 Alpha  occ. eigenvalues --   -0.39577  -0.39209  -0.36364  -0.34040  -0.32988
 Alpha  occ. eigenvalues --   -0.32062  -0.31844  -0.30612  -0.30299  -0.29878
 Alpha  occ. eigenvalues --   -0.29088  -0.28696  -0.28120  -0.27439  -0.27191
 Alpha  occ. eigenvalues --   -0.25180  -0.24056  -0.22815  -0.20315  -0.16660
 Alpha  occ. eigenvalues --   -0.13629  -0.13028  -0.08902   0.04975
 Alpha virt. eigenvalues --    0.07274   0.07903   0.08287   0.09125   0.09534
 Alpha virt. eigenvalues --    0.10734   0.10875   0.11496   0.12002   0.12889
 Alpha virt. eigenvalues --    0.12996   0.13751   0.13926   0.14852   0.15117

  Beta  occ. eigenvalues --  -18.99719 -18.94767 -14.23328 -10.14057 -10.13243
  Beta  occ. eigenvalues --  -10.09288 -10.09124 -10.06246 -10.05822 -10.05392
  Beta  occ. eigenvalues --  -10.04941 -10.03915 -10.02602  -0.93097  -0.90420
  Beta  occ. eigenvalues --   -0.82904  -0.70354  -0.65832  -0.64126  -0.60999
  Beta  occ. eigenvalues --   -0.57383  -0.56938  -0.49607  -0.46121  -0.42572
  Beta  occ. eigenvalues --   -0.39444  -0.39042  -0.36121  -0.33808  -0.32815
  Beta  occ. eigenvalues --   -0.31863  -0.31502  -0.30324  -0.30158  -0.29796
  Beta  occ. eigenvalues --   -0.29008  -0.28614  -0.27901  -0.27228  -0.27086
  Beta  occ. eigenvalues --   -0.24986  -0.23664  -0.22688  -0.19708  -0.15920
  Beta  occ. eigenvalues --   -0.13188  -0.12890  -0.08250
  Beta virt. eigenvalues --    0.07532   0.08429   0.08983   0.09200   0.09894
  Beta virt. eigenvalues --    0.10041   0.10835   0.11271   0.11559   0.12288
  Beta virt. eigenvalues --    0.13083   0.13103   0.13933   0.14003   0.14792

 Mulliken charges and spin densities:
               1          2
     1  C    0.808517  -1.342605
     2  C    0.953759  -0.137034
     3  C   -0.193079  -0.775921
     4  C   -0.156912   0.181409
     5  O   -0.389439   0.015835
     6  N    0.157999   0.127161
     7  C   -1.519036   1.984119
     8  C   -0.750196   0.458049
     9  C    0.960274  -1.757484
    10  C   -0.227823   0.029191
    11  C   -0.032150   0.151553
    12  O   -0.295272   0.036917
    13  C   -0.253985  -0.185251
    14  H    0.018805   0.118073
    15  H    0.072869   0.066171
    16  H   -0.285612   0.448429
    17  H    0.089944   0.037105
    18  H   -0.260296   0.416021
    19  H    0.126644   0.037264
    20  H   -0.136094   0.308318
    21  H   -0.376702   0.537325
    22  H    0.237388   0.001337
    23  H    0.135682   0.044039
    24  H    0.016324   0.164654
    25  H    0.170039   0.007384
    26  H    0.128353   0.027938
 Sum of Mulliken charges =  -1.00000   1.00000

 Dipole moment (field-independent basis, Debye):
    X=              0.7070    Y=             -1.0044    Z=             -1.1611  Tot=              1.6902
 Quadrupole moment (field-independent basis, Debye-Ang):
   XX=           -127.2326   YY=           -115.8722   ZZ=            -98.2903
   XY=             -1.1901   XZ=              6.6279   YZ=             -3.4582

 Summary of Natural Population Analysis:

                                       Natural Population
                Natural  -----------------------------------------------
    Atom  No    Charge         Core      Valence    Rydberg      Total
 -----------------------------------------------------------------------
      C    1   -0.29555      0.99964     2.29043    0.00549     3.29555
      C    2    0.05947      0.99952     1.93213    0.00888     2.94053
      C    3   -0.15119      0.99946     2.14178    0.00995     3.15119
      C    4    0.32033      0.99960     1.65735    0.02272     2.67967
      O    5   -0.34771      0.99988     3.34254    0.00528     4.34771
      N    6   -0.21550      0.99961     2.70638    0.00951     3.71550
      C    7    0.16914      0.99951     1.82074    0.01060     2.83086
      C    8   -0.16935      0.99947     2.15982    0.01006     3.16935
      C    9   -0.30595      0.99963     2.30089    0.00543     3.30595
      C   10   -0.14092      0.99956     2.13021    0.01115     3.14092
      C   11    0.30491      0.99969     1.67381    0.02158     2.69509
      O   12   -0.28703      0.99987     3.28052    0.00664     4.28703
      C   13   -0.34539      0.99961     2.34087    0.00491     3.34539
      H   14    0.09836      0.00000     0.40088    0.00076     0.40164
      H   15    0.10081      0.00000     0.39830    0.00088     0.39919
      H   16    0.10707      0.00000     0.39047    0.00246     0.39293
      H   17    0.09866      0.00000     0.40032    0.00101     0.40134
      H   18    0.10002      0.00000     0.39904    0.00094     0.39998
      H   19    0.10818      0.00000     0.39062    0.00120     0.39182
      H   20    0.10728      0.00000     0.39104    0.00169     0.39272
      H   21    0.10705      0.00000     0.39211    0.00084     0.39295
      H   22    0.12937      0.00000     0.36942    0.00121     0.37063
      H   23    0.10538      0.00000     0.39348    0.00114     0.39462
      H   24    0.11842      0.00000     0.38024    0.00134     0.38158
      H   25    0.12012      0.00000     0.37893    0.00096     0.37988
      H   26    0.10401      0.00000     0.39506    0.00093     0.39599
 =======================================================================
   * Total *   -0.00000     12.99506    34.85737    0.14757    48.00000

 Normal termination of Gaussian 16 at Wed Dec  9 23:55:56 2020.
