 Gaussian 16, Revision A.03,

 -----------------------------------------------------------
 # opt freq B3LYP/6-31G(d) empiricaldispersion=gd3bj scf=xqc
 -----------------------------------------------------------

 ------------------------------
 CID_56637123_JID_1685_neutraal
 ------------------------------
 Symbolic Z-matrix:
 Charge =  0 Multiplicity = 1

 SCF Done:  E(RB3LYP) =  -1181.07851722     A.U. after   15 cycles
 SCF Done:  E(RB3LYP) =  -1181.08560004     A.U. after   13 cycles
 SCF Done:  E(RB3LYP) =  -1181.09004659     A.U. after   13 cycles
 SCF Done:  E(RB3LYP) =  -1181.09510695     A.U. after   15 cycles
 SCF Done:  E(RB3LYP) =  -1181.09703504     A.U. after   13 cycles
 SCF Done:  E(RB3LYP) =  -1181.09924361     A.U. after   12 cycles
 SCF Done:  E(RB3LYP) =  -1181.09927568     A.U. after   13 cycles
 SCF Done:  E(RB3LYP) =  -1181.10032833     A.U. after   12 cycles
 SCF Done:  E(RB3LYP) =  -1181.10070650     A.U. after   12 cycles
 SCF Done:  E(RB3LYP) =  -1181.10078522     A.U. after   10 cycles
 SCF Done:  E(RB3LYP) =  -1181.10112503     A.U. after   12 cycles
 SCF Done:  E(RB3LYP) =  -1181.10115283     A.U. after   11 cycles
 SCF Done:  E(RB3LYP) =  -1181.10115066     A.U. after   11 cycles
 SCF Done:  E(RB3LYP) =  -1181.10115934     A.U. after   11 cycles
 SCF Done:  E(RB3LYP) =  -1181.10115937     A.U. after    8 cycles
 SCF Done:  E(RB3LYP) =  -1181.10115942     A.U. after    7 cycles
 Optimization completed.
    -- Stationary point found.
 Normal termination of Gaussian 16 at Tue Dec  8 21:05:24 2020.

 --------------------------------------------------------------------
 #N Geom=AllCheck Guess=TCheck SCRF=Check GenChk RB3LYP/6-31G(d) Freq
 --------------------------------------------------------------------

 Structure from the checkpoint file:  "JID_1685.chk"
 ------------------------------
 CID_56637123_JID_1685_neutraal
 ------------------------------
 Charge =  0 Multiplicity = 1

 SCF Done:  E(RB3LYP) =  -1181.10115942     A.U. after    1 cycles

  Exact polarizability: 159.417  -1.649 129.525 -10.843   3.479  87.230
 Approx polarizability: 206.936 -12.892 220.861 -27.523  13.852 139.340

                      1                      2                      3
                      A                      A                      A
 Frequencies --     27.3318                51.8776                80.3818
 Red. masses --      4.0015                 5.6850                 3.9152
 Frc consts  --      0.0018                 0.0090                 0.0149
 IR Inten    --      0.2784                 0.2651                 4.7764

                      4                      5                      6
                      A                      A                      A
 Frequencies --    153.2437               172.9999               182.5843
 Red. masses --      2.7235                 2.7326                 1.0630
 Frc consts  --      0.0377                 0.0482                 0.0209
 IR Inten    --      0.4245                 1.0775                 0.0468

                      7                      8                      9
                      A                      A                      A
 Frequencies --    241.4714               258.4599               300.0363
 Red. masses --      2.2387                 1.3831                 4.2845
 Frc consts  --      0.0769                 0.0544                 0.2272
 IR Inten    --      3.4806                 3.0846                 2.2564

                     10                     11                     12
                      A                      A                      A
 Frequencies --    314.7775               347.7434               350.3172
 Red. masses --      5.7154                 2.0057                 2.3239
 Frc consts  --      0.3337                 0.1429                 0.1680
 IR Inten    --      0.4985                 0.4808                10.3860

                     13                     14                     15
                      A                      A                      A
 Frequencies --    405.5025               439.3825               449.4512
 Red. masses --      5.9571                 3.2422                 2.1814
 Frc consts  --      0.5771                 0.3688                 0.2596
 IR Inten    --      6.0132                 8.4967                 0.2546

                     16                     17                     18
                      A                      A                      A
 Frequencies --    492.2076               545.6816               560.1680
 Red. masses --      2.8198                 5.2864                 6.9017
 Frc consts  --      0.4025                 0.9275                 1.2760
 IR Inten    --      2.1325                 6.1364                 2.0476

                     19                     20                     21
                      A                      A                      A
 Frequencies --    636.9142               729.3394               786.5819
 Red. masses --      2.1579                 6.1799                 3.3038
 Frc consts  --      0.5158                 1.9368                 1.2043
 IR Inten    --      5.6795                 1.1574                 6.2988

                     22                     23                     24
                      A                      A                      A
 Frequencies --    854.7086               863.4392               935.7495
 Red. masses --      1.9979                 2.6015                 2.3956
 Frc consts  --      0.8599                 1.1427                 1.2359
 IR Inten    --      4.5337                 7.2135                10.9291

                     25                     26                     27
                      A                      A                      A
 Frequencies --    999.1023              1000.4315              1010.3162
 Red. masses --      1.6714                 1.1935                 2.3862
 Frc consts  --      0.9830                 0.7038                 1.4351
 IR Inten    --     48.8736                 3.6610                36.1810

                     28                     29                     30
                      A                      A                      A
 Frequencies --   1021.5333              1051.7639              1083.1399
 Red. masses --      2.4500                 2.4786                 1.7375
 Frc consts  --      1.5063                 1.6155                 1.2010
 IR Inten    --     56.7686                48.7811                 3.8078

                     31                     32                     33
                      A                      A                      A
 Frequencies --   1097.8188              1115.4983              1179.5565
 Red. masses --      1.7820                 1.7641                 1.7023
 Frc consts  --      1.2653                 1.2933                 1.3955
 IR Inten    --      2.3742                 2.2759                45.6487

                     34                     35                     36
                      A                      A                      A
 Frequencies --   1183.7086              1191.9990              1235.6916
 Red. masses --      2.7367                 2.5642                 1.1177
 Frc consts  --      2.2593                 2.1466                 1.0056
 IR Inten    --     28.9099                49.7971                 1.0396

                     37                     38                     39
                      A                      A                      A
 Frequencies --   1268.0263              1287.6087              1336.0419
 Red. masses --      1.5885                 2.3711                 1.6244
 Frc consts  --      1.5049                 2.3162                 1.7084
 IR Inten    --    149.8434                48.0192                56.3234

                     40                     41                     42
                      A                      A                      A
 Frequencies --   1338.8125              1374.1958              1386.7195
 Red. masses --      1.3799                 1.2571                 1.1671
 Frc consts  --      1.4572                 1.3987                 1.3223
 IR Inten    --     42.0717                 0.1422                 1.6641

                     43                     44                     45
                      A                      A                      A
 Frequencies --   1402.8317              1410.9028              1431.5643
 Red. masses --      1.3686                 1.3483                 1.5097
 Frc consts  --      1.5869                 1.5813                 1.8229
 IR Inten    --      2.7528                18.9593                18.2847

                     46                     47                     48
                      A                      A                      A
 Frequencies --   1478.3342              1481.0455              1485.1408
 Red. masses --      2.0368                 1.0549                 1.1911
 Frc consts  --      2.6227                 1.3633                 1.5478
 IR Inten    --    212.7335                12.4794                 0.7245

                     49                     50                     51
                      A                      A                      A
 Frequencies --   1497.5522              1505.9207              1515.4176
 Red. masses --      1.0506                 1.1184                 1.0852
 Frc consts  --      1.3882                 1.4944                 1.4684
 IR Inten    --     22.9411                19.3139                 0.6516

                     52                     53                     54
                      A                      A                      A
 Frequencies --   1516.0967              1532.8575              1536.6209
 Red. masses --      1.0511                 1.2836                 1.0517
 Frc consts  --      1.4235                 1.7769                 1.4631
 IR Inten    --     13.1939                72.1926                 4.0210

                     55                     56                     57
                      A                      A                      A
 Frequencies --   1537.0428              2933.6023              2941.8531
 Red. masses --      1.1357                 1.0722                 1.0687
 Frc consts  --      1.5808                 5.4366                 5.4495
 IR Inten    --      8.1243                28.5430                20.8246

                     58                     59                     60
                      A                      A                      A
 Frequencies --   2953.2071              3063.0931              3067.8128
 Red. masses --      1.0641                 1.0705                 1.0715
 Frc consts  --      5.4680                 5.9179                 5.9418
 IR Inten    --    123.2005                 4.6929                42.7357

                     61                     62                     63
                      A                      A                      A
 Frequencies --   3077.7831              3080.1841              3083.2462
 Red. masses --      1.0314                 1.0741                 1.0869
 Frc consts  --      5.7563                 6.0041                 6.0880
 IR Inten    --     16.6873                15.7127                53.4433

                     64                     65                     66
                      A                      A                      A
 Frequencies --   3087.1028              3124.7121              3169.2407
 Red. masses --      1.0879                 1.1042                 1.1020
 Frc consts  --      6.1089                 6.3522                 6.5215
 IR Inten    --     69.1903                27.6742                 4.0194

                     67                     68                     69
                      A                      A                      A
 Frequencies --   3173.4381              3181.1784              3191.3372
 Red. masses --      1.0944                 1.0951                 1.1085
 Frc consts  --      6.4935                 6.5297                 6.6519
 IR Inten    --      8.7007                 6.0772                 1.5881

 - Thermochemistry -
 -------------------
 Temperature   298.150 Kelvin.  Pressure   1.00000 Atm.
 Atom     1 has atomic number  6 and mass  12.00000

 Molecular mass:   190.05984 amu.
 Principal axes and moments of inertia in atomic units:
                           1         2         3
     Eigenvalues --  1131.461923675.902064377.78540
           X            0.99997   0.00695   0.00423
           Y           -0.00690   0.99992  -0.01079
           Z           -0.00431   0.01076   0.99993
 This molecule is an asymmetric top.
 Rotational symmetry number  1.
 Warning -- assumption of classical behavior for rotation
           may cause significant error
 Rotational temperatures (Kelvin)      0.07655     0.02356     0.01978
 Rotational constants (GHZ):           1.59505     0.49097     0.41225
 Zero-point vibrational energy     561057.2 (Joules/Mol)
                                  134.09588 (Kcal/Mol)
 Warning -- explicit consideration of  18 degrees of freedom as
           vibrations may cause significant error
 Vibrational temperatures:     39.32    74.64   115.65   220.48   248.91
          (Kelvin)            262.70   347.42   371.87   431.69   452.89
                              500.33   504.03   583.43   632.17   646.66
                              708.18   785.11   805.96   916.38  1049.36
                             1131.72  1229.74  1242.30  1346.33  1437.49
                             1439.40  1453.62  1469.76  1513.25  1558.40
                             1579.52  1604.95  1697.12  1703.09  1715.02
                             1777.88  1824.41  1852.58  1922.27  1926.25
                             1977.16  1995.18  2018.36  2029.97  2059.70
                             2126.99  2130.89  2136.79  2154.64  2166.68
                             2180.35  2181.32  2205.44  2210.85  2211.46
                             4220.80  4232.67  4249.01  4407.11  4413.90
                             4428.24  4431.70  4436.10  4441.65  4495.76
                             4559.83  4565.87  4577.01  4591.62

 Zero-point correction=                           0.213695 (Hartree/Particle)
 Thermal correction to Energy=                    0.225755
 Thermal correction to Enthalpy=                  0.226699
 Thermal correction to Gibbs Free Energy=         0.174338
 Sum of electronic and zero-point Energies=          -1180.887464
 Sum of electronic and thermal Energies=             -1180.875404
 Sum of electronic and thermal Enthalpies=           -1180.874460
 Sum of electronic and thermal Free Energies=        -1180.926822

                     E (Thermal)             CV                S
                      KCal/Mol        Cal/Mol-Kelvin    Cal/Mol-Kelvin
 Total                  141.663             44.541            110.204
 Electronic               0.000              0.000              0.000
 Translational            0.889              2.981             41.632
 Rotational               0.889              2.981             31.277
 Vibrational            139.886             38.580             37.295
 Vibration     1          0.593              1.984              6.014
 Vibration     2          0.596              1.977              4.744
 Vibration     3          0.600              1.962              3.882
 Vibration     4          0.619              1.899              2.632
 Vibration     5          0.627              1.876              2.403
 Vibration     6          0.630              1.863              2.302
 Vibration     7          0.658              1.777              1.792
 Vibration     8          0.667              1.748              1.672
 Vibration     9          0.693              1.674              1.417
 Vibration    10          0.702              1.645              1.337
 Vibration    11          0.725              1.580              1.176
 Vibration    12          0.727              1.575              1.165
 Vibration    13          0.770              1.458              0.943
 Vibration    14          0.799              1.384              0.829
 Vibration    15          0.808              1.362              0.797
 Vibration    16          0.848              1.267              0.678
 Vibration    17          0.901              1.149              0.553
 Vibration    18          0.916              1.117              0.523

 Optimization completed.
    -- Stationary point found.
 Normal termination of Gaussian 16 at Tue Dec  8 21:11:54 2020.

 ----------------------------------------------------------------------
 # B3LYP/6-311++G(d,p) empiricaldispersion=gd3bj scf=xqc pop=npa geom=c
 heck
 ----------------------------------------------------------------------

 --------------------------------------
 CID_56637123_JID_1685_Energie_neutraal
 --------------------------------------
 Structure from the checkpoint file:  "JID_1685.chk"
 Charge =  0 Multiplicity = 1

 SCF Done:  E(RB3LYP) =  -1181.25961140     A.U. after   14 cycles
 Normal termination of Gaussian 16 at Tue Dec  8 21:15:32 2020.

 ----------------------------------------------------------------------
 # B3LYP/6-311++G(d,p) empiricaldispersion=gd3bj scf=xqc pop=npa geom=c
 heck
 ----------------------------------------------------------------------

 ------------------------------------
 CID_56637123_JID_1685_Energie_kation
 ------------------------------------
 Structure from the checkpoint file:  "JID_1685.chk"
 Charge =  1 Multiplicity = 2

 SCF Done:  E(UB3LYP) =  -1180.97534250     A.U. after   28 cycles
 Normal termination of Gaussian 16 at Tue Dec  8 21:23:32 2020.
 Gaussian 16:  ES64L-G16RevA.03 25-Dec-2016

 ----------------------------------------------------------------------
 # B3LYP/6-311++G(d,p) empiricaldispersion=gd3bj scf=xqc pop=npa geom=c
 heck
 ----------------------------------------------------------------------

 -----------------------------------
 CID_56637123_JID_1685_Energie_anion
 -----------------------------------
 Structure from the checkpoint file:  "JID_1685.chk"
 Charge = -1 Multiplicity = 2

                         Standard orientation:
 ---------------------------------------------------------------------
 Center     Atomic      Atomic             Coordinates (Angstroms)
 Number     Number       Type             X           Y           Z
 ---------------------------------------------------------------------
      1          6           0        3.964554   -0.322560    0.882330
      2          7           0        2.834815   -0.158870   -0.018855
      3          6           0        2.143709    1.109534    0.206281
      4          6           0        1.007615    1.288415   -0.798807
      5          7           0        0.080237    0.157393   -0.694728
      6          6           0        0.771162   -1.112554   -0.936271
      7          6           0        1.906398   -1.280424    0.074351
      8          6           0       -1.168920    0.291982   -0.190665
      9         16           0       -1.872904    1.750257    0.229538
     10         16           0       -2.043363   -1.271261   -0.013803
     11          6           0       -3.666674   -0.738338    0.602608
     12          1           0        4.665084    0.507942    0.746057
     13          1           0        3.668531   -0.351687    1.948662
     14          1           0        4.489434   -1.254910    0.648467
     15          1           0        1.727138    1.178102    1.230117
     16          1           0        2.864332    1.926211    0.084887
     17          1           0        1.411511    1.298657   -1.818076
     18          1           0        0.458491    2.209565   -0.615584
     19          1           0        1.185133   -1.081433   -1.950923
     20          1           0        0.078297   -1.950122   -0.878945
     21          1           0        2.450235   -2.206710   -0.144156
     22          1           0        1.468690   -1.377903    1.087676
     23          1           0       -3.565232   -0.223642    1.558460
     24          1           0       -4.155324   -0.080969   -0.117114
     25          1           0       -4.238480   -1.663031    0.724833
 ---------------------------------------------------------------------

 SCF Done:  E(UB3LYP) =  -1181.24975016     A.U. after   29 cycles

 The electronic state is 2-A.
 Alpha  occ. eigenvalues --  -88.74700 -88.66956 -14.23956 -14.20210 -10.13826
 Alpha  occ. eigenvalues --  -10.10330 -10.09403 -10.09244 -10.08928 -10.08732
 Alpha  occ. eigenvalues --  -10.07790  -7.83308  -7.75731  -5.79686  -5.79294
 Alpha  occ. eigenvalues --   -5.78739  -5.72114  -5.71578  -5.71292  -0.86731
 Alpha  occ. eigenvalues --   -0.81621  -0.70279  -0.66979  -0.64611  -0.59844
 Alpha  occ. eigenvalues --   -0.56403  -0.54298  -0.52864  -0.48543  -0.43052
 Alpha  occ. eigenvalues --   -0.38126  -0.37019  -0.36445  -0.36064  -0.34749
 Alpha  occ. eigenvalues --   -0.33936  -0.32825  -0.30509  -0.30351  -0.28249
 Alpha  occ. eigenvalues --   -0.27945  -0.26372  -0.25428  -0.25162  -0.24584
 Alpha  occ. eigenvalues --   -0.22842  -0.20637  -0.13411  -0.11924  -0.10517
 Alpha  occ. eigenvalues --   -0.09353   0.04700
 Alpha virt. eigenvalues --    0.07425   0.07478   0.08107   0.08656   0.09921
 Alpha virt. eigenvalues --    0.10404   0.10903   0.11474   0.11960   0.12213
 Alpha virt. eigenvalues --    0.12526   0.13259   0.14191   0.14605   0.14792

  Beta  occ. eigenvalues --  -88.74697 -88.66937 -14.23907 -14.20204 -10.13373
  Beta  occ. eigenvalues --  -10.10328 -10.09402 -10.09245 -10.08892 -10.08704
  Beta  occ. eigenvalues --  -10.07743  -7.83305  -7.75713  -5.79692  -5.79301
  Beta  occ. eigenvalues --   -5.78716  -5.72119  -5.71501  -5.71282  -0.86538
  Beta  occ. eigenvalues --   -0.81538  -0.70051  -0.66922  -0.64448  -0.59658
  Beta  occ. eigenvalues --   -0.56324  -0.54214  -0.52813  -0.48423  -0.42924
  Beta  occ. eigenvalues --   -0.37970  -0.36940  -0.36397  -0.35954  -0.34624
  Beta  occ. eigenvalues --   -0.33803  -0.32785  -0.30477  -0.30105  -0.28105
  Beta  occ. eigenvalues --   -0.27786  -0.26328  -0.25347  -0.24999  -0.24495
  Beta  occ. eigenvalues --   -0.21885  -0.20473  -0.13199  -0.11832  -0.10075
  Beta  occ. eigenvalues --   -0.09298
  Beta virt. eigenvalues --    0.07266   0.07721   0.08777   0.09134   0.09852
  Beta virt. eigenvalues --    0.10362   0.10539   0.11414   0.11754   0.12219
  Beta virt. eigenvalues --    0.12460   0.12695   0.13455   0.14295   0.14777

 Mulliken charges and spin densities:
               1          2
     1  C    0.998659  -1.243021
     2  N   -0.206514   0.301397
     3  C    0.105797  -0.430647
     4  C   -0.088829  -0.158601
     5  N    0.457912   0.066747
     6  C   -0.349493  -0.096437
     7  C    0.503239  -0.791143
     8  C   -0.122022   0.104880
     9  S   -0.648916   0.094910
    10  S   -0.120611   0.089404
    11  C   -0.301315  -0.070458
    12  H   -0.470771   0.600215
    13  H   -0.109861   0.218396
    14  H   -0.524098   0.658387
    15  H    0.029401   0.096817
    16  H   -0.192104   0.369228
    17  H    0.006222   0.151052
    18  H    0.111797  -0.018833
    19  H    0.004476   0.161135
    20  H   -0.055783   0.159476
    21  H   -0.425404   0.614213
    22  H    0.046501   0.068053
    23  H    0.123938   0.025947
    24  H    0.159093  -0.002358
    25  H    0.068686   0.031241
 Sum of Mulliken charges =  -1.00000   1.00000

 Dipole moment (field-independent basis, Debye):
    X=             -6.3272    Y=             -0.5711    Z=             -0.9465  Tot=              6.4231
 Quadrupole moment (field-independent basis, Debye-Ang):
   XX=           -151.6775   YY=           -120.3075   ZZ=           -105.4475
   XY=             12.7598   XZ=             -2.6270   YZ=             -1.5198

 Summary of Natural Population Analysis:

                                       Natural Population
                Natural  -----------------------------------------------
    Atom  No    Charge         Core      Valence    Rydberg      Total
 -----------------------------------------------------------------------
      C    1   -0.17509      0.99964     2.16661    0.00883     3.17509
      N    2   -0.28209      0.99972     2.76811    0.01426     3.78209
      C    3   -0.08928      0.99960     2.07850    0.01118     3.08928
      C    4   -0.09116      0.99960     2.08062    0.01094     3.09116
      N    5   -0.24795      0.99960     2.73466    0.01369     3.74795
      C    6   -0.08808      0.99960     2.07727    0.01121     3.08808
      C    7   -0.08966      0.99960     2.07771    0.01235     3.08966
      C    8    0.04664      0.99962     1.93452    0.01921     2.95336
      S    9   -0.12604      4.99952     3.11184    0.01468     8.12604
      S   10    0.10833      4.99948     2.87145    0.02074     7.89167
      C   11   -0.35078      0.99962     2.34437    0.00679     3.35078
      H   12    0.09693      0.00000     0.40116    0.00191     0.40307
      H   13    0.07964      0.00000     0.41880    0.00156     0.42036
      H   14    0.09856      0.00000     0.39925    0.00218     0.40144
      H   15    0.08513      0.00000     0.41339    0.00147     0.41487
      H   16    0.10009      0.00000     0.39839    0.00152     0.39991
      H   17    0.09468      0.00000     0.40392    0.00141     0.40532
      H   18    0.11981      0.00000     0.37886    0.00133     0.38019
      H   19    0.09825      0.00000     0.40000    0.00175     0.40175
      H   20    0.10668      0.00000     0.39103    0.00229     0.39332
      H   21    0.10262      0.00000     0.39468    0.00269     0.39738
      H   22    0.08300      0.00000     0.41516    0.00184     0.41700
      H   23    0.11094      0.00000     0.38725    0.00181     0.38906
      H   24    0.10953      0.00000     0.38918    0.00129     0.39047
      H   25    0.09928      0.00000     0.39942    0.00130     0.40072
 =======================================================================
   * Total *   -0.00000     18.99561    31.83615    0.16824    51.00000

 Normal termination of Gaussian 16 at Tue Dec  8 21:32:25 2020.
