 Gaussian 16, Revision A.03,

 -----------------------------------------------------------
 # opt freq B3LYP/6-31G(d) empiricaldispersion=gd3bj scf=xqc
 -----------------------------------------------------------

 -------------------------------
 CID_135170528_JID_6826_neutraal
 -------------------------------
 Symbolic Z-matrix:
 Charge =  0 Multiplicity = 1

 SCF Done:  E(RB3LYP) =  -747.972491172     A.U. after   15 cycles
 SCF Done:  E(RB3LYP) =  -747.980455413     A.U. after   12 cycles
 SCF Done:  E(RB3LYP) =  -747.982126949     A.U. after   12 cycles
 SCF Done:  E(RB3LYP) =  -747.982783786     A.U. after   12 cycles
 SCF Done:  E(RB3LYP) =  -747.983873718     A.U. after   12 cycles
 SCF Done:  E(RB3LYP) =  -747.984146544     A.U. after   11 cycles
 SCF Done:  E(RB3LYP) =  -747.984230526     A.U. after   11 cycles
 SCF Done:  E(RB3LYP) =  -747.984290725     A.U. after   10 cycles
 SCF Done:  E(RB3LYP) =  -747.984314383     A.U. after   10 cycles
 SCF Done:  E(RB3LYP) =  -747.984337841     A.U. after   10 cycles
 SCF Done:  E(RB3LYP) =  -747.984375769     A.U. after   10 cycles
 SCF Done:  E(RB3LYP) =  -747.984377755     A.U. after    9 cycles
 SCF Done:  E(RB3LYP) =  -747.984378200     A.U. after    9 cycles
 SCF Done:  E(RB3LYP) =  -747.984378296     A.U. after    8 cycles
 SCF Done:  E(RB3LYP) =  -747.984378304     A.U. after    6 cycles
 Optimization completed.
    -- Stationary point found.
 Normal termination of Gaussian 16 at Fri Dec 11 00:50:57 2020.

 --------------------------------------------------------------------
 #N Geom=AllCheck Guess=TCheck SCRF=Check GenChk RB3LYP/6-31G(d) Freq
 --------------------------------------------------------------------

 Structure from the checkpoint file:  "JID_6826.chk"
 -------------------------------
 CID_135170528_JID_6826_neutraal
 -------------------------------
 Charge =  0 Multiplicity = 1

 SCF Done:  E(RB3LYP) =  -747.984378304     A.U. after    1 cycles

  Exact polarizability: 150.672  -7.494 143.528  13.162  -2.608 109.553
 Approx polarizability: 209.304 -27.356 200.811  32.731 -13.644 178.465

                      1                      2                      3
                      A                      A                      A
 Frequencies --     22.6248                32.9274                49.6479
 Red. masses --      4.4189                 2.6571                 4.6975
 Frc consts  --      0.0013                 0.0017                 0.0068
 IR Inten    --      0.4573                 0.0058                 0.3897

                      4                      5                      6
                      A                      A                      A
 Frequencies --     80.8280                86.4129               100.9413
 Red. masses --      3.0035                 4.0022                 4.3569
 Frc consts  --      0.0116                 0.0176                 0.0262
 IR Inten    --      2.4033                 0.1168                 1.7434

                      7                      8                      9
                      A                      A                      A
 Frequencies --    137.9516               138.6877               167.1425
 Red. masses --      1.5924                 2.1383                 4.5414
 Frc consts  --      0.0179                 0.0242                 0.0748
 IR Inten    --      0.0281                 0.8248                 2.1405

                     10                     11                     12
                      A                      A                      A
 Frequencies --    177.6343               213.0138               241.3080
 Red. masses --      2.8044                 4.2730                 1.7297
 Frc consts  --      0.0521                 0.1142                 0.0593
 IR Inten    --      4.1582                 3.3089                 0.2846

                     13                     14                     15
                      A                      A                      A
 Frequencies --    246.5646               264.1045               289.7910
 Red. masses --      1.7757                 1.4624                 2.3356
 Frc consts  --      0.0636                 0.0601                 0.1156
 IR Inten    --      0.5202                 0.6215                 2.0581

                     16                     17                     18
                      A                      A                      A
 Frequencies --    300.3771               310.1367               381.6827
 Red. masses --      3.1052                 2.2419                 4.1147
 Frc consts  --      0.1651                 0.1270                 0.3532
 IR Inten    --      2.8851                 1.0095                10.0675

                     19                     20                     21
                      A                      A                      A
 Frequencies --    410.1541               453.0344               474.9766
 Red. masses --      2.9811                 4.4739                 6.7278
 Frc consts  --      0.2955                 0.5410                 0.8943
 IR Inten    --      1.0969                 6.8262                20.7969

                     22                     23                     24
                      A                      A                      A
 Frequencies --    500.0442               570.8519               636.9004
 Red. masses --      3.7111                 3.6969                 3.2763
 Frc consts  --      0.5467                 0.7098                 0.7830
 IR Inten    --      3.2186                 0.3732                 5.4464

                     25                     26                     27
                      A                      A                      A
 Frequencies --    688.2201               720.7913               739.3074
 Red. masses --      4.6205                 4.4860                 3.9245
 Frc consts  --      1.2894                 1.3732                 1.2638
 IR Inten    --      3.1913                 3.5393                 5.9019

                     28                     29                     30
                      A                      A                      A
 Frequencies --    743.6312               791.9150               806.0932
 Red. masses --      3.0511                 6.5199                 1.1536
 Frc consts  --      0.9941                 2.4091                 0.4416
 IR Inten    --      6.1940                10.9743                 1.4807

                     31                     32                     33
                      A                      A                      A
 Frequencies --    828.8936               839.8204               870.5734
 Red. masses --      3.5507                 1.9197                 1.8058
 Frc consts  --      1.4374                 0.7977                 0.8063
 IR Inten    --      3.1650                 5.9980                 6.2637

                     34                     35                     36
                      A                      A                      A
 Frequencies --    896.6173               925.2087               931.1815
 Red. masses --      2.3287                 3.1243                 2.4924
 Frc consts  --      1.1030                 1.5757                 1.2733
 IR Inten    --     20.4664                54.6647                 3.0600

                     37                     38                     39
                      A                      A                      A
 Frequencies --    943.9851               956.7813               983.6984
 Red. masses --      1.1739                 2.9922                 1.4754
 Frc consts  --      0.6163                 1.6138                 0.8412
 IR Inten    --      3.1279                32.0837                 1.7839

                     40                     41                     42
                      A                      A                      A
 Frequencies --   1023.9697              1050.0442              1065.8646
 Red. masses --      2.8334                 1.8159                 1.9186
 Frc consts  --      1.7504                 1.1797                 1.2842
 IR Inten    --     34.5943                24.8016               185.5019

                     43                     44                     45
                      A                      A                      A
 Frequencies --   1084.8893              1095.4692              1100.0187
 Red. masses --      1.5321                 1.3259                 2.1826
 Frc consts  --      1.0625                 0.9375                 1.5560
 IR Inten    --     72.4299                 2.7112               146.8897

                     46                     47                     48
                      A                      A                      A
 Frequencies --   1138.8465              1141.0696              1154.2477
 Red. masses --      2.1013                 1.1040                 2.6134
 Frc consts  --      1.6057                 0.8469                 2.0514
 IR Inten    --      0.4560                 1.6586                21.3006

                     49                     50                     51
                      A                      A                      A
 Frequencies --   1165.9488              1172.4087              1219.1805
 Red. masses --      1.6406                 1.5388                 1.3718
 Frc consts  --      1.3141                 1.2462                 1.2014
 IR Inten    --      2.9482                 6.3815                 0.9254

                     52                     53                     54
                      A                      A                      A
 Frequencies --   1226.3326              1230.4100              1258.1444
 Red. masses --      1.7291                 2.2171                 1.4789
 Frc consts  --      1.5321                 1.9776                 1.3793
 IR Inten    --     12.8323                 3.2602                 6.7077

                     55                     56                     57
                      A                      A                      A
 Frequencies --   1274.3424              1304.6395              1325.3722
 Red. masses --      2.2817                 2.1847                 3.7965
 Frc consts  --      2.1832                 2.1909                 3.9292
 IR Inten    --    272.4238                34.1714                46.7619

                     58                     59                     60
                      A                      A                      A
 Frequencies --   1342.9276              1397.8393              1400.0015
 Red. masses --      1.4109                 1.8882                 1.8479
 Frc consts  --      1.4992                 2.1737                 2.1340
 IR Inten    --      7.0364                25.7383                 1.9154

                     61                     62                     63
                      A                      A                      A
 Frequencies --   1418.7256              1427.0657              1434.9469
 Red. masses --      1.4051                 1.3358                 2.2039
 Frc consts  --      1.6663                 1.6028                 2.6738
 IR Inten    --     28.1768                25.8257                81.2391

                     64                     65                     66
                      A                      A                      A
 Frequencies --   1447.3491              1470.9950              1487.2111
 Red. masses --      1.2368                 1.2867                 1.0884
 Frc consts  --      1.5265                 1.6404                 1.4183
 IR Inten    --      8.3647                47.0042                 3.2211

                     67                     68                     69
                      A                      A                      A
 Frequencies --   1521.3658              1521.9292              1523.8002
 Red. masses --      1.0459                 1.0544                 1.0453
 Frc consts  --      1.4263                 1.4389                 1.4300
 IR Inten    --      7.1207                 0.5773                 2.9842

                     70                     71                     72
                      A                      A                      A
 Frequencies --   1524.9879              1535.1570              1543.4743
 Red. masses --      1.3019                 1.0495                 1.0608
 Frc consts  --      1.7839                 1.4572                 1.4889
 IR Inten    --      1.1837                 4.8832                12.9039

                     73                     74                     75
                      A                      A                      A
 Frequencies --   1545.5068              1706.9830              1820.7728
 Red. masses --      1.0818                 8.4214                11.3622
 Frc consts  --      1.5224                14.4576                22.1933
 IR Inten    --      1.2274                12.3779               406.0562

                     76                     77                     78
                      A                      A                      A
 Frequencies --   1833.4312              3021.9793              3029.6813
 Red. masses --     11.7548                 1.0816                 1.0437
 Frc consts  --     23.2806                 5.8197                 5.6446
 IR Inten    --    243.1188                11.1161                56.9327

                     79                     80                     81
                      A                      A                      A
 Frequencies --   3042.2145              3049.8808              3053.9649
 Red. masses --      1.0785                 1.0380                 1.0366
 Frc consts  --      5.8810                 5.6888                 5.6964
 IR Inten    --     19.0486                32.9594                27.2293

                     82                     83                     84
                      A                      A                      A
 Frequencies --   3091.5921              3117.1768              3122.2244
 Red. masses --      1.0974                 1.1024                 1.1019
 Frc consts  --      6.1801                 6.3111                 6.3286
 IR Inten    --     33.6640                 2.3805                47.0547

                     85                     86                     87
                      A                      A                      A
 Frequencies --   3124.9227              3130.8568              3163.8873
 Red. masses --      1.1025                 1.1029                 1.0790
 Frc consts  --      6.3434                 6.3694                 6.3639
 IR Inten    --     32.0378                28.1677                 2.8498

                     88                     89                     90
                      A                      A                      A
 Frequencies --   3163.9197              3166.3788              3215.0107
 Red. masses --      1.0692                 1.0586                 1.0912
 Frc consts  --      6.3063                 6.2534                 6.6452
 IR Inten    --     12.2350                 7.7332                 2.0517

                     91                     92                     93
                      A                      A                      A
 Frequencies --   3245.5951              3258.8034              3268.0336
 Red. masses --      1.1198                 1.1161                 1.0965
 Frc consts  --      6.9497                 6.9837                 6.8995
 IR Inten    --      0.0412                11.8889                 1.9168

 - Thermochemistry -
 -------------------
 Temperature   298.150 Kelvin.  Pressure   1.00000 Atm.
 Atom     1 has atomic number  6 and mass  12.00000

 Molecular mass:   223.12084 amu.
 Principal axes and moments of inertia in atomic units:
                           1         2         3
     Eigenvalues --  2774.196363995.187745615.89015
           X            0.99686   0.07913   0.00298
           Y           -0.07915   0.99682   0.00918
           Z           -0.00225  -0.00938   0.99995
 This molecule is an asymmetric top.
 Rotational symmetry number  1.
 Warning -- assumption of classical behavior for rotation
           may cause significant error
 Rotational temperatures (Kelvin)      0.03122     0.02168     0.01542
 Rotational constants (GHZ):           0.65055     0.45173     0.32136
 Zero-point vibrational energy     730656.6 (Joules/Mol)
                                  174.63112 (Kcal/Mol)
 Warning -- explicit consideration of  23 degrees of freedom as
           vibrations may cause significant error
 Vibrational temperatures:     32.55    47.38    71.43   116.29   124.33
          (Kelvin)            145.23   198.48   199.54   240.48   255.58
                              306.48   347.19   354.75   379.99   416.94
                              432.18   446.22   549.16   590.12   651.82
                              683.39   719.45   821.33   916.36   990.20
                             1037.06  1063.70  1069.92  1139.39  1159.79
                             1192.59  1208.31  1252.56  1290.03  1331.17
                             1339.76  1358.18  1376.59  1415.32  1473.26
                             1510.78  1533.54  1560.91  1576.14  1582.68
                             1638.55  1641.74  1660.71  1677.54  1686.83
                             1754.13  1764.42  1770.29  1810.19  1833.49
                             1877.09  1906.92  1932.17  2011.18  2014.29
                             2041.23  2053.23  2064.57  2082.41  2116.43
                             2139.77  2188.91  2189.72  2192.41  2194.12
                             2208.75  2220.72  2223.64  2455.97  2619.69
                             2637.90  4347.95  4359.04  4377.07  4388.10
                             4393.97  4448.11  4484.92  4492.18  4496.07
                             4504.60  4552.13  4552.17  4555.71  4625.68
                             4669.69  4688.69  4701.97

 Zero-point correction=                           0.278292 (Hartree/Particle)
 Thermal correction to Energy=                    0.294971
 Thermal correction to Enthalpy=                  0.295915
 Thermal correction to Gibbs Free Energy=         0.232544
 Sum of electronic and zero-point Energies=           -747.706086
 Sum of electronic and thermal Energies=              -747.689407
 Sum of electronic and thermal Enthalpies=            -747.688463
 Sum of electronic and thermal Free Energies=         -747.751835

                     E (Thermal)             CV                S
                      KCal/Mol        Cal/Mol-Kelvin    Cal/Mol-Kelvin
 Total                  185.097             60.924            133.377
 Electronic               0.000              0.000              0.000
 Translational            0.889              2.981             42.110
 Rotational               0.889              2.981             32.498
 Vibrational            183.320             54.962             58.769
 Vibration     1          0.593              1.985              6.389
 Vibration     2          0.594              1.983              5.645
 Vibration     3          0.595              1.978              4.831
 Vibration     4          0.600              1.962              3.871
 Vibration     5          0.601              1.959              3.740
 Vibration     6          0.604              1.948              3.436
 Vibration     7          0.614              1.915              2.832
 Vibration     8          0.614              1.915              2.822
 Vibration     9          0.624              1.883              2.467
 Vibration    10          0.628              1.870              2.353
 Vibration    11          0.644              1.821              2.018
 Vibration    12          0.658              1.777              1.793
 Vibration    13          0.661              1.768              1.755
 Vibration    14          0.671              1.739              1.634
 Vibration    15          0.686              1.693              1.475
 Vibration    16          0.693              1.673              1.415
 Vibration    17          0.699              1.654              1.362
 Vibration    18          0.751              1.509              1.032
 Vibration    19          0.774              1.448              0.926
 Vibration    20          0.812              1.354              0.787
 Vibration    21          0.832              1.306              0.724
 Vibration    22          0.855              1.250              0.658
 Vibration    23          0.927              1.094              0.503

                           ! Non-Optimized Parameters !
 Normal termination of Gaussian 16 at Fri Dec 11 01:02:41 2020.

 ----------------------------------------------------------------------
 # B3LYP/6-311++G(d,p) empiricaldispersion=gd3bj scf=xqc pop=npa geom=c
 heck
 ----------------------------------------------------------------------

 ---------------------------------------
 CID_135170528_JID_6826_Energie_neutraal
 ---------------------------------------
 Structure from the checkpoint file:  "JID_6826.chk"
 Charge =  0 Multiplicity = 1

 SCF Done:  E(RB3LYP) =  -748.195748014     A.U. after   16 cycles
 Normal termination of Gaussian 16 at Fri Dec 11 01:07:57 2020.

 ----------------------------------------------------------------------
 # B3LYP/6-311++G(d,p) empiricaldispersion=gd3bj scf=xqc pop=npa geom=c
 heck
 ----------------------------------------------------------------------

 -------------------------------------
 CID_135170528_JID_6826_Energie_kation
 -------------------------------------
 Structure from the checkpoint file:  "JID_6826.chk"
 Charge =  1 Multiplicity = 2

 SCF Done:  E(UB3LYP) =  -747.872498370     A.U. after   32 cycles
 Normal termination of Gaussian 16 at Fri Dec 11 01:22:08 2020.
 Gaussian 16:  ES64L-G16RevA.03 25-Dec-2016

 ----------------------------------------------------------------------
 # B3LYP/6-311++G(d,p) empiricaldispersion=gd3bj scf=xqc pop=npa geom=c
 heck
 ----------------------------------------------------------------------

 ------------------------------------
 CID_135170528_JID_6826_Energie_anion
 ------------------------------------
 Structure from the checkpoint file:  "JID_6826.chk"
 Charge = -1 Multiplicity = 2

                         Standard orientation:
 ---------------------------------------------------------------------
 Center     Atomic      Atomic             Coordinates (Angstroms)
 Number     Number       Type             X           Y           Z
 ---------------------------------------------------------------------
      1          6           0       -1.127803   -2.613960    1.479578
      2          6           0       -1.256422   -2.044062    0.053756
      3          6           0       -2.410968   -2.700489   -0.708733
      4          6           0       -1.369394   -0.547793    0.069144
      5          6           0       -2.292857    0.258898   -0.466863
      6          6           0       -1.914915    1.681935   -0.253868
      7          8           0       -2.515698    2.691011   -0.580471
      8          7           0       -0.708045    1.652751    0.437954
      9          6           0       -0.343796    0.316489    0.790678
     10          8           0        1.042432    0.007777    0.532481
     11          6           0        1.474609   -0.055940   -0.764495
     12          8           0        0.743425    0.011099   -1.725126
     13          6           0        2.945944   -0.229090   -0.834103
     14          6           0        3.848436    0.451873    0.184343
     15          6           0        3.680707   -1.030819    0.229943
     16          6           0       -0.085923    2.826371    1.002417
     17          1           0       -2.015016   -2.373562    2.076952
     18          1           0       -0.247552   -2.215977    1.995094
     19          1           0       -1.029031   -3.703997    1.443362
     20          1           0       -0.322578   -2.278203   -0.478533
     21          1           0       -3.370321   -2.496556   -0.218736
     22          1           0       -2.466740   -2.329972   -1.737114
     23          1           0       -2.275328   -3.786327   -0.744667
     24          1           0       -3.177438   -0.016664   -1.024376
     25          1           0       -0.397338    0.164215    1.876641
     26          1           0        3.300055   -0.299660   -1.856327
     27          1           0        4.779973    0.863398   -0.191717
     28          1           0        3.360468    1.042292    0.952224
     29          1           0        3.079428   -1.450754    1.028865
     30          1           0        4.494910   -1.660976   -0.114530
     31          1           0       -0.134967    2.821965    2.100219
     32          1           0        0.963855    2.900279    0.697837
     33          1           0       -0.633042    3.691667    0.623259
 ---------------------------------------------------------------------

 SCF Done:  E(UB3LYP) =  -748.190466215     A.U. after   33 cycles
 SCF Done:  E(UB3LYP) =  -748.190466215     a.u. after    1 cycles

 The electronic state is 2-A.
 Alpha  occ. eigenvalues --  -19.05599 -19.00286 -18.95563 -14.21330 -10.19676
 Alpha  occ. eigenvalues --  -10.15309 -10.13218 -10.09383 -10.08713 -10.08639
 Alpha  occ. eigenvalues --  -10.08413 -10.08256 -10.06842 -10.06810 -10.05553
 Alpha  occ. eigenvalues --  -10.03873  -0.99813  -0.91903  -0.90677  -0.82736
 Alpha  occ. eigenvalues --   -0.77276  -0.72184  -0.66861  -0.62053  -0.59423
 Alpha  occ. eigenvalues --   -0.57789  -0.55143  -0.51493  -0.51218  -0.47260
 Alpha  occ. eigenvalues --   -0.44393  -0.42631  -0.41790  -0.39802  -0.38126
 Alpha  occ. eigenvalues --   -0.36967  -0.36497  -0.34873  -0.33881  -0.33023
 Alpha  occ. eigenvalues --   -0.31771  -0.31672  -0.31044  -0.29776  -0.29527
 Alpha  occ. eigenvalues --   -0.28491  -0.27707  -0.27408  -0.26841  -0.26170
 Alpha  occ. eigenvalues --   -0.25405  -0.24260  -0.23929  -0.22636  -0.20589
 Alpha  occ. eigenvalues --   -0.20109  -0.17745  -0.14175  -0.13274  -0.12711
 Alpha  occ. eigenvalues --    0.04436
 Alpha virt. eigenvalues --    0.06108   0.06895   0.07851   0.08252   0.09283
 Alpha virt. eigenvalues --    0.09623   0.09707   0.10268   0.10657   0.11216
 Alpha virt. eigenvalues --    0.11976   0.12398   0.12715   0.13123   0.13653

  Beta  occ. eigenvalues --  -19.05549 -19.00272 -18.95370 -14.21340 -10.19672
  Beta  occ. eigenvalues --  -10.15308 -10.13106 -10.09374 -10.08691 -10.08620
  Beta  occ. eigenvalues --  -10.08378 -10.08281 -10.06841 -10.06784 -10.05232
  Beta  occ. eigenvalues --  -10.03803  -0.99749  -0.91824  -0.90410  -0.82603
  Beta  occ. eigenvalues --   -0.77249  -0.71947  -0.66705  -0.61931  -0.59391
  Beta  occ. eigenvalues --   -0.57622  -0.54999  -0.51343  -0.51124  -0.47093
  Beta  occ. eigenvalues --   -0.44240  -0.42507  -0.41635  -0.39728  -0.37955
  Beta  occ. eigenvalues --   -0.36884  -0.36392  -0.34780  -0.33821  -0.32944
  Beta  occ. eigenvalues --   -0.31653  -0.31601  -0.30961  -0.29724  -0.29457
  Beta  occ. eigenvalues --   -0.28401  -0.27663  -0.27311  -0.26380  -0.25845
  Beta  occ. eigenvalues --   -0.25215  -0.24164  -0.23818  -0.22581  -0.20510
  Beta  occ. eigenvalues --   -0.20050  -0.17464  -0.13218  -0.13039  -0.12280
  Beta virt. eigenvalues --    0.06689   0.07250   0.07851   0.08478   0.09162
  Beta virt. eigenvalues --    0.09500   0.09802   0.09877   0.10462   0.10883
  Beta virt. eigenvalues --    0.11436   0.12287   0.12364   0.12740   0.13225

 Mulliken charges and spin densities:
               1          2
     1  C   -0.582667  -0.073775
     2  C    0.066273   0.082327
     3  C   -0.632318  -0.036086
     4  C    0.358549   0.243540
     5  C    0.174433   0.021909
     6  C   -0.109614   0.086989
     7  O   -0.416037   0.061833
     8  N    0.025657  -0.012917
     9  C   -0.620572  -0.107620
    10  O    0.104796   0.017824
    11  C    0.716548  -0.799216
    12  O   -0.139095   0.010755
    13  C   -1.857518   1.825106
    14  C    1.023718  -1.468236
    15  C    0.653620  -1.086711
    16  C    0.342147  -0.592792
    17  H    0.145585  -0.004265
    18  H    0.052863   0.121610
    19  H    0.129270   0.000095
    20  H    0.172273   0.014584
    21  H    0.129113  -0.000529
    22  H    0.146734  -0.000593
    23  H    0.122031   0.008646
    24  H    0.147046  -0.006983
    25  H   -0.280495   0.501187
    26  H   -0.179697   0.440062
    27  H   -0.479737   0.648582
    28  H   -0.076817   0.236095
    29  H    0.058457   0.057562
    30  H   -0.186447   0.353297
    31  H   -0.197637   0.344634
    32  H    0.043173   0.094134
    33  H    0.146363   0.018953
 Sum of Mulliken charges =  -1.00000   1.00000

 Dipole moment (field-independent basis, Debye):
    X=             -2.6678    Y=             -5.2765    Z=              0.7479  Tot=              5.9596
 Quadrupole moment (field-independent basis, Debye-Ang):
   XX=           -166.1659   YY=           -127.5629   ZZ=           -126.7247
   XY=             11.5288   XZ=             -1.8040   YZ=              1.2674

 Summary of Natural Population Analysis:

                                       Natural Population
                Natural  -----------------------------------------------
    Atom  No    Charge         Core      Valence    Rydberg      Total
 -----------------------------------------------------------------------
      C    1   -0.27782      0.99965     2.27156    0.00660     3.27782
      C    2   -0.13182      0.99956     2.12400    0.00826     3.13182
      C    3   -0.28049      0.99966     2.27631    0.00452     3.28049
      C    4    0.06619      0.99948     1.92310    0.01123     2.93381
      C    5   -0.13300      0.99939     2.12463    0.00898     3.13300
      C    6    0.35240      0.99964     1.62289    0.02507     2.64760
      O    7   -0.30688      0.99987     3.30177    0.00524     4.30688
      N    8   -0.27196      0.99962     2.76257    0.00976     3.77196
      C    9    0.15294      0.99947     1.83044    0.01714     2.84706
      O   10   -0.29435      0.99986     3.28519    0.00929     4.29435
      C   11    0.40397      0.99963     1.56973    0.02667     2.59603
      O   12   -0.29270      0.99987     3.28763    0.00520     4.29270
      C   13   -0.16244      0.99955     2.15138    0.01151     3.16244
      C   14   -0.18558      0.99962     2.17611    0.00985     3.18558
      C   15   -0.18736      0.99963     2.17980    0.00793     3.18736
      C   16   -0.17735      0.99965     2.16964    0.00807     3.17735
      H   17    0.09570      0.00000     0.40353    0.00077     0.40430
      H   18    0.10218      0.00000     0.39689    0.00094     0.39782
      H   19    0.09300      0.00000     0.40621    0.00079     0.40700
      H   20    0.10557      0.00000     0.39285    0.00158     0.39443
      H   21    0.09606      0.00000     0.40308    0.00087     0.40394
      H   22    0.10314      0.00000     0.39610    0.00077     0.39686
      H   23    0.09385      0.00000     0.40540    0.00076     0.40615
      H   24    0.10106      0.00000     0.39815    0.00078     0.39894
      H   25    0.09827      0.00000     0.39918    0.00255     0.40173
      H   26    0.11396      0.00000     0.38508    0.00096     0.38604
      H   27    0.10633      0.00000     0.39132    0.00235     0.39367
      H   28    0.11105      0.00000     0.38753    0.00142     0.38895
      H   29    0.10939      0.00000     0.38946    0.00114     0.39061
      H   30    0.10382      0.00000     0.39507    0.00112     0.39618
      H   31    0.09033      0.00000     0.40828    0.00139     0.40967
      H   32    0.09184      0.00000     0.40707    0.00110     0.40816
      H   33    0.11073      0.00000     0.38819    0.00108     0.38927
 =======================================================================
   * Total *   -0.00000     15.99416    43.81014    0.19571    60.00000

 Normal termination of Gaussian 16 at Fri Dec 11 01:37:02 2020.
