 Gaussian 16, Revision A.03,

 -----------------------------------------------------------
 # opt freq B3LYP/6-31G(d) empiricaldispersion=gd3bj scf=xqc
 -----------------------------------------------------------

 ------------------------------
 CID_21390980_JID_4035_neutraal
 ------------------------------
 Symbolic Z-matrix:
 Charge =  0 Multiplicity = 1

 SCF Done:  E(RB3LYP) =  -615.014939128     A.U. after   16 cycles
 SCF Done:  E(RB3LYP) =  -615.017566803     A.U. after   12 cycles
 SCF Done:  E(RB3LYP) =  -615.017805351     A.U. after   11 cycles
 SCF Done:  E(RB3LYP) =  -615.017848692     A.U. after   10 cycles
 SCF Done:  E(RB3LYP) =  -615.017877036     A.U. after   10 cycles
 SCF Done:  E(RB3LYP) =  -615.017884665     A.U. after    9 cycles
 SCF Done:  E(RB3LYP) =  -615.017888952     A.U. after    8 cycles
 SCF Done:  E(RB3LYP) =  -615.017889899     A.U. after    8 cycles
 Optimization completed.
    -- Stationary point found.
 Normal termination of Gaussian 16 at Thu Dec 10 09:11:51 2020.

 --------------------------------------------------------------------
 #N Geom=AllCheck Guess=TCheck SCRF=Check GenChk RB3LYP/6-31G(d) Freq
 --------------------------------------------------------------------

 Structure from the checkpoint file:  "JID_4035.chk"
 ------------------------------
 CID_21390980_JID_4035_neutraal
 ------------------------------
 Charge =  0 Multiplicity = 1

 SCF Done:  E(RB3LYP) =  -615.017889899     A.U. after    1 cycles

  Exact polarizability: 193.303   2.754 139.045  -0.001  -0.000  61.073
 Approx polarizability: 261.514  15.569 269.152  -0.000  -0.000  94.250

                      1                      2                      3
                      A                      A                      A
 Frequencies --     72.3657                91.7710               142.0302
 Red. masses --      3.9841                 3.9034                 1.0467
 Frc consts  --      0.0123                 0.0194                 0.0124
 IR Inten    --      3.7224                 0.8185                 0.0337

                      4                      5                      6
                      A                      A                      A
 Frequencies --    143.9674               160.8246               192.7505
 Red. masses --      1.2260                 1.7690                 1.3328
 Frc consts  --      0.0150                 0.0270                 0.0292
 IR Inten    --      0.2500                 0.0353                 0.4371

                      7                      8                      9
                      A                      A                      A
 Frequencies --    203.0924               234.0235               288.6651
 Red. masses --      3.6886                 3.1990                 3.5733
 Frc consts  --      0.0896                 0.1032                 0.1754
 IR Inten    --      2.0800                 0.6528                 5.7048

                     10                     11                     12
                      A                      A                      A
 Frequencies --    305.2957               320.4422               338.1228
 Red. masses --      2.5643                 4.1952                 3.7729
 Frc consts  --      0.1408                 0.2538                 0.2541
 IR Inten    --      0.0286                 0.0841                 0.8360

                     13                     14                     15
                      A                      A                      A
 Frequencies --    365.8812               409.4330               431.6574
 Red. masses --      4.7336                 5.3943                 3.2841
 Frc consts  --      0.3734                 0.5328                 0.3605
 IR Inten    --      0.3368                 6.6868                 5.1762

                     16                     17                     18
                      A                      A                      A
 Frequencies --    491.9972               494.2256               534.7370
 Red. masses --      3.5706                 5.4469                 4.8234
 Frc consts  --      0.5092                 0.7839                 0.8126
 IR Inten    --      0.3924                10.0182                 0.1069

                     19                     20                     21
                      A                      A                      A
 Frequencies --    597.3816               618.6941               635.8590
 Red. masses --      5.7713                 4.6689                 4.6061
 Frc consts  --      1.2135                 1.0530                 1.0973
 IR Inten    --      1.8833                 0.3875                 5.4586

                     22                     23                     24
                      A                      A                      A
 Frequencies --    706.1813               745.6622               767.6949
 Red. masses --      4.0160                 6.9190                 4.5207
 Frc consts  --      1.1800                 2.2666                 1.5698
 IR Inten    --      1.5120                 5.1384                 9.5910

                     25                     26                     27
                      A                      A                      A
 Frequencies --    792.6856               812.5328               879.6378
 Red. masses --      5.5256                 4.6789                 1.3636
 Frc consts  --      2.0457                 1.8200                 0.6216
 IR Inten    --      9.1995                 3.3370                12.4010

                     28                     29                     30
                      A                      A                      A
 Frequencies --    903.2795               937.3452               961.0714
 Red. masses --      1.3653                 1.3575                 3.7234
 Frc consts  --      0.6563                 0.7027                 2.0263
 IR Inten    --     14.3565                 2.5227                 5.2024

                     31                     32                     33
                      A                      A                      A
 Frequencies --   1023.0912              1033.0245              1049.5587
 Red. masses --      1.7543                 1.4156                 1.5368
 Frc consts  --      1.0819                 0.8901                 0.9974
 IR Inten    --      3.0097                11.3394                 1.1611

                     34                     35                     36
                      A                      A                      A
 Frequencies --   1063.6284              1078.5489              1085.1292
 Red. masses --      1.4387                 1.4590                 1.5863
 Frc consts  --      0.9590                 0.9999                 1.1005
 IR Inten    --      6.8765                 2.2286                 0.0615

                     37                     38                     39
                      A                      A                      A
 Frequencies --   1122.5677              1185.3201              1216.4812
 Red. masses --      3.2795                 2.0353                 3.7706
 Frc consts  --      2.4349                 1.6848                 3.2875
 IR Inten    --     12.4913                46.9751                89.9098

                     40                     41                     42
                      A                      A                      A
 Frequencies --   1219.6151              1285.9337              1294.7772
 Red. masses --      4.2632                 1.4736                 4.1862
 Frc consts  --      3.7362                 1.4357                 4.1349
 IR Inten    --      6.1451                13.2669                11.4040

                     43                     44                     45
                      A                      A                      A
 Frequencies --   1345.7613              1391.5967              1416.3198
 Red. masses --      2.6258                 7.0860                 1.9799
 Frc consts  --      2.8019                 8.0849                 2.3400
 IR Inten    --     74.7257                20.9133                10.3098

                     46                     47                     48
                      A                      A                      A
 Frequencies --   1439.7117              1446.1768              1451.5831
 Red. masses --      1.2714                 1.3001                 1.2347
 Frc consts  --      1.5527                 1.6020                 1.5328
 IR Inten    --      5.0844                 2.9811                 1.0536

                     49                     50                     51
                      A                      A                      A
 Frequencies --   1477.7738              1499.6889              1506.0191
 Red. masses --      3.2554                 1.0437                 1.0452
 Frc consts  --      4.1886                 1.3831                 1.3967
 IR Inten    --    123.4285                 6.0049                 0.0947

                     52                     53                     54
                      A                      A                      A
 Frequencies --   1517.9796              1522.0451              1522.4422
 Red. masses --      1.1331                 1.4990                 1.0439
 Frc consts  --      1.5383                 2.0460                 1.4256
 IR Inten    --     26.1821                 1.4433                16.1483

                     55                     56                     57
                      A                      A                      A
 Frequencies --   1524.8506              1535.1809              1617.0776
 Red. masses --      1.3520                 1.6485                 7.2348
 Frc consts  --      1.8521                 2.2891                11.1465
 IR Inten    --     69.0523                15.2206                 3.0254

                     58                     59                     60
                      A                      A                      A
 Frequencies --   1682.6187              1695.0231              1739.2623
 Red. masses --      6.8657                 6.2677                11.4208
 Frc consts  --     11.4527                10.6098                20.3553
 IR Inten    --     94.0589                35.2243               262.2156

                     61                     62                     63
                      A                      A                      A
 Frequencies --   3040.0570              3043.9932              3055.7086
 Red. masses --      1.0392                 1.0381                 1.0349
 Frc consts  --      5.6588                 5.6676                 5.6934
 IR Inten    --     23.9924                37.4226                26.4346

                     64                     65                     66
                      A                      A                      A
 Frequencies --   3087.2415              3092.8901              3114.6488
 Red. masses --      1.1003                 1.1000                 1.1007
 Frc consts  --      6.1786                 6.2000                 6.2915
 IR Inten    --     22.1130                14.5636                11.9616

                     67                     68                     69
                      A                      A                      A
 Frequencies --   3132.7244              3134.7530              3136.1624
 Red. masses --      1.1039                 1.1002                 1.0996
 Frc consts  --      6.3830                 6.3698                 6.3721
 IR Inten    --     17.0904                31.6420                 1.9153

                     70                     71                     72
                      A                      A                      A
 Frequencies --   3208.6594              3211.6331              3228.4841
 Red. masses --      1.0909                 1.0905                 1.0937
 Frc consts  --      6.6175                 6.6269                 6.7164
 IR Inten    --      6.9372                 2.2582                14.9145

 - Thermochemistry -
 -------------------
 Temperature   298.150 Kelvin.  Pressure   1.00000 Atm.
 Atom     1 has atomic number  6 and mass  12.00000

 Molecular mass:   188.08373 amu.
 Principal axes and moments of inertia in atomic units:
                           1         2         3
     Eigenvalues --  1184.207793879.276725030.09264
           X            0.99998  -0.00688  -0.00000
           Y            0.00688   0.99998   0.00000
           Z            0.00000  -0.00000   1.00000
 This molecule is an asymmetric top.
 Rotational symmetry number  1.
 Warning -- assumption of classical behavior for rotation
           may cause significant error
 Rotational temperatures (Kelvin)      0.07314     0.02233     0.01722
 Rotational constants (GHZ):           1.52401     0.46523     0.35879
 Zero-point vibrational energy     556592.8 (Joules/Mol)
                                  133.02887 (Kcal/Mol)
 Warning -- explicit consideration of  20 degrees of freedom as
           vibrations may cause significant error
 Vibrational temperatures:    104.12   132.04   204.35   207.14   231.39
          (Kelvin)            277.32   292.20   336.71   415.32   439.25
                              461.04   486.48   526.42   589.08   621.06
                              707.87   711.08   769.37   859.50   890.16
                              914.86  1016.04  1072.84  1104.54  1140.50
                             1169.05  1265.60  1299.62  1348.63  1382.77
                             1472.00  1486.29  1510.08  1530.32  1551.79
                             1561.26  1615.12  1705.41  1750.25  1754.75
                             1850.17  1862.90  1936.25  2002.20  2037.77
                             2071.42  2080.73  2088.50  2126.19  2157.72
                             2166.83  2184.03  2189.88  2190.45  2193.92
                             2208.78  2326.61  2420.91  2438.76  2502.41
                             4373.96  4379.63  4396.48  4441.85  4449.98
                             4481.28  4507.29  4510.21  4512.24  4616.55
                             4620.82  4645.07

 Zero-point correction=                           0.211995 (Hartree/Particle)
 Thermal correction to Energy=                    0.224607
 Thermal correction to Enthalpy=                  0.225551
 Thermal correction to Gibbs Free Energy=         0.173698
 Sum of electronic and zero-point Energies=           -614.805895
 Sum of electronic and thermal Energies=              -614.793283
 Sum of electronic and thermal Enthalpies=            -614.792339
 Sum of electronic and thermal Free Energies=         -614.844192

                     E (Thermal)             CV                S
                      KCal/Mol        Cal/Mol-Kelvin    Cal/Mol-Kelvin
 Total                  140.943             48.635            109.133
 Electronic               0.000              0.000              0.000
 Translational            0.889              2.981             41.601
 Rotational               0.889              2.981             31.514
 Vibrational            139.165             42.674             36.019
 Vibration     1          0.598              1.967              4.088
 Vibration     2          0.602              1.955              3.622
 Vibration     3          0.615              1.911              2.776
 Vibration     4          0.616              1.909              2.750
 Vibration     5          0.622              1.890              2.540
 Vibration     6          0.635              1.850              2.201
 Vibration     7          0.639              1.835              2.105
 Vibration     8          0.654              1.789              1.848
 Vibration     9          0.685              1.695              1.482
 Vibration    10          0.696              1.664              1.388
 Vibration    11          0.706              1.634              1.308
 Vibration    12          0.718              1.599              1.221
 Vibration    13          0.739              1.542              1.097
 Vibration    14          0.774              1.450              0.929
 Vibration    15          0.793              1.401              0.853
 Vibration    16          0.848              1.268              0.678
 Vibration    17          0.850              1.263              0.673
 Vibration    18          0.890              1.173              0.577
 Vibration    19          0.955              1.037              0.454
 Vibration    20          0.979              0.992              0.419

 Optimization completed.
    -- Stationary point found.
 Normal termination of Gaussian 16 at Thu Dec 10 09:18:06 2020.

 ----------------------------------------------------------------------
 # B3LYP/6-311++G(d,p) empiricaldispersion=gd3bj scf=xqc pop=npa geom=c
 heck
 ----------------------------------------------------------------------

 --------------------------------------
 CID_21390980_JID_4035_Energie_neutraal
 --------------------------------------
 Structure from the checkpoint file:  "JID_4035.chk"
 Charge =  0 Multiplicity = 1

 SCF Done:  E(RB3LYP) =  -615.179688414     A.U. after   15 cycles
 Normal termination of Gaussian 16 at Thu Dec 10 09:20:28 2020.

 ----------------------------------------------------------------------
 # B3LYP/6-311++G(d,p) empiricaldispersion=gd3bj scf=xqc pop=npa geom=c
 heck
 ----------------------------------------------------------------------

 ------------------------------------
 CID_21390980_JID_4035_Energie_kation
 ------------------------------------
 Structure from the checkpoint file:  "JID_4035.chk"
 Charge =  1 Multiplicity = 2

 SCF Done:  E(UB3LYP) =  -614.877688141     A.U. after   23 cycles
 Normal termination of Gaussian 16 at Thu Dec 10 09:25:40 2020.
 Gaussian 16:  ES64L-G16RevA.03 25-Dec-2016

 ----------------------------------------------------------------------
 # B3LYP/6-311++G(d,p) empiricaldispersion=gd3bj scf=xqc pop=npa geom=c
 heck
 ----------------------------------------------------------------------

 -----------------------------------
 CID_21390980_JID_4035_Energie_anion
 -----------------------------------
 Structure from the checkpoint file:  "JID_4035.chk"
 Charge = -1 Multiplicity = 2

                         Standard orientation:
 ---------------------------------------------------------------------
 Center     Atomic      Atomic             Coordinates (Angstroms)
 Number     Number       Type             X           Y           Z
 ---------------------------------------------------------------------
      1          6           0       -3.288728    1.760683    0.000075
      2          6           0       -2.128984    0.796705   -0.000051
      3          6           0       -0.823449    1.264487   -0.000065
      4          6           0        0.277337    0.393011   -0.000044
      5          6           0        0.026958   -0.981847   -0.000022
      6          6           0       -1.277391   -1.480699   -0.000033
      7          6           0       -2.358105   -0.606454   -0.000047
      8          6           0       -3.764328   -1.148471    0.000044
      9          8           0        1.045406   -1.899035   -0.000001
     10          6           0        2.323252   -1.444699    0.000002
     11          6           0        2.693696   -0.146725    0.000003
     12          6           0        1.662127    0.900140   -0.000051
     13          8           0        1.938214    2.100558   -0.000026
     14          6           0        4.132905    0.276317    0.000082
     15          1           0       -3.928997    1.624558    0.880950
     16          1           0       -3.929625    1.624094   -0.880251
     17          1           0       -2.935184    2.795227   -0.000292
     18          1           0       -0.611065    2.329253   -0.000076
     19          1           0       -1.427528   -2.555725   -0.000002
     20          1           0       -3.768631   -2.241829   -0.000102
     21          1           0       -4.323862   -0.807624    0.880083
     22          1           0       -4.324035   -0.807433   -0.879812
     23          1           0        3.021629   -2.274524    0.000060
     24          1           0        4.348970    0.895701   -0.877311
     25          1           0        4.348849    0.895848    0.877401
     26          1           0        4.808784   -0.584422    0.000197
 ---------------------------------------------------------------------

 SCF Done:  E(UB3LYP) =  -615.184004136     A.U. after   32 cycles

 The electronic state is 2-A.
 Alpha  occ. eigenvalues --  -19.03217 -18.90329 -10.09047 -10.07557 -10.05513
 Alpha  occ. eigenvalues --  -10.05170 -10.04982 -10.03780 -10.03602 -10.03371
 Alpha  occ. eigenvalues --  -10.02520 -10.02101 -10.01931 -10.01158  -0.95647
 Alpha  occ. eigenvalues --   -0.84331  -0.72031  -0.66162  -0.64864  -0.63046
 Alpha  occ. eigenvalues --   -0.58508  -0.56051  -0.54516  -0.48388  -0.46396
 Alpha  occ. eigenvalues --   -0.44506  -0.38709  -0.36933  -0.35361  -0.32014
 Alpha  occ. eigenvalues --   -0.32006  -0.31094  -0.30344  -0.29513  -0.28477
 Alpha  occ. eigenvalues --   -0.28064  -0.27354  -0.26790  -0.26209  -0.25144
 Alpha  occ. eigenvalues --   -0.24670  -0.22405  -0.22334  -0.21009  -0.19595
 Alpha  occ. eigenvalues --   -0.18924  -0.11847  -0.10578  -0.08301  -0.07543
 Alpha  occ. eigenvalues --    0.05402
 Alpha virt. eigenvalues --    0.07811   0.09104   0.09617   0.10833   0.11097
 Alpha virt. eigenvalues --    0.11571   0.12400   0.12974   0.13385   0.13519
 Alpha virt. eigenvalues --    0.13963   0.14332   0.14337   0.15839   0.17000

  Beta  occ. eigenvalues --  -19.03049 -18.89863 -10.09055 -10.07186 -10.05195
  Beta  occ. eigenvalues --  -10.05191 -10.04978 -10.03775 -10.03676 -10.03109
  Beta  occ. eigenvalues --  -10.02641 -10.01984 -10.01965 -10.00886  -0.95320
  Beta  occ. eigenvalues --   -0.83480  -0.71742  -0.65923  -0.64669  -0.62851
  Beta  occ. eigenvalues --   -0.58327  -0.55783  -0.54243  -0.48076  -0.46063
  Beta  occ. eigenvalues --   -0.44065  -0.38465  -0.36661  -0.35227  -0.31830
  Beta  occ. eigenvalues --   -0.31615  -0.30514  -0.30199  -0.29386  -0.28419
  Beta  occ. eigenvalues --   -0.27948  -0.27262  -0.26732  -0.26106  -0.24925
  Beta  occ. eigenvalues --   -0.24329  -0.22178  -0.20862  -0.20807  -0.18743
  Beta  occ. eigenvalues --   -0.18296  -0.10659  -0.09278  -0.07150  -0.07104
  Beta virt. eigenvalues --    0.07730   0.09028   0.09506   0.10527   0.10746
  Beta virt. eigenvalues --    0.11494   0.11738   0.12857   0.12860   0.13296
  Beta virt. eigenvalues --    0.13645   0.14141   0.14224   0.15491   0.15718

 Mulliken charges and spin densities:
               1          2
     1  C   -0.648711   0.011023
     2  C    0.595417  -0.073355
     3  C   -0.396963   0.269251
     4  C    1.022074  -0.059689
     5  C   -1.161533  -0.016986
     6  C   -0.863577   0.142136
     7  C    0.475470   0.115487
     8  C   -0.527499  -0.022187
     9  O   -0.100237   0.014404
    10  C   -0.760652   0.318982
    11  C    0.725536  -0.115692
    12  C   -0.052803   0.206057
    13  O   -0.430071   0.175957
    14  C   -0.373939   0.041014
    15  H    0.114919   0.000765
    16  H    0.114927   0.000705
    17  H    0.148655  -0.000250
    18  H    0.131215  -0.019663
    19  H    0.096586  -0.009196
    20  H    0.140101   0.000276
    21  H    0.105724   0.024273
    22  H    0.105832   0.024124
    23  H    0.128004  -0.024772
    24  H    0.152647  -0.000841
    25  H    0.152650  -0.000837
    26  H    0.106230  -0.000987
 Sum of Mulliken charges =  -1.00000   1.00000

 Dipole moment (field-independent basis, Debye):
    X=             -3.0424    Y=             -2.9283    Z=             -0.0005  Tot=              4.2227
 Quadrupole moment (field-independent basis, Debye-Ang):
   XX=           -110.7813   YY=           -105.8213   ZZ=            -92.0449
   XY=             -8.5622   XZ=              0.0029   YZ=              0.0004

 Summary of Natural Population Analysis:

                                       Natural Population
                Natural  -----------------------------------------------
    Atom  No    Charge         Core      Valence    Rydberg      Total
 -----------------------------------------------------------------------
      C    1   -0.28467      0.99960     2.28041    0.00466     3.28467
      C    2   -0.05369      0.99950     2.04500    0.00919     3.05369
      C    3   -0.02220      0.99943     2.01394    0.00883     3.02220
      C    4   -0.09391      0.99945     2.08348    0.01097     3.09391
      C    5    0.16661      0.99934     1.81985    0.01420     2.83339
      C    6   -0.11213      0.99949     2.10423    0.00841     3.11213
      C    7    0.02881      0.99950     1.96269    0.00900     2.97119
      C    8   -0.28867      0.99960     2.28463    0.00445     3.28867
      O    9   -0.24154      0.99985     3.23173    0.00997     4.24154
      C   10    0.16185      0.99940     1.82419    0.01456     2.83815
      C   11   -0.11460      0.99949     2.10701    0.00811     3.11460
      C   12    0.28078      0.99953     1.69973    0.01996     2.71922
      O   13   -0.28101      0.99988     3.27505    0.00608     4.28101
      C   14   -0.28653      0.99965     2.28063    0.00626     3.28653
      H   15    0.09295      0.00000     0.40558    0.00148     0.40705
      H   16    0.09294      0.00000     0.40558    0.00148     0.40706
      H   17    0.09928      0.00000     0.39966    0.00105     0.40072
      H   18    0.10474      0.00000     0.39420    0.00106     0.39526
      H   19    0.09630      0.00000     0.40266    0.00104     0.40370
      H   20    0.09596      0.00000     0.40303    0.00101     0.40404
      H   21    0.09720      0.00000     0.40145    0.00134     0.40280
      H   22    0.09720      0.00000     0.40146    0.00134     0.40280
      H   23    0.07414      0.00000     0.42486    0.00100     0.42586
      H   24    0.10066      0.00000     0.39790    0.00144     0.39934
      H   25    0.10066      0.00000     0.39790    0.00144     0.39934
      H   26    0.08890      0.00000     0.41011    0.00099     0.41110
 =======================================================================
   * Total *    0.00004     13.99369    35.85695    0.14932    49.99996

 Normal termination of Gaussian 16 at Thu Dec 10 09:32:50 2020.
