 Gaussian 16, Revision A.03,

 -----------------------------------------------------------
 # opt freq B3LYP/6-31G(d) empiricaldispersion=gd3bj scf=xqc
 -----------------------------------------------------------

 ------------------------------
 CID_50989747_JID_3385_neutraal
 ------------------------------
 Symbolic Z-matrix:
 Charge =  0 Multiplicity = 1

 SCF Done:  E(RB3LYP) =  -574.285715527     A.U. after   15 cycles
 SCF Done:  E(RB3LYP) =  -574.290853874     A.U. after   12 cycles
 SCF Done:  E(RB3LYP) =  -574.291633516     A.U. after   12 cycles
 SCF Done:  E(RB3LYP) =  -574.291751275     A.U. after   11 cycles
 SCF Done:  E(RB3LYP) =  -574.291766082     A.U. after   11 cycles
 SCF Done:  E(RB3LYP) =  -574.291818090     A.U. after   11 cycles
 SCF Done:  E(RB3LYP) =  -574.291822289     A.U. after    9 cycles
 SCF Done:  E(RB3LYP) =  -574.291823189     A.U. after    8 cycles
 SCF Done:  E(RB3LYP) =  -574.291823395     A.U. after    7 cycles
 SCF Done:  E(RB3LYP) =  -574.291823426     A.U. after    7 cycles
 Optimization completed.
    -- Stationary point found.
 Normal termination of Gaussian 16 at Wed Dec  9 23:04:13 2020.

 --------------------------------------------------------------------
 #N Geom=AllCheck Guess=TCheck SCRF=Check GenChk RB3LYP/6-31G(d) Freq
 --------------------------------------------------------------------

 Structure from the checkpoint file:  "JID_3385.chk"
 ------------------------------
 CID_50989747_JID_3385_neutraal
 ------------------------------
 Charge =  0 Multiplicity = 1

 SCF Done:  E(RB3LYP) =  -574.291823426     A.U. after    1 cycles

  Exact polarizability: 161.788   3.251 125.631  -2.097  -0.796  71.957
 Approx polarizability: 222.515  16.695 206.822  -4.233  -1.982 111.301

                      1                      2                      3
                      A                      A                      A
 Frequencies --     66.4298                85.5724               112.7701
 Red. masses --      3.1888                 2.9767                 2.8503
 Frc consts  --      0.0083                 0.0128                 0.0214
 IR Inten    --      0.6356                 0.4257                 6.1252

                      4                      5                      6
                      A                      A                      A
 Frequencies --    162.5942               179.0265               214.7413
 Red. masses --      3.3726                 2.7804                 2.6559
 Frc consts  --      0.0525                 0.0525                 0.0722
 IR Inten    --      2.3932                 3.4555                12.3702

                      7                      8                      9
                      A                      A                      A
 Frequencies --    267.0967               294.4600               314.8440
 Red. masses --      1.3910                 5.0376                 1.7806
 Frc consts  --      0.0585                 0.2574                 0.1040
 IR Inten    --     35.0661                13.2958                 1.9902

                     10                     11                     12
                      A                      A                      A
 Frequencies --    347.2962               355.4771               411.8162
 Red. masses --      3.3084                 3.5690                 4.4271
 Frc consts  --      0.2351                 0.2657                 0.4424
 IR Inten    --      6.6671                 2.0112                 2.6610

                     13                     14                     15
                      A                      A                      A
 Frequencies --    431.1525               458.7153               539.7504
 Red. masses --      2.7645                 3.6176                 2.9104
 Frc consts  --      0.3028                 0.4485                 0.4996
 IR Inten    --      3.8011                 1.8960                 8.9340

                     16                     17                     18
                      A                      A                      A
 Frequencies --    549.5172               612.6994               624.9264
 Red. masses --      3.9700                 3.5145                 3.6754
 Frc consts  --      0.7063                 0.7773                 0.8457
 IR Inten    --      3.8533                11.1487                11.3275

                     19                     20                     21
                      A                      A                      A
 Frequencies --    695.5868               711.5127               741.8640
 Red. masses --      1.3739                 2.6971                 5.3115
 Frc consts  --      0.3917                 0.8045                 1.7223
 IR Inten    --     36.8739                 0.9319                 5.0423

                     22                     23                     24
                      A                      A                      A
 Frequencies --    768.6340               831.1106               845.7571
 Red. masses --      5.0010                 3.3809                 1.4653
 Frc consts  --      1.7408                 1.3759                 0.6175
 IR Inten    --     32.3722                10.3937                 3.5452

                     25                     26                     27
                      A                      A                      A
 Frequencies --    882.9061               892.8905               927.8099
 Red. masses --      1.3960                 2.1734                 1.4313
 Frc consts  --      0.6412                 1.0209                 0.7259
 IR Inten    --     70.8882                 3.8432                 1.4393

                     28                     29                     30
                      A                      A                      A
 Frequencies --    960.8741               970.8437               982.6001
 Red. masses --      2.3028                 1.5338                 2.2451
 Frc consts  --      1.2527                 0.8517                 1.2771
 IR Inten    --      5.5531                20.0031                 2.4760

                     31                     32                     33
                      A                      A                      A
 Frequencies --   1030.4516              1050.6351              1087.4484
 Red. masses --      1.7406                 2.8453                 1.8302
 Frc consts  --      1.0889                 1.8505                 1.2752
 IR Inten    --     17.8351                20.0272                 1.1624

                     34                     35                     36
                      A                      A                      A
 Frequencies --   1116.6802              1137.4670              1171.8595
 Red. masses --      1.8482                 2.5986                 1.1738
 Frc consts  --      1.3579                 1.9809                 0.9497
 IR Inten    --      1.0349                 4.8993                 3.8525

                     37                     38                     39
                      A                      A                      A
 Frequencies --   1188.6044              1196.8034              1214.2066
 Red. masses --      1.2178                 1.6220                 2.4834
 Frc consts  --      1.0136                 1.3688                 2.1571
 IR Inten    --     16.8245                 6.8584                 7.6704

                     40                     41                     42
                      A                      A                      A
 Frequencies --   1225.9943              1254.5030              1276.0366
 Red. masses --      1.8929                 3.2282                 1.6152
 Frc consts  --      1.6763                 2.9934                 1.5496
 IR Inten    --     25.2838                 4.9423                12.6192

                     43                     44                     45
                      A                      A                      A
 Frequencies --   1287.0982              1322.6141              1329.3330
 Red. masses --      1.2615                 1.2848                 1.2928
 Frc consts  --      1.2312                 1.3242                 1.3461
 IR Inten    --      4.0736                 5.9669                 2.1655

                     46                     47                     48
                      A                      A                      A
 Frequencies --   1383.2770              1393.3112              1396.1496
 Red. masses --      1.4385                 1.4243                 1.5754
 Frc consts  --      1.6218                 1.6291                 1.8093
 IR Inten    --      4.0504                 5.2258                 3.6403

                     49                     50                     51
                      A                      A                      A
 Frequencies --   1408.2141              1425.0046              1460.8267
 Red. masses --      1.5641                 2.0892                 2.2076
 Frc consts  --      1.8275                 2.4995                 2.7757
 IR Inten    --      9.7332                 6.9902                 6.3123

                     52                     53                     54
                      A                      A                      A
 Frequencies --   1495.2991              1506.6292              1516.1947
 Red. masses --      2.6440                 1.1535                 1.0931
 Frc consts  --      3.4831                 1.5427                 1.4806
 IR Inten    --     14.7410                 0.8706                 1.0346

                     55                     56                     57
                      A                      A                      A
 Frequencies --   1520.1477              1524.4045              1532.4798
 Red. masses --      1.0934                 1.1159                 1.1065
 Frc consts  --      1.4887                 1.5278                 1.5311
 IR Inten    --      4.2252                 1.8998                 0.2858

                     58                     59                     60
                      A                      A                      A
 Frequencies --   1631.1127              1689.6314              1696.2310
 Red. masses --      5.5567                 2.4135                 1.5039
 Frc consts  --      8.7104                 4.0596                 2.5494
 IR Inten    --     65.2705                35.5248                69.2756

                     61                     62                     63
                      A                      A                      A
 Frequencies --   1765.9131              2995.8483              3009.9207
 Red. masses --      8.4350                 1.0711                 1.0704
 Frc consts  --     15.4979                 5.6638                 5.7137
 IR Inten    --    523.7554                37.8386                35.6704

                     64                     65                     66
                      A                      A                      A
 Frequencies --   3016.2720              3036.5970              3042.5119
 Red. masses --      1.0645                 1.0683                 1.0694
 Frc consts  --      5.7058                 5.8037                 5.8326
 IR Inten    --     27.7344                18.5058                11.3569

                     67                     68                     69
                      A                      A                      A
 Frequencies --   3048.4198              3057.7320              3064.7981
 Red. masses --      1.0899                 1.0887                 1.0906
 Frc consts  --      5.9673                 5.9972                 6.0354
 IR Inten    --     23.8091                42.4253                40.3615

                     70                     71                     72
                      A                      A                      A
 Frequencies --   3089.8878              3094.2231              3188.9983
 Red. masses --      1.0975                 1.1039                 1.0894
 Frc consts  --      6.1734                 6.2270                 6.5274
 IR Inten    --     64.4713                48.4448                 2.9733

                     73                     74                     75
                      A                      A                      A
 Frequencies --   3467.3423              3555.4601              3582.7271
 Red. masses --      1.0508                 1.0916                 1.0768
 Frc consts  --      7.4434                 8.1300                 8.1436
 IR Inten    --      1.3451                 0.2841                33.2360

 - Thermochemistry -
 -------------------
 Temperature   298.150 Kelvin.  Pressure   1.00000 Atm.
 Atom     1 has atomic number  6 and mass  12.00000

 Molecular mass:   178.11061 amu.
 Principal axes and moments of inertia in atomic units:
                           1         2         3
     Eigenvalues --  1211.389653407.384644514.10386
           X            0.99984  -0.01784   0.00147
           Y            0.01784   0.99984  -0.00159
           Z           -0.00144   0.00162   1.00000
 This molecule is an asymmetric top.
 Rotational symmetry number  1.
 Warning -- assumption of classical behavior for rotation
           may cause significant error
 Rotational temperatures (Kelvin)      0.07150     0.02542     0.01919
 Rotational constants (GHZ):           1.48981     0.52966     0.39980
 Zero-point vibrational energy     614441.4 (Joules/Mol)
                                  146.85501 (Kcal/Mol)
 Warning -- explicit consideration of  17 degrees of freedom as
           vibrations may cause significant error
 Vibrational temperatures:     95.58   123.12   162.25   233.94   257.58
          (Kelvin)            308.96   384.29   423.66   452.99   499.68
                              511.45   592.51   620.33   659.99   776.58
                              790.63   881.54   899.13  1000.79  1023.71
                             1067.38  1105.89  1195.78  1216.86  1270.30
                             1284.67  1334.91  1382.48  1396.83  1413.74
                             1482.59  1511.63  1564.60  1606.65  1636.56
                             1686.04  1710.14  1721.93  1746.97  1763.93
                             1804.95  1835.93  1851.85  1902.95  1912.61
                             1990.23  2004.66  2008.75  2026.11  2050.26
                             2101.80  2151.40  2167.70  2181.47  2187.15
                             2193.28  2204.90  2346.81  2431.00  2440.50
                             2540.76  4310.36  4330.60  4339.74  4368.99
                             4377.50  4386.00  4399.39  4409.56  4445.66
                             4451.90  4588.26  4988.73  5115.51  5154.75

 Zero-point correction=                           0.234028 (Hartree/Particle)
 Thermal correction to Energy=                    0.245605
 Thermal correction to Enthalpy=                  0.246550
 Thermal correction to Gibbs Free Energy=         0.196607
 Sum of electronic and zero-point Energies=           -574.057795
 Sum of electronic and thermal Energies=              -574.046218
 Sum of electronic and thermal Enthalpies=            -574.045274
 Sum of electronic and thermal Free Energies=         -574.095216

                     E (Thermal)             CV                S
                      KCal/Mol        Cal/Mol-Kelvin    Cal/Mol-Kelvin
 Total                  154.120             45.547            105.112
 Electronic               0.000              0.000              0.000
 Translational            0.889              2.981             41.439
 Rotational               0.889              2.981             31.300
 Vibrational            152.342             39.586             32.374
 Vibration     1          0.598              1.970              4.256
 Vibration     2          0.601              1.959              3.759
 Vibration     3          0.607              1.939              3.221
 Vibration     4          0.623              1.888              2.519
 Vibration     5          0.629              1.868              2.339
 Vibration     6          0.645              1.819              2.003
 Vibration     7          0.672              1.734              1.615
 Vibration     8          0.689              1.684              1.448
 Vibration     9          0.702              1.645              1.337
 Vibration    10          0.725              1.581              1.178
 Vibration    11          0.731              1.564              1.142
 Vibration    12          0.776              1.445              0.920
 Vibration    13          0.792              1.402              0.855
 Vibration    14          0.817              1.342              0.770
 Vibration    15          0.895              1.162              0.566
 Vibration    16          0.905              1.141              0.545
 Vibration    17          0.972              1.005              0.428

 Optimization completed.
    -- Stationary point found.
 Normal termination of Gaussian 16 at Wed Dec  9 23:11:27 2020.

 ----------------------------------------------------------------------
 # B3LYP/6-311++G(d,p) empiricaldispersion=gd3bj scf=xqc pop=npa geom=c
 heck
 ----------------------------------------------------------------------

 --------------------------------------
 CID_50989747_JID_3385_Energie_neutraal
 --------------------------------------
 Structure from the checkpoint file:  "JID_3385.chk"
 Charge =  0 Multiplicity = 1

 SCF Done:  E(RB3LYP) =  -574.458084048     A.U. after   15 cycles
 Normal termination of Gaussian 16 at Wed Dec  9 23:14:46 2020.

 ----------------------------------------------------------------------
 # B3LYP/6-311++G(d,p) empiricaldispersion=gd3bj scf=xqc pop=npa geom=c
 heck
 ----------------------------------------------------------------------

 ------------------------------------
 CID_50989747_JID_3385_Energie_kation
 ------------------------------------
 Structure from the checkpoint file:  "JID_3385.chk"
 Charge =  1 Multiplicity = 2

 SCF Done:  E(UB3LYP) =  -574.181493068     A.U. after   23 cycles
 Normal termination of Gaussian 16 at Wed Dec  9 23:22:03 2020.
 Gaussian 16:  ES64L-G16RevA.03 25-Dec-2016

 ----------------------------------------------------------------------
 # B3LYP/6-311++G(d,p) empiricaldispersion=gd3bj scf=xqc pop=npa geom=c
 heck
 ----------------------------------------------------------------------

 -----------------------------------
 CID_50989747_JID_3385_Energie_anion
 -----------------------------------
 Structure from the checkpoint file:  "JID_3385.chk"
 Charge = -1 Multiplicity = 2

                         Standard orientation:
 ---------------------------------------------------------------------
 Center     Atomic      Atomic             Coordinates (Angstroms)
 Number     Number       Type             X           Y           Z
 ---------------------------------------------------------------------
      1          6           0       -3.151800   -1.143326   -0.384185
      2          6           0       -3.436246    0.142586    0.398702
      3          6           0       -2.417752    1.230324    0.035223
      4          6           0       -1.010752    0.691218    0.011551
      5          6           0       -0.697260   -0.641348   -0.021131
      6          6           0       -1.773581   -1.704786   -0.015156
      7          6           0        0.686062   -0.999769   -0.053443
      8          6           0        1.693084   -0.077574   -0.059875
      9          6           0        1.378875    1.342509   -0.042693
     10          8           0        2.196291    2.265060   -0.062260
     11          7           0        0.005760    1.614212    0.001040
     12          6           0        3.157012   -0.432273   -0.096855
     13          7           0        3.381190   -1.856660    0.169645
     14          1           0       -3.927251   -1.892465   -0.188408
     15          1           0       -3.182407   -0.924268   -1.460355
     16          1           0       -3.376082   -0.067664    1.474830
     17          1           0       -4.450175    0.507020    0.200103
     18          1           0       -2.480577    2.067300    0.743967
     19          1           0       -2.656920    1.648181   -0.954423
     20          1           0       -1.496004   -2.509447   -0.707655
     21          1           0       -1.826267   -2.171088    0.980689
     22          1           0        0.959098   -2.051887   -0.086380
     23          1           0       -0.216107    2.603399    0.019622
     24          1           0        3.550462   -0.208335   -1.097935
     25          1           0        3.688251    0.253698    0.582682
     26          1           0        4.361152   -2.078330    0.007203
     27          1           0        3.207990   -2.044829    1.156517
 ---------------------------------------------------------------------

 SCF Done:  E(UB3LYP) =  -574.448988229     A.U. after   33 cycles
 SCF Done:  E(UB3LYP) =  -574.448988229     a.u. after    1 cycles

 The electronic state is 2-A.
 Alpha  occ. eigenvalues --  -18.95812 -14.23678 -14.19241 -10.14337 -10.09599
 Alpha  occ. eigenvalues --  -10.08368 -10.07147 -10.06350 -10.06251 -10.06020
 Alpha  occ. eigenvalues --  -10.05505 -10.05231 -10.04895  -0.91219  -0.83169
 Alpha  occ. eigenvalues --   -0.78196  -0.72408  -0.68838  -0.63590  -0.63175
 Alpha  occ. eigenvalues --   -0.56304  -0.52596  -0.51455  -0.49744  -0.44562
 Alpha  occ. eigenvalues --   -0.41635  -0.39283  -0.38405  -0.36147  -0.34716
 Alpha  occ. eigenvalues --   -0.33123  -0.32927  -0.31762  -0.31133  -0.30367
 Alpha  occ. eigenvalues --   -0.28840  -0.28249  -0.27085  -0.26516  -0.25335
 Alpha  occ. eigenvalues --   -0.22981  -0.22035  -0.21282  -0.20415  -0.17008
 Alpha  occ. eigenvalues --   -0.14601  -0.13462  -0.09071   0.04579
 Alpha virt. eigenvalues --    0.06367   0.07038   0.08021   0.09063   0.09233
 Alpha virt. eigenvalues --    0.09840   0.10635   0.10762   0.11184   0.11672
 Alpha virt. eigenvalues --    0.12675   0.13281   0.13614   0.14099   0.15273

  Beta  occ. eigenvalues --  -18.95798 -14.23574 -14.19215 -10.14328 -10.09412
  Beta  occ. eigenvalues --  -10.08369 -10.07142 -10.06336 -10.06219 -10.05999
  Beta  occ. eigenvalues --  -10.05560 -10.05093 -10.04802  -0.91148  -0.82976
  Beta  occ. eigenvalues --   -0.78141  -0.72320  -0.68640  -0.63498  -0.63004
  Beta  occ. eigenvalues --   -0.56175  -0.52444  -0.51304  -0.49657  -0.44470
  Beta  occ. eigenvalues --   -0.41515  -0.39190  -0.38336  -0.36020  -0.34597
  Beta  occ. eigenvalues --   -0.33050  -0.32802  -0.31567  -0.30981  -0.30280
  Beta  occ. eigenvalues --   -0.28780  -0.28142  -0.26977  -0.26431  -0.25253
  Beta  occ. eigenvalues --   -0.22907  -0.21997  -0.21200  -0.20077  -0.16350
  Beta  occ. eigenvalues --   -0.14511  -0.13411  -0.08564
  Beta virt. eigenvalues --    0.06799   0.07377   0.08273   0.08412   0.09599
  Beta virt. eigenvalues --    0.09702   0.10153   0.10744   0.11127   0.11449
  Beta virt. eigenvalues --    0.11900   0.12753   0.13423   0.13838   0.14257

 Mulliken charges and spin densities:
               1          2
     1  C   -0.542600   0.237667
     2  C    0.121739  -0.407955
     3  C    0.246907  -0.850684
     4  C   -1.500973   0.155099
     5  C    1.156430  -0.153168
     6  C    0.519915  -0.893911
     7  C    1.282685   0.029660
     8  C   -0.059959   0.089372
     9  C   -0.792879   0.335769
    10  O   -0.406192   0.011119
    11  N   -0.209399   0.121825
    12  C    0.206853  -0.854518
    13  N   -0.378581   0.000692
    14  H   -0.388017   0.554381
    15  H    0.030200   0.109337
    16  H    0.070943   0.051521
    17  H   -0.749666   0.938395
    18  H    0.123422  -0.006006
    19  H   -0.423667   0.627527
    20  H    0.079760   0.051124
    21  H    0.026501   0.125259
    22  H    0.103244   0.100826
    23  H    0.240378   0.061586
    24  H    0.011334   0.169837
    25  H    0.132570   0.046796
    26  H    0.007117   0.234777
    27  H    0.091934   0.113672
 Sum of Mulliken charges =  -1.00000   1.00000

 Dipole moment (field-independent basis, Debye):
    X=              2.2027    Y=             -0.9615    Z=              2.4655  Tot=              3.4431
 Quadrupole moment (field-independent basis, Debye-Ang):
   XX=           -158.0585   YY=           -113.4061   ZZ=            -97.3389
   XY=             -1.7449   XZ=             -2.9901   YZ=              1.3177

 Summary of Natural Population Analysis:

                                       Natural Population
                Natural  -----------------------------------------------
    Atom  No    Charge         Core      Valence    Rydberg      Total
 -----------------------------------------------------------------------
      C    1   -0.18871      0.99964     2.17957    0.00950     3.18871
      C    2   -0.18587      0.99964     2.17694    0.00930     3.18587
      C    3   -0.20444      0.99960     2.19558    0.00926     3.20444
      C    4    0.14448      0.99946     1.84523    0.01083     2.85552
      C    5   -0.07101      0.99946     2.06318    0.00837     3.07101
      C    6   -0.18670      0.99961     2.17969    0.00741     3.18670
      C    7   -0.04955      0.99949     2.04117    0.00889     3.04955
      C    8   -0.05400      0.99947     2.04571    0.00882     3.05400
      C    9    0.31503      0.99958     1.66414    0.02124     2.68497
      O   10   -0.34944      0.99988     3.34387    0.00569     4.34944
      N   11   -0.26881      0.99963     2.76103    0.00814     3.76881
      C   12   -0.09777      0.99960     2.08563    0.01255     3.09777
      N   13   -0.42288      0.99978     2.91267    0.01044     3.92288
      H   14    0.09788      0.00000     0.40098    0.00114     0.40212
      H   15    0.09583      0.00000     0.40252    0.00166     0.40417
      H   16    0.09217      0.00000     0.40646    0.00137     0.40783
      H   17    0.10299      0.00000     0.39411    0.00290     0.39701
      H   18    0.09911      0.00000     0.39967    0.00122     0.40089
      H   19    0.10895      0.00000     0.38793    0.00311     0.39105
      H   20    0.09983      0.00000     0.39882    0.00135     0.40017
      H   21    0.09412      0.00000     0.40443    0.00145     0.40588
      H   22    0.10436      0.00000     0.39411    0.00153     0.39564
      H   23    0.19270      0.00000     0.30449    0.00281     0.30730
      H   24    0.09698      0.00000     0.40163    0.00139     0.40302
      H   25    0.09027      0.00000     0.40799    0.00173     0.40973
      H   26    0.17372      0.00000     0.32450    0.00178     0.32628
      H   27    0.17076      0.00000     0.32756    0.00168     0.32924
 =======================================================================
   * Total *    0.00000     12.99483    34.84959    0.15557    48.00000

 Normal termination of Gaussian 16 at Wed Dec  9 23:32:23 2020.
