 Gaussian 16, Revision A.03,

 -----------------------------------------------------------
 # opt freq B3LYP/6-31G(d) empiricaldispersion=gd3bj scf=xqc
 -----------------------------------------------------------

 ------------------------------
 CID_64889084_JID_7101_neutraal
 ------------------------------
 Symbolic Z-matrix:
 Charge =  0 Multiplicity = 1

 SCF Done:  E(RB3LYP) =  -841.679776220     A.U. after   14 cycles
 SCF Done:  E(RB3LYP) =  -841.684502233     A.U. after   13 cycles
 SCF Done:  E(RB3LYP) =  -841.682919252     A.U. after   13 cycles
 SCF Done:  E(RB3LYP) =  -841.688287674     A.U. after   12 cycles
 SCF Done:  E(RB3LYP) =  -841.687875443     A.U. after   13 cycles
 SCF Done:  E(RB3LYP) =  -841.690918815     A.U. after   13 cycles
 SCF Done:  E(RB3LYP) =  -841.691676331     A.U. after   12 cycles
 SCF Done:  E(RB3LYP) =  -841.691922450     A.U. after   12 cycles
 SCF Done:  E(RB3LYP) =  -841.692097610     A.U. after   12 cycles
 SCF Done:  E(RB3LYP) =  -841.692179215     A.U. after   11 cycles
 SCF Done:  E(RB3LYP) =  -841.692357040     A.U. after    8 cycles
 SCF Done:  E(RB3LYP) =  -841.692357161     A.U. after    8 cycles
 SCF Done:  E(RB3LYP) =  -841.692357210     A.U. after    7 cycles
 SCF Done:  E(RB3LYP) =  -841.692357220     A.U. after    6 cycles
 Optimization completed.
    -- Stationary point found.
 Normal termination of Gaussian 16 at Fri Dec 11 12:05:04 2020.

 --------------------------------------------------------------------
 #N Geom=AllCheck Guess=TCheck SCRF=Check GenChk RB3LYP/6-31G(d) Freq
 --------------------------------------------------------------------

 Structure from the checkpoint file:  "JID_7101.chk"
 ------------------------------
 CID_64889084_JID_7101_neutraal
 ------------------------------
 Charge =  0 Multiplicity = 1

 SCF Done:  E(RB3LYP) =  -841.692357220     A.U. after    1 cycles

  Exact polarizability: 161.119   1.793 135.097   2.413  -5.254 113.509
 Approx polarizability: 208.708   2.558 192.709   8.063  -6.781 176.765

                      1                      2                      3
                      A                      A                      A
 Frequencies --     24.2295                37.7316                47.2792
 Red. masses --      5.3233                 4.2004                 4.6976
 Frc consts  --      0.0018                 0.0035                 0.0062
 IR Inten    --      0.0256                 0.3004                 0.5598

                      4                      5                      6
                      A                      A                      A
 Frequencies --     58.2491                78.7310                90.1870
 Red. masses --      3.9014                 7.9660                 4.4181
 Frc consts  --      0.0078                 0.0291                 0.0212
 IR Inten    --      0.0953                 6.7152                 0.3902

                      7                      8                      9
                      A                      A                      A
 Frequencies --    109.5712               120.4150               150.6777
 Red. masses --      2.5692                 2.5901                 4.7131
 Frc consts  --      0.0182                 0.0221                 0.0630
 IR Inten    --      1.6925                 4.8803                 1.4577

                     10                     11                     12
                      A                      A                      A
 Frequencies --    170.4635               192.0626               198.9122
 Red. masses --      3.5019                 3.7068                 3.2489
 Frc consts  --      0.0600                 0.0806                 0.0757
 IR Inten    --      4.3650                 1.7940                 1.7023

                     13                     14                     15
                      A                      A                      A
 Frequencies --    232.7555               237.3062               253.5037
 Red. masses --      1.2730                 2.0542                 1.2487
 Frc consts  --      0.0406                 0.0682                 0.0473
 IR Inten    --      1.1705                 2.8611                 1.0643

                     16                     17                     18
                      A                      A                      A
 Frequencies --    270.9241               284.3033               329.8127
 Red. masses --      3.8157                 2.7030                 3.0799
 Frc consts  --      0.1650                 0.1287                 0.1974
 IR Inten    --      0.7940                 1.5709                 0.1349

                     19                     20                     21
                      A                      A                      A
 Frequencies --    364.6567               399.5661               410.3136
 Red. masses --      3.2436                 3.0901                 2.5011
 Frc consts  --      0.2541                 0.2907                 0.2481
 IR Inten    --      6.4702                 5.0578                 4.3025

                     22                     23                     24
                      A                      A                      A
 Frequencies --    428.0805               457.5691               502.2429
 Red. masses --      2.7885                 2.2400                 4.6734
 Frc consts  --      0.3011                 0.2763                 0.6946
 IR Inten    --      0.5412                 1.5801                11.2757

                     25                     26                     27
                      A                      A                      A
 Frequencies --    558.4486               592.6608               614.4439
 Red. masses --      2.7240                 3.0656                 1.3007
 Frc consts  --      0.5005                 0.6344                 0.2893
 IR Inten    --      5.3750                30.4533                94.0694

                     28                     29                     30
                      A                      A                      A
 Frequencies --    666.3110               686.4319               710.9178
 Red. masses --      3.0320                 2.9405                 2.3831
 Frc consts  --      0.7931                 0.8163                 0.7096
 IR Inten    --     22.9016                38.8690                64.0593

                     31                     32                     33
                      A                      A                      A
 Frequencies --    751.7780               780.4154               789.1260
 Red. masses --      2.0315                 4.8979                 1.2663
 Frc consts  --      0.6765                 1.7576                 0.4646
 IR Inten    --     22.5980                 5.5546                 8.5495

                     34                     35                     36
                      A                      A                      A
 Frequencies --    831.9610               838.4959               854.2885
 Red. masses --      2.7690                 5.0214                 1.7052
 Frc consts  --      1.1292                 2.0801                 0.7332
 IR Inten    --     15.0958                41.3663                 2.9565

                     37                     38                     39
                      A                      A                      A
 Frequencies --    897.9920               922.9614               937.4916
 Red. masses --      3.6843                 2.7894                 2.0707
 Frc consts  --      1.7505                 1.4000                 1.0723
 IR Inten    --     27.8483                17.7032                28.8593

                     40                     41                     42
                      A                      A                      A
 Frequencies --    945.0447               960.0126               981.0189
 Red. masses --      1.1846                 1.7416                 1.4261
 Frc consts  --      0.6233                 0.9457                 0.8086
 IR Inten    --      0.9121                 7.0559                 0.3362

                     43                     44                     45
                      A                      A                      A
 Frequencies --    990.0558               996.8178              1005.5996
 Red. masses --      2.3491                 2.3155                 1.6102
 Frc consts  --      1.3566                 1.3556                 0.9594
 IR Inten    --     18.7533                 1.9513                15.7886

                     46                     47                     48
                      A                      A                      A
 Frequencies --   1036.3855              1070.5777              1089.3497
 Red. masses --      1.9362                 3.2692                 3.1842
 Frc consts  --      1.2253                 2.2077                 2.2263
 IR Inten    --     11.8709                 3.3738               127.8713

                     49                     50                     51
                      A                      A                      A
 Frequencies --   1107.8745              1119.1202              1167.8063
 Red. masses --      2.4489                 5.7684                 2.2213
 Frc consts  --      1.7710                 4.2565                 1.7848
 IR Inten    --     28.2374                 1.6856                 3.2069

                     52                     53                     54
                      A                      A                      A
 Frequencies --   1177.5318              1181.0222              1198.2513
 Red. masses --      2.3371                 2.4477                 2.0594
 Frc consts  --      1.9093                 2.0116                 1.7421
 IR Inten    --     62.1388                74.8375                17.7239

                     55                     56                     57
                      A                      A                      A
 Frequencies --   1207.2150              1211.1563              1235.6465
 Red. masses --      1.7538                 1.4717                 1.6416
 Frc consts  --      1.5059                 1.2720                 1.4768
 IR Inten    --     10.6131                24.9247                50.3974

                     58                     59                     60
                      A                      A                      A
 Frequencies --   1256.3538              1265.7784              1300.3241
 Red. masses --      1.4035                 1.3911                 1.4170
 Frc consts  --      1.3053                 1.3132                 1.4116
 IR Inten    --     43.6847                45.7513                28.3866

                     61                     62                     63
                      A                      A                      A
 Frequencies --   1316.5308              1340.7755              1343.7270
 Red. masses --      1.2525                 1.3808                 1.1692
 Frc consts  --      1.2790                 1.4625                 1.2438
 IR Inten    --      3.6136                16.8241                27.9394

                     64                     65                     66
                      A                      A                      A
 Frequencies --   1373.7510              1377.9810              1388.2587
 Red. masses --      1.8106                 1.5380                 1.5051
 Frc consts  --      2.0132                 1.7207                 1.7091
 IR Inten    --     85.3343                 8.2253                18.7065

                     67                     68                     69
                      A                      A                      A
 Frequencies --   1392.4246              1405.2148              1424.8216
 Red. masses --      1.3817                 2.2642                 1.3916
 Frc consts  --      1.5783                 2.6342                 1.6645
 IR Inten    --      5.1843               164.7044                10.3378

                     70                     71                     72
                      A                      A                      A
 Frequencies --   1432.3249              1435.2596              1454.3381
 Red. masses --      1.3492                 1.5835                 1.2488
 Frc consts  --      1.6309                 1.9219                 1.5562
 IR Inten    --      4.1558                59.1831                 1.0628

                     73                     74                     75
                      A                      A                      A
 Frequencies --   1488.1521              1494.4050              1510.7366
 Red. masses --      1.2894                 1.5288                 1.0767
 Frc consts  --      1.6824                 2.0116                 1.4479
 IR Inten    --     22.5105                 8.0165                 0.6811

                     76                     77                     78
                      A                      A                      A
 Frequencies --   1518.7785              1520.1191              1526.0738
 Red. masses --      1.1295                 1.0555                 1.0600
 Frc consts  --      1.5351                 1.4371                 1.4545
 IR Inten    --      1.7869                 3.4749                 8.2781

                     79                     80                     81
                      A                      A                      A
 Frequencies --   1534.3102              1541.6462              1545.5889
 Red. masses --      1.0566                 1.0576                 1.0842
 Frc consts  --      1.4654                 1.4809                 1.5260
 IR Inten    --      5.2886                14.9106                 3.3721

                     82                     83                     84
                      A                      A                      A
 Frequencies --   1548.8688              1559.2191              1805.1635
 Red. masses --      1.0745                 1.0945                 6.6128
 Frc consts  --      1.5188                 1.5678                12.6960
 IR Inten    --      5.2866                 2.9061               452.3870

                     85                     86                     87
                      A                      A                      A
 Frequencies --   1842.6629              3001.6490              3006.5566
 Red. masses --     10.4369                 1.0772                 1.0809
 Frc consts  --     20.8793                 5.7185                 5.7568
 IR Inten    --    284.6548                14.8920                60.1540

                     88                     89                     90
                      A                      A                      A
 Frequencies --   3023.3260              3024.2472              3039.0978
 Red. masses --      1.0651                 1.0720                 1.0360
 Frc consts  --      5.7361                 5.7767                 5.6377
 IR Inten    --     22.0200                63.0614                38.9781

                     91                     92                     93
                      A                      A                      A
 Frequencies --   3050.5886              3056.1109              3074.3168
 Red. masses --      1.0362                 1.0584                 1.0974
 Frc consts  --      5.6817                 5.8240                 6.1108
 IR Inten    --     11.2525                50.1852                38.7616

                     94                     95                     96
                      A                      A                      A
 Frequencies --   3086.0549              3099.2487              3103.8518
 Red. masses --      1.0803                 1.0914                 1.1018
 Frc consts  --      6.0619                 6.1767                 6.2539
 IR Inten    --      6.5513                47.8061                42.7097

                     97                     98                     99
                      A                      A                      A
 Frequencies --   3110.2494              3114.0928              3125.2726
 Red. masses --      1.1026                 1.1015                 1.1021
 Frc consts  --      6.2844                 6.2936                 6.3421
 IR Inten    --     15.2900                69.9986                33.6202

                    100                    101                    102
                      A                      A                      A
 Frequencies --   3144.0481              3173.1639              3197.1043
 Red. masses --      1.1045                 1.0914                 1.0882
 Frc consts  --      6.4326                 6.4744                 6.5534
 IR Inten    --     16.8921                 4.7513                 1.3854

                    103                    104                    105
                      A                      A                      A
 Frequencies --   3505.2309              3576.7509              3678.8764
 Red. masses --      1.0734                 1.0750                 1.0640
 Frc consts  --      7.7703                 8.1028                 8.4846
 IR Inten    --     10.3097                18.3901                61.2972

 - Thermochemistry -
 -------------------
 Temperature   298.150 Kelvin.  Pressure   1.00000 Atm.
 Atom     1 has atomic number  6 and mass  12.00000

 Molecular mass:   244.14231 amu.
 Principal axes and moments of inertia in atomic units:
                           1         2         3
     Eigenvalues --  2353.858896190.867497337.13477
           X            0.99996  -0.00685   0.00588
           Y            0.00703   0.99948  -0.03142
           Z           -0.00566   0.03146   0.99949
 This molecule is an asymmetric top.
 Rotational symmetry number  1.
 Warning -- assumption of classical behavior for rotation
           may cause significant error
 Rotational temperatures (Kelvin)      0.03680     0.01399     0.01180
 Rotational constants (GHZ):           0.76672     0.29152     0.24597
 Zero-point vibrational energy     841556.0 (Joules/Mol)
                                  201.13672 (Kcal/Mol)
 Warning -- explicit consideration of  27 degrees of freedom as
           vibrations may cause significant error
 Vibrational temperatures:     34.86    54.29    68.02    83.81   113.28
          (Kelvin)            129.76   157.65   173.25   216.79   245.26
                              276.34   286.19   334.88   341.43   364.74
                              389.80   409.05   474.53   524.66   574.89
                              590.35   615.91   658.34   722.62   803.48
                              852.71   884.05   958.67   987.62  1022.85
                             1081.64  1122.84  1135.38  1197.01  1206.41
                             1229.13  1292.01  1327.94  1348.84  1359.71
                             1381.24  1411.47  1424.47  1434.20  1446.83
                             1491.13  1540.32  1567.33  1593.98  1610.16
                             1680.21  1694.21  1699.23  1724.02  1736.91
                             1742.58  1777.82  1807.61  1821.17  1870.88
                             1894.19  1929.08  1933.32  1976.52  1982.61
                             1997.39  2003.39  2021.79  2050.00  2060.80
                             2065.02  2092.47  2141.12  2150.12  2173.61
                             2185.18  2187.11  2195.68  2207.53  2218.09
                             2223.76  2228.48  2243.37  2597.23  2651.18
                             4318.70  4325.76  4349.89  4351.22  4372.58
                             4389.12  4397.06  4423.26  4440.14  4459.13
                             4465.75  4474.96  4480.49  4496.57  4523.58
                             4565.48  4599.92  5043.25  5146.15  5293.08

 Zero-point correction=                           0.320532 (Hartree/Particle)
 Thermal correction to Energy=                    0.338740
 Thermal correction to Enthalpy=                  0.339684
 Thermal correction to Gibbs Free Energy=         0.272892
 Sum of electronic and zero-point Energies=           -841.371825
 Sum of electronic and thermal Energies=              -841.353617
 Sum of electronic and thermal Enthalpies=            -841.352673
 Sum of electronic and thermal Free Energies=         -841.419465

                     E (Thermal)             CV                S
                      KCal/Mol        Cal/Mol-Kelvin    Cal/Mol-Kelvin
 Total                  212.563             66.915            140.576
 Electronic               0.000              0.000              0.000
 Translational            0.889              2.981             42.379
 Rotational               0.889              2.981             33.036
 Vibrational            210.785             60.953             65.161
 Vibration     1          0.593              1.985              6.253
 Vibration     2          0.594              1.982              5.375
 Vibration     3          0.595              1.979              4.928
 Vibration     4          0.596              1.974              4.516
 Vibration     5          0.600              1.963              3.922
 Vibration     6          0.602              1.956              3.656
 Vibration     7          0.606              1.942              3.276
 Vibration     8          0.609              1.932              3.094
 Vibration     9          0.618              1.902              2.664
 Vibration    10          0.626              1.879              2.430
 Vibration    11          0.634              1.851              2.208
 Vibration    12          0.637              1.841              2.143
 Vibration    13          0.654              1.791              1.858
 Vibration    14          0.656              1.784              1.823
 Vibration    15          0.665              1.757              1.706
 Vibration    16          0.675              1.727              1.590
 Vibration    17          0.683              1.703              1.508
 Vibration    18          0.713              1.616              1.261
 Vibration    19          0.738              1.545              1.102
 Vibration    20          0.766              1.471              0.964
 Vibration    21          0.774              1.448              0.926
 Vibration    22          0.790              1.409              0.865
 Vibration    23          0.816              1.344              0.773
 Vibration    24          0.858              1.245              0.653
 Vibration    25          0.914              1.121              0.527
 Vibration    26          0.950              1.047              0.462
 Vibration    27          0.974              1.001              0.425

 Optimization completed.
    -- Stationary point found.
 Normal termination of Gaussian 16 at Fri Dec 11 12:19:40 2020.

 ----------------------------------------------------------------------
 # B3LYP/6-311++G(d,p) empiricaldispersion=gd3bj scf=xqc pop=npa geom=c
 heck
 ----------------------------------------------------------------------

 --------------------------------------
 CID_64889084_JID_7101_Energie_neutraal
 --------------------------------------
 Structure from the checkpoint file:  "JID_7101.chk"
 Charge =  0 Multiplicity = 1

 SCF Done:  E(RB3LYP) =  -841.950909208     A.U. after   14 cycles
 Normal termination of Gaussian 16 at Fri Dec 11 12:25:39 2020.

 ----------------------------------------------------------------------
 # B3LYP/6-311++G(d,p) empiricaldispersion=gd3bj scf=xqc pop=npa geom=c
 heck
 ----------------------------------------------------------------------

 ------------------------------------
 CID_64889084_JID_7101_Energie_kation
 ------------------------------------
 Structure from the checkpoint file:  "JID_7101.chk"
 Charge =  1 Multiplicity = 2

 SCF Done:  E(UB3LYP) =  -841.625162624     A.U. after   33 cycles
 SCF Done:  E(UB3LYP) =  -841.627399756     a.u. after   12 cycles
 Normal termination of Gaussian 16 at Fri Dec 11 14:55:21 2020.
 Gaussian 16:  ES64L-G16RevA.03 25-Dec-2016

 ----------------------------------------------------------------------
 # B3LYP/6-311++G(d,p) empiricaldispersion=gd3bj scf=xqc pop=npa geom=c
 heck
 ----------------------------------------------------------------------

 -----------------------------------
 CID_64889084_JID_7101_Energie_anion
 -----------------------------------
 Structure from the checkpoint file:  "JID_7101.chk"
 Charge = -1 Multiplicity = 2

                         Standard orientation:
 ---------------------------------------------------------------------
 Center     Atomic      Atomic             Coordinates (Angstroms)
 Number     Number       Type             X           Y           Z
 ---------------------------------------------------------------------
      1          6           0        3.549237    1.211966   -0.582053
      2          6           0        3.835314   -0.207465   -0.070943
      3          6           0        4.862172   -0.177296    1.067676
      4          6           0        2.556752   -0.926409    0.391945
      5          6           0        1.483052   -1.024163   -0.689882
      6          7           0        0.344389   -1.836753   -0.249820
      7          6           0       -0.940161   -1.705301   -0.712538
      8          8           0       -1.703771   -2.652530   -0.837625
      9          7           0       -1.326212   -0.376256   -1.069252
     10          6           0       -1.713371    0.589463   -0.004777
     11          6           0       -1.883705    1.968349   -0.657265
     12          6           0       -0.434970    2.464989   -0.734004
     13          8           0        0.277120    1.810309    0.331228
     14          6           0       -0.592397    0.896842    0.992099
     15          6           0       -2.992787    0.073529    0.645317
     16          8           0       -4.111917    0.310382    0.248818
     17          8           0       -2.728332   -0.756144    1.678871
     18          1           0        3.000297    1.793435    0.166961
     19          1           0        2.943245    1.203421   -1.494294
     20          1           0        4.484353    1.735654   -0.811708
     21          1           0        4.266737   -0.789322   -0.900176
     22          1           0        4.484727    0.410705    1.913930
     23          1           0        5.084777   -1.186408    1.434281
     24          1           0        5.803351    0.278169    0.739450
     25          1           0        2.820760   -1.937616    0.734618
     26          1           0        2.142274   -0.400778    1.261857
     27          1           0        1.103876   -0.035746   -0.936855
     28          1           0        1.915576   -1.455181   -1.606518
     29          1           0        0.553901   -2.808984   -0.051882
     30          1           0       -2.138665   -0.489496   -1.673657
     31          1           0       -2.492376    2.604478   -0.007380
     32          1           0       -2.375990    1.913655   -1.630920
     33          1           0        0.033334    2.187330   -1.685183
     34          1           0       -0.353684    3.549789   -0.605900
     35          1           0       -1.031955    1.358924    1.888191
     36          1           0       -0.029642    0.016443    1.298485
     37          1           0       -3.581751   -1.140568    1.956414
 ---------------------------------------------------------------------

 SCF Done:  E(UB3LYP) =  -841.939342691     A.U. after   33 cycles
 SCF Done:  E(UB3LYP) =  -841.939342691     a.u. after    1 cycles

 The electronic state is 2-A.
 Alpha  occ. eigenvalues --  -19.08776 -19.03715 -19.03512 -19.00449 -14.24628
 Alpha  occ. eigenvalues --  -14.24329 -10.22422 -10.20968 -10.15192 -10.13220
 Alpha  occ. eigenvalues --  -10.12956 -10.11170 -10.09307 -10.08453 -10.07630
 Alpha  occ. eigenvalues --  -10.06867 -10.06156  -1.02914  -0.96644  -0.95449
 Alpha  occ. eigenvalues --   -0.94092  -0.84708  -0.82521  -0.72214  -0.70452
 Alpha  occ. eigenvalues --   -0.66400  -0.64508  -0.59264  -0.57917  -0.55050
 Alpha  occ. eigenvalues --   -0.53816  -0.51038  -0.49328  -0.47077  -0.45141
 Alpha  occ. eigenvalues --   -0.43563  -0.41359  -0.40710  -0.39853  -0.38312
 Alpha  occ. eigenvalues --   -0.37444  -0.36950  -0.36008  -0.35323  -0.34766
 Alpha  occ. eigenvalues --   -0.33825  -0.33450  -0.33062  -0.31420  -0.30907
 Alpha  occ. eigenvalues --   -0.29523  -0.29095  -0.28264  -0.27971  -0.27544
 Alpha  occ. eigenvalues --   -0.26805  -0.24761  -0.24474  -0.24370  -0.23787
 Alpha  occ. eigenvalues --   -0.23238  -0.21911  -0.19618  -0.17840  -0.16545
 Alpha  occ. eigenvalues --   -0.16203   0.04035
 Alpha virt. eigenvalues --    0.05673   0.06312   0.06857   0.07069   0.07499
 Alpha virt. eigenvalues --    0.08360   0.08730   0.09088   0.09652   0.10128
 Alpha virt. eigenvalues --    0.10430   0.11075   0.11228   0.11522   0.12747

  Beta  occ. eigenvalues --  -19.08735 -19.03716 -19.03501 -19.00444 -14.24615
  Beta  occ. eigenvalues --  -14.24312 -10.22417 -10.20966 -10.15185 -10.13202
  Beta  occ. eigenvalues --  -10.12934 -10.11157 -10.09288 -10.08441 -10.07615
  Beta  occ. eigenvalues --  -10.06846 -10.06139  -1.02859  -0.96634  -0.95443
  Beta  occ. eigenvalues --   -0.94049  -0.84690  -0.82496  -0.72186  -0.70420
  Beta  occ. eigenvalues --   -0.66359  -0.64479  -0.59224  -0.57856  -0.55010
  Beta  occ. eigenvalues --   -0.53770  -0.50987  -0.49284  -0.47028  -0.45098
  Beta  occ. eigenvalues --   -0.43528  -0.41330  -0.40682  -0.39822  -0.38290
  Beta  occ. eigenvalues --   -0.37404  -0.36916  -0.35979  -0.35289  -0.34742
  Beta  occ. eigenvalues --   -0.33799  -0.33424  -0.33032  -0.31398  -0.30879
  Beta  occ. eigenvalues --   -0.29499  -0.29067  -0.28234  -0.27939  -0.27512
  Beta  occ. eigenvalues --   -0.26781  -0.24735  -0.24449  -0.24345  -0.23753
  Beta  occ. eigenvalues --   -0.23202  -0.21891  -0.19590  -0.17823  -0.16522
  Beta  occ. eigenvalues --   -0.16190
  Beta virt. eigenvalues --    0.06051   0.06616   0.06892   0.07237   0.07486
  Beta virt. eigenvalues --    0.08145   0.08717   0.09135   0.09539   0.09975
  Beta virt. eigenvalues --    0.10259   0.10635   0.11400   0.11448   0.11663

 Mulliken charges and spin densities:
               1          2
     1  C   -0.042653  -0.693342
     2  C   -0.106229   0.560800
     3  C    0.158261  -0.809457
     4  C   -0.357398   0.018193
     5  C    0.039661  -0.420319
     6  N   -0.295983   0.063732
     7  C    0.248707  -0.104715
     8  O   -0.326475   0.025489
     9  N    0.136781  -0.074918
    10  C   -1.401937   0.825157
    11  C   -0.532166   0.102567
    12  C    0.305250  -0.457973
    13  O   -0.034578   0.035510
    14  C   -0.120461  -0.559775
    15  C    1.931347  -1.635470
    16  O   -0.277282   0.024649
    17  O   -0.119497   0.055034
    18  H    0.175466   0.009911
    19  H   -0.105731   0.241695
    20  H   -0.081445   0.220142
    21  H   -0.110887   0.252061
    22  H    0.029819   0.105843
    23  H   -0.182462   0.315351
    24  H   -0.104015   0.239868
    25  H    0.032663   0.108171
    26  H   -0.034853   0.159851
    27  H    0.792805  -0.611321
    28  H   -0.197482   0.402959
    29  H    0.086461   0.233582
    30  H    0.290068   0.036680
    31  H    0.031983   0.172517
    32  H   -0.183952   0.347222
    33  H    0.002112   0.145114
    34  H   -0.433189   0.614892
    35  H   -0.471854   0.666022
    36  H    0.421303  -0.094749
    37  H   -0.162159   0.479027
 Sum of Mulliken charges =  -1.00000   1.00000

 Dipole moment (field-independent basis, Debye):
    X=              0.2744    Y=              0.1203    Z=             -1.2978  Tot=              1.3319
 Quadrupole moment (field-independent basis, Debye-Ang):
   XX=           -190.9564   YY=           -156.5163   ZZ=           -137.8172
   XY=             -1.1917   XZ=              4.6680   YZ=             -1.1630

 Summary of Natural Population Analysis:

                                       Natural Population
                Natural  -----------------------------------------------
    Atom  No    Charge         Core      Valence    Rydberg      Total
 -----------------------------------------------------------------------
      C    1   -0.28836      0.99965     2.28219    0.00652     3.28836
      C    2   -0.11257      0.99962     2.10360    0.00936     3.11257
      C    3   -0.28067      0.99965     2.27615    0.00487     3.28067
      C    4   -0.19015      0.99961     2.18068    0.00986     3.19015
      C    5   -0.09284      0.99959     2.08375    0.00951     3.09284
      N    6   -0.32143      0.99966     2.81250    0.00927     3.82143
      C    7    0.41198      0.99970     1.56469    0.02363     2.58802
      O    8   -0.32267      0.99987     3.31745    0.00535     4.32267
      N    9   -0.34979      0.99969     2.83947    0.01063     3.84979
      C   10    0.01000      0.99949     1.97490    0.01561     2.99000
      C   11   -0.20144      0.99960     2.19162    0.01022     3.20144
      C   12   -0.00812      0.99959     1.99652    0.01201     3.00812
      O   13   -0.30343      0.99990     3.29448    0.00905     4.30343
      C   14   -0.01366      0.99952     2.00029    0.01384     3.01366
      C   15    0.40627      0.99962     1.56733    0.02679     2.59373
      O   16   -0.30218      0.99987     3.29621    0.00610     4.30218
      O   17   -0.33852      0.99987     3.33161    0.00704     4.33852
      H   18    0.10519      0.00000     0.39333    0.00148     0.39481
      H   19    0.09849      0.00000     0.40046    0.00105     0.40151
      H   20    0.09681      0.00000     0.40239    0.00080     0.40319
      H   21    0.09070      0.00000     0.40728    0.00203     0.40930
      H   22    0.09611      0.00000     0.40284    0.00105     0.40389
      H   23    0.09877      0.00000     0.40012    0.00111     0.40123
      H   24    0.09800      0.00000     0.40106    0.00094     0.40200
      H   25    0.09605      0.00000     0.40268    0.00127     0.40395
      H   26    0.09764      0.00000     0.40077    0.00159     0.40236
      H   27    0.11270      0.00000     0.38402    0.00328     0.38730
      H   28    0.08780      0.00000     0.41086    0.00134     0.41220
      H   29    0.19349      0.00000     0.30434    0.00217     0.30651
      H   30    0.19127      0.00000     0.30670    0.00203     0.30873
      H   31    0.10890      0.00000     0.38960    0.00150     0.39110
      H   32    0.11015      0.00000     0.38884    0.00101     0.38985
      H   33    0.08535      0.00000     0.41307    0.00157     0.41465
      H   34    0.09041      0.00000     0.40807    0.00152     0.40959
      H   35    0.09089      0.00000     0.40729    0.00183     0.40911
      H   36    0.10404      0.00000     0.39375    0.00222     0.39596
      H   37    0.24484      0.00000     0.24699    0.00817     0.25516
 =======================================================================
   * Total *    0.00000     16.99448    48.77790    0.22762    66.00000

 Normal termination of Gaussian 16 at Fri Dec 11 15:13:20 2020.
