 Gaussian 16, Revision A.03,

 -----------------------------------------------------------
 # opt freq B3LYP/6-31G(d) empiricaldispersion=gd3bj scf=xqc
 -----------------------------------------------------------

 -------------------------------
 CID_149874207_JID_9413_neutraal
 -------------------------------
 Symbolic Z-matrix:
 Charge =  0 Multiplicity = 1

 SCF Done:  E(RB3LYP) =  -845.932543772     A.U. after   16 cycles
 SCF Done:  E(RB3LYP) =  -845.939702197     A.U. after   14 cycles
 SCF Done:  E(RB3LYP) =  -845.941719865     A.U. after   14 cycles
 SCF Done:  E(RB3LYP) =  -845.942807213     A.U. after   14 cycles
 SCF Done:  E(RB3LYP) =  -845.943331072     A.U. after   13 cycles
 SCF Done:  E(RB3LYP) =  -845.943572668     A.U. after   12 cycles
 SCF Done:  E(RB3LYP) =  -845.943658988     A.U. after   11 cycles
 SCF Done:  E(RB3LYP) =  -845.943712505     A.U. after   11 cycles
 SCF Done:  E(RB3LYP) =  -845.943791997     A.U. after   11 cycles
 SCF Done:  E(RB3LYP) =  -845.943812103     A.U. after   11 cycles
 SCF Done:  E(RB3LYP) =  -845.943824111     A.U. after    9 cycles
 SCF Done:  E(RB3LYP) =  -845.943826326     A.U. after    9 cycles
 SCF Done:  E(RB3LYP) =  -845.943828429     A.U. after    9 cycles
 SCF Done:  E(RB3LYP) =  -845.943829262     A.U. after    9 cycles
 SCF Done:  E(RB3LYP) =  -845.943829401     A.U. after    8 cycles
 Optimization completed.
    -- Stationary point found.

 1\1\GINC-NODE218\FOpt\RB3LYP\6-31G(d)\C12H9N7\VSC10255\13-Dec-2020\0\\
 # opt freq B3LYP/6-31G(d) empiricaldispersion=gd3bj scf=xqc\\CID_14987
 4207_JID_9413_neutraal\\0,1\C,0.6155700171,1.2073091916,0.2606533165\C
 ,1.3866901615,0.0492268553,0.2942149569\C,0.7874708939,-1.1829554042,-
 0.0057833318\C,-0.5817952982,-1.1650226614,-0.3217001223\N,-1.33111639
 4,-0.0615257711,-0.3641983594\C,-0.7340292045,1.1021150004,-0.07665395
 7\C,1.5505245509,-2.4467565729,0.0045044041\C,1.3598451596,-3.42831630
 93,-0.962680604\C,2.0915879928,-4.6373177503,-0.9681057556\C,3.0407151

 Normal termination of Gaussian 16 at Sun Dec 13 20:15:05 2020.

 --------------------------------------------------------------------
 #N Geom=AllCheck Guess=TCheck SCRF=Check GenChk RB3LYP/6-31G(d) Freq
 --------------------------------------------------------------------

 Structure from the checkpoint file:  "JID_9413.chk"
 -------------------------------
 CID_149874207_JID_9413_neutraal
 -------------------------------
 Charge =  0 Multiplicity = 1

 SCF Done:  E(RB3LYP) =  -845.943829401     A.U. after    1 cycles

  Exact polarizability: 277.645  10.208 185.454   3.271  11.008  73.241
 Approx polarizability: 457.132  27.696 321.775   2.640  29.036 123.711

                      1                      2                      3
                      A                      A                      A
 Frequencies --     45.6532                55.3818                76.8511
 Red. masses --      7.5050                 5.6999                 5.6690
 Frc consts  --      0.0092                 0.0103                 0.0197
 IR Inten    --      0.0869                 1.9710                 0.8499

                      4                      5                      6
                      A                      A                      A
 Frequencies --     79.6144               110.1084               149.7653
 Red. masses --      6.2135                 8.0970                 7.5072
 Frc consts  --      0.0232                 0.0578                 0.0992
 IR Inten    --      0.5521                 0.4106                 1.4911

                      7                      8                      9
                      A                      A                      A
 Frequencies --    168.5873               216.3063               249.0996
 Red. masses --      4.3903                 5.5015                 4.7822
 Frc consts  --      0.0735                 0.1517                 0.1748
 IR Inten    --      5.1666                 0.3497                 0.6853

                     10                     11                     12
                      A                      A                      A
 Frequencies --    261.4937               284.5623               300.1831
 Red. masses --      1.8901                 2.0461                 3.7419
 Frc consts  --      0.0761                 0.0976                 0.1987
 IR Inten    --     38.8272                14.7237                 2.1984

                     13                     14                     15
                      A                      A                      A
 Frequencies --    321.1579               361.4337               395.3249
 Red. masses --      4.1139                 3.2779                 6.0188
 Frc consts  --      0.2500                 0.2523                 0.5542
 IR Inten    --     28.2343                35.1538                 2.2981

                     16                     17                     18
                      A                      A                      A
 Frequencies --    413.2416               433.3949               436.1773
 Red. masses --      3.1366                 5.9198                 2.2961
 Frc consts  --      0.3156                 0.6551                 0.2574
 IR Inten    --      3.9293                10.0599                37.4213

                     19                     20                     21
                      A                      A                      A
 Frequencies --    473.2128               534.6271               554.3013
 Red. masses --      4.5988                13.6374                 4.3913
 Frc consts  --      0.6068                 2.2966                 0.7949
 IR Inten    --      3.0871                 8.8442                 5.4228

                     22                     23                     24
                      A                      A                      A
 Frequencies --    600.2244               609.1476               629.2512
 Red. masses --      4.2243                 3.3697                 7.7148
 Frc consts  --      0.8967                 0.7367                 1.7998
 IR Inten    --     10.0427                 8.5388                 4.4231

                     25                     26                     27
                      A                      A                      A
 Frequencies --    646.2061               669.6076               671.1286
 Red. masses --      5.6822                 3.6985                 6.9125
 Frc consts  --      1.3980                 0.9770                 1.8344
 IR Inten    --     11.5569                49.2176                17.5103

                     28                     29                     30
                      A                      A                      A
 Frequencies --    727.2057               733.7622               737.8137
 Red. masses --      6.7093                 2.7912                 2.3836
 Frc consts  --      2.0905                 0.8854                 0.7645
 IR Inten    --     16.7304                34.3508                93.8775

                     31                     32                     33
                      A                      A                      A
 Frequencies --    766.2628               789.0096               830.2764
 Red. masses --      4.4247                 2.7919                 1.6447
 Frc consts  --      1.5307                 1.0240                 0.6680
 IR Inten    --     32.8002               143.4904                19.1976

                     34                     35                     36
                      A                      A                      A
 Frequencies --    867.0707               878.6764               898.7332
 Red. masses --      1.5065                 5.1079                 8.3924
 Frc consts  --      0.6673                 2.3235                 3.9939
 IR Inten    --     12.6816                 8.7958                 3.3735

                     37                     38                     39
                      A                      A                      A
 Frequencies --    904.6774               951.6302               973.8867
 Red. masses --      1.3989                 1.3441                 2.3675
 Frc consts  --      0.6746                 0.7172                 1.3230
 IR Inten    --     11.3205                 0.7331                15.3181

                     40                     41                     42
                      A                      A                      A
 Frequencies --    981.4457              1001.0395              1043.5106
 Red. masses --      2.4026                 1.3303                 4.2676
 Frc consts  --      1.3635                 0.7854                 2.7379
 IR Inten    --     10.0651                 1.9808                12.7675

                     43                     44                     45
                      A                      A                      A
 Frequencies --   1070.6560              1079.5761              1117.4630
 Red. masses --      3.1097                 2.2169                 2.1349
 Frc consts  --      2.1003                 1.5223                 1.5707
 IR Inten    --      8.0869                14.1598                 0.1602

                     46                     47                     48
                      A                      A                      A
 Frequencies --   1154.1049              1164.3688              1190.5567
 Red. masses --      1.4525                 3.1463                 3.0375
 Frc consts  --      1.1399                 2.5133                 2.5366
 IR Inten    --      5.9557                 8.9394                16.8496

                     49                     50                     51
                      A                      A                      A
 Frequencies --   1235.0105              1245.2096              1299.5311
 Red. masses --      1.4906                 1.7285                 4.2447
 Frc consts  --      1.3395                 1.5791                 4.2235
 IR Inten    --      6.5315                 8.1972                 1.8817

                     52                     53                     54
                      A                      A                      A
 Frequencies --   1307.0919              1318.5954              1361.2985
 Red. masses --      2.2557                 2.7917                 2.3390
 Frc consts  --      2.2706                 2.8599                 2.5538
 IR Inten    --      6.9251                19.1652                23.5141

                     55                     56                     57
                      A                      A                      A
 Frequencies --   1376.7346              1385.2677              1421.9961
 Red. masses --      7.4359                 1.6837                 3.3413
 Frc consts  --      8.3039                 1.9036                 3.9807
 IR Inten    --    127.8239                40.4270                54.9453

                     58                     59                     60
                      A                      A                      A
 Frequencies --   1452.7442              1474.3472              1482.1427
 Red. masses --      3.4465                 2.7711                 2.8766
 Frc consts  --      4.2855                 3.5490                 3.7231
 IR Inten    --     73.7683                 8.3183                10.7525

                     61                     62                     63
                      A                      A                      A
 Frequencies --   1524.0226              1541.2778              1597.3113
 Red. masses --      2.6423                 4.2906                 4.2319
 Frc consts  --      3.6159                 6.0053                 6.3615
 IR Inten    --     58.6116                86.9449                52.3960

                     64                     65                     66
                      A                      A                      A
 Frequencies --   1620.5091              1646.2540              1649.0465
 Red. masses --      4.8248                 5.3322                 5.6386
 Frc consts  --      7.4650                 8.5143                 9.0342
 IR Inten    --     21.9900                 5.8080                 0.8998

                     67                     68                     69
                      A                      A                      A
 Frequencies --   1663.8930              1685.9030              2263.9492
 Red. masses --      6.8174                 1.3664                13.9866
 Frc consts  --     11.1204                 2.2882                42.2372
 IR Inten    --     33.1811               113.9731               856.9806

                     70                     71                     72
                      A                      A                      A
 Frequencies --   3175.4766              3179.8750              3197.7802
 Red. masses --      1.0887                 1.0903                 1.0896
 Frc consts  --      6.4680                 6.4958                 6.5646
 IR Inten    --     24.2454                10.6169                11.8026

                     73                     74                     75
                      A                      A                      A
 Frequencies --   3201.1102              3215.3548              3220.5525
 Red. masses --      1.0908                 1.0968                 1.0906
 Frc consts  --      6.5854                 6.6807                 6.6644
 IR Inten    --      2.7225                18.4448                 1.2711

                     76                     77                     78
                      A                      A                      A
 Frequencies --   3525.8948              3624.7628              3671.1248
 Red. masses --      1.0480                 1.0967                 1.0802
 Frc consts  --      7.6761                 8.4901                 8.5776
 IR Inten    --     12.5113                13.7687                66.9035

 - Thermochemistry -
 -------------------
 Temperature   298.150 Kelvin.  Pressure   1.00000 Atm.
 Atom     1 has atomic number  6 and mass  12.00000

 Molecular mass:   251.09194 amu.
 Principal axes and moments of inertia in atomic units:
                           1         2         3
     Eigenvalues --  3280.163756985.47560**********
           X            0.99979  -0.01964   0.00497
           Y            0.01963   0.99981   0.00160
           Z           -0.00500  -0.00151   0.99999
 This molecule is an asymmetric top.
 Rotational symmetry number  1.
 Warning -- assumption of classical behavior for rotation
           may cause significant error
 Rotational temperatures (Kelvin)      0.02641     0.01240     0.00866
 Rotational constants (GHZ):           0.55020     0.25836     0.18036
 Zero-point vibrational energy     545328.7 (Joules/Mol)
                                  130.33669 (Kcal/Mol)
 Warning -- explicit consideration of  23 degrees of freedom as
           vibrations may cause significant error
 Vibrational temperatures:     65.68    79.68   110.57   114.55   158.42
          (Kelvin)            215.48   242.56   311.22   358.40   376.23
                              409.42   431.90   462.07   520.02   568.78
                              594.56   623.56   627.56   680.85   769.21
                              797.52   863.59   876.43   905.35   929.75
                              963.42   965.60  1046.29  1055.72  1061.55
                             1102.48  1135.21  1194.58  1247.52  1264.22
                             1293.08  1301.63  1369.18  1401.21  1412.08
                             1440.27  1501.38  1540.44  1553.27  1607.78
                             1660.50  1675.27  1712.95  1776.90  1791.58
                             1869.74  1880.61  1897.16  1958.60  1980.81
                             1993.09  2045.94  2090.17  2121.26  2132.47
                             2192.73  2217.55  2298.17  2331.55  2368.59
                             2372.61  2393.97  2425.64  3257.32  4568.80
                             4575.13  4600.89  4605.68  4626.18  4633.66
                             5072.98  5215.23  5281.93

 Zero-point correction=                           0.207705 (Hartree/Particle)
 Thermal correction to Energy=                    0.222699
 Thermal correction to Enthalpy=                  0.223643
 Thermal correction to Gibbs Free Energy=         0.164817
 Sum of electronic and zero-point Energies=           -845.736125
 Sum of electronic and thermal Energies=              -845.721131
 Sum of electronic and thermal Enthalpies=            -845.720187
 Sum of electronic and thermal Free Energies=         -845.779013

                     E (Thermal)             CV                S
                      KCal/Mol        Cal/Mol-Kelvin    Cal/Mol-Kelvin
 Total                  139.745             58.243            123.810
 Electronic               0.000              0.000              0.000
 Translational            0.889              2.981             42.462
 Rotational               0.889              2.981             33.794
 Vibrational            137.968             52.281             47.554
 Vibration     1          0.595              1.979              4.997
 Vibration     2          0.596              1.975              4.615
 Vibration     3          0.599              1.965              3.970
 Vibration     4          0.600              1.963              3.900
 Vibration     5          0.606              1.941              3.267
 Vibration     6          0.618              1.903              2.675
 Vibration     7          0.625              1.881              2.451
 Vibration     8          0.645              1.816              1.990
 Vibration     9          0.662              1.764              1.737
 Vibration    10          0.669              1.743              1.652
 Vibration    11          0.683              1.702              1.506
 Vibration    12          0.693              1.673              1.416
 Vibration    13          0.707              1.633              1.304
 Vibration    14          0.736              1.552              1.116
 Vibration    15          0.762              1.480              0.980
 Vibration    16          0.777              1.441              0.915
 Vibration    17          0.794              1.397              0.848
 Vibration    18          0.797              1.391              0.839
 Vibration    19          0.830              1.309              0.729
 Vibration    20          0.890              1.173              0.577
 Vibration    21          0.910              1.130              0.535
 Vibration    22          0.958              1.031              0.449
 Vibration    23          0.968              1.012              0.434

 Optimization completed.
    -- Stationary point found.

 1\1\GINC-NODE218\Freq\RB3LYP\6-31G(d)\C12H9N7\VSC10255\13-Dec-2020\0\\
 #N Geom=AllCheck Guess=TCheck SCRF=Check GenChk RB3LYP/6-31G(d) Freq\\
 CID_149874207_JID_9413_neutraal\\0,1\C,0.6155700171,1.2073091916,0.260
 6533165\C,1.3866901615,0.0492268553,0.2942149569\C,0.7874708939,-1.182
 9554042,-0.0057833318\C,-0.5817952982,-1.1650226614,-0.3217001223\N,-1
 .331116394,-0.0615257711,-0.3641983594\C,-0.7340292045,1.1021150004,-0
 .076653957\C,1.5505245509,-2.4467565729,0.0045044041\C,1.3598451596,-3
 .4283163093,-0.962680604\C,2.0915879928,-4.6373177503,-0.9681057556\C,

 Normal termination of Gaussian 16 at Sun Dec 13 20:27:06 2020.

 ----------------------------------------------------------------------
 # B3LYP/6-311++G(d,p) empiricaldispersion=gd3bj scf=xqc pop=npa geom=c
 heck
 ----------------------------------------------------------------------

 ---------------------------------------
 CID_149874207_JID_9413_Energie_neutraal
 ---------------------------------------
 Structure from the checkpoint file:  "JID_9413.chk"
 Charge =  0 Multiplicity = 1

 SCF Done:  E(RB3LYP) =  -846.167433744     A.U. after   17 cycles
 Normal termination of Gaussian 16 at Sun Dec 13 20:32:26 2020.

 ----------------------------------------------------------------------
 # B3LYP/6-311++G(d,p) empiricaldispersion=gd3bj scf=xqc pop=npa geom=c
 heck
 ----------------------------------------------------------------------

 -------------------------------------
 CID_149874207_JID_9413_Energie_kation
 -------------------------------------
 Structure from the checkpoint file:  "JID_9413.chk"
 Charge =  1 Multiplicity = 2

 SCF Done:  E(UB3LYP) =  -845.894037266     A.U. after   28 cycles
 Normal termination of Gaussian 16 at Sun Dec 13 20:44:53 2020.
 Gaussian 16:  ES64L-G16RevA.03 25-Dec-2016

 ------------------------------------
 CID_149874207_JID_9413_Energie_anion
 ------------------------------------
 Structure from the checkpoint file:  "JID_9413.chk"
 Charge = -1 Multiplicity = 2

                         Standard orientation:
 ---------------------------------------------------------------------
 Center     Atomic      Atomic             Coordinates (Angstroms)
 Number     Number       Type             X           Y           Z
 ---------------------------------------------------------------------
      1          6           0        4.270994    0.295704    0.739600
      2          6           0        2.889922    0.464373    0.772739
      3          6           0        2.075045   -0.400523    0.027578
      4          6           0        2.722575   -1.397158   -0.722381
      5          7           0        4.044837   -1.574258   -0.757751
      6          6           0        4.799814   -0.737043   -0.035023
      7          6           0        0.603610   -0.280421    0.025233
      8          6           0       -0.225015   -1.397249    0.061864
      9          6           0       -1.634398   -1.293635    0.069911
     10          6           0       -2.266082   -0.054766    0.030387
     11          6           0       -1.455985    1.085459   -0.033727
     12          6           0       -0.045655    0.973335   -0.025853
     13          7           0        0.437328    2.252390   -0.064432
     14          7           0       -0.571141    3.182571   -0.195336
     15          6           0       -1.699658    2.500341   -0.138176
     16          7           0       -2.942038    3.125306   -0.111265
     17          7           0       -2.325718   -2.535861    0.136025
     18          7           0       -3.560732   -2.508447    0.148771
     19          7           0       -4.697849   -2.614172    0.166060
     20          1           0        4.926551    0.943936    1.312929
     21          1           0        2.441353    1.237092    1.390624
     22          1           0        2.131372   -2.073938   -1.336573
     23          1           0        5.874619   -0.901184   -0.079381
     24          1           0        0.208364   -2.389807    0.118910
     25          1           0       -3.348843    0.025096    0.055893
     26          1           0        1.371448    2.536539   -0.314497
     27          1           0       -3.637000    2.668274   -0.691940
     28          1           0       -2.871675    4.110785   -0.343371
 ---------------------------------------------------------------------

 SCF Done:  E(UB3LYP) =  -846.187697017     A.U. after   33 cycles
 SCF Done:  E(UB3LYP) =  -846.187697017     a.u. after    1 cycles

 The electronic state is 2-A.
 Alpha  occ. eigenvalues --  -14.37182 -14.27250 -14.25697 -14.24990 -14.21636
 Alpha  occ. eigenvalues --  -14.20130 -14.18564 -10.10670 -10.09289 -10.08424
 Alpha  occ. eigenvalues --  -10.08019 -10.07310 -10.06370 -10.05966 -10.05847
 Alpha  occ. eigenvalues --  -10.05027 -10.04756 -10.04349 -10.03778  -1.03414
 Alpha  occ. eigenvalues --   -0.91522  -0.87817  -0.81930  -0.80918  -0.73769
 Alpha  occ. eigenvalues --   -0.69521  -0.67844  -0.65417  -0.64590  -0.60868
 Alpha  occ. eigenvalues --   -0.54979  -0.51943  -0.50805  -0.49544  -0.47469
 Alpha  occ. eigenvalues --   -0.44140  -0.42698  -0.40687  -0.40547  -0.39760
 Alpha  occ. eigenvalues --   -0.39038  -0.36558  -0.36232  -0.35294  -0.35011
 Alpha  occ. eigenvalues --   -0.33182  -0.31871  -0.30706  -0.30625  -0.28584
 Alpha  occ. eigenvalues --   -0.28158  -0.27730  -0.25297  -0.24822  -0.23191
 Alpha  occ. eigenvalues --   -0.22615  -0.20356  -0.18999  -0.17780  -0.17060
 Alpha  occ. eigenvalues --   -0.15907  -0.13880  -0.12860  -0.11063  -0.08076
 Alpha  occ. eigenvalues --    0.03165
 Alpha virt. eigenvalues --    0.06853   0.07405   0.07970   0.08229   0.09089
 Alpha virt. eigenvalues --    0.09905   0.10277   0.10569   0.10797   0.11613
 Alpha virt. eigenvalues --    0.12201   0.12761   0.13521   0.14539   0.15014

  Beta  occ. eigenvalues --  -14.37116 -14.27152 -14.25727 -14.25010 -14.21635
  Beta  occ. eigenvalues --  -14.19971 -14.18543 -10.10617 -10.09341 -10.08413
  Beta  occ. eigenvalues --  -10.07987 -10.07058 -10.06438 -10.05796 -10.05725
  Beta  occ. eigenvalues --  -10.04830 -10.04738 -10.04215 -10.03380  -1.03296
  Beta  occ. eigenvalues --   -0.91384  -0.87774  -0.81732  -0.80891  -0.73433
  Beta  occ. eigenvalues --   -0.69244  -0.67652  -0.65092  -0.64399  -0.60452
  Beta  occ. eigenvalues --   -0.54588  -0.51744  -0.50438  -0.49373  -0.47368
  Beta  occ. eigenvalues --   -0.43983  -0.42558  -0.40572  -0.40227  -0.39697
  Beta  occ. eigenvalues --   -0.38814  -0.36430  -0.36079  -0.35078  -0.34817
  Beta  occ. eigenvalues --   -0.33044  -0.31523  -0.30528  -0.30417  -0.28404
  Beta  occ. eigenvalues --   -0.27981  -0.27206  -0.25070  -0.24255  -0.23005
  Beta  occ. eigenvalues --   -0.22449  -0.20285  -0.18280  -0.17573  -0.16383
  Beta  occ. eigenvalues --   -0.14960  -0.13789  -0.12025  -0.10257  -0.07175
  Beta virt. eigenvalues --    0.06938   0.07331   0.07930   0.08015   0.08860
  Beta virt. eigenvalues --    0.09895   0.09919   0.10251   0.10774   0.11470
  Beta virt. eigenvalues --    0.11679   0.12182   0.12743   0.13562   0.14524

 Mulliken charges and spin densities:
               1          2
     1  C   -0.129586  -0.035398
     2  C   -0.480363   0.141639
     3  C    0.990640   0.073144
     4  C   -0.449068   0.032922
     5  N   -0.066892   0.000256
     6  C   -0.445157   0.181107
     7  C    0.640973   0.117481
     8  C   -0.822584   0.113378
     9  C   -1.133069  -0.054014
    10  C   -0.279541   0.348226
    11  C    0.740675  -0.004682
    12  C   -0.526162  -0.028700
    13  N   -0.251796  -0.008392
    14  N   -0.102842   0.078883
    15  C   -0.042120   0.022549
    16  N   -0.381595  -0.002203
    17  N    0.142606  -0.015604
    18  N    0.242752   0.018334
    19  N   -0.326827   0.062235
    20  H    0.140530   0.004746
    21  H    0.184462  -0.009978
    22  H    0.169626  -0.001255
    23  H    0.129879  -0.015469
    24  H    0.176624  -0.004850
    25  H    0.124727  -0.026108
    26  H    0.286239  -0.001747
    27  H    0.216663   0.013089
    28  H    0.251207   0.000410
 Sum of Mulliken charges =  -1.00000   1.00000

 Dipole moment (field-independent basis, Debye):
    X=             -0.5193    Y=              2.7293    Z=             -0.1874  Tot=              2.7846
 Quadrupole moment (field-independent basis, Debye-Ang):
   XX=           -164.2999   YY=           -139.6720   ZZ=           -119.0925
   XY=              0.8939   XZ=             10.1383   YZ=             -3.6584

 Summary of Natural Population Analysis:

                                       Natural Population
                Natural  -----------------------------------------------
    Atom  No    Charge         Core      Valence    Rydberg      Total
 -----------------------------------------------------------------------
      C    1   -0.14154      0.99957     2.13325    0.00872     3.14154
      C    2   -0.05777      0.99953     2.04999    0.00825     3.05777
      C    3   -0.02516      0.99951     2.01655    0.00911     3.02516
      C    4    0.03805      0.99955     1.94837    0.01403     2.96195
      N    5   -0.23961      0.99972     2.72722    0.01268     3.73961
      C    6    0.05760      0.99960     1.92745    0.01534     2.94240
      C    7   -0.00747      0.99939     1.99888    0.00921     3.00747
      C    8   -0.06834      0.99952     2.06055    0.00827     3.06834
      C    9    0.03638      0.99944     1.95287    0.01131     2.96362
      C   10   -0.03965      0.99950     2.03195    0.00819     3.03965
      C   11   -0.06763      0.99948     2.05989    0.00826     3.06763
      C   12    0.09542      0.99940     1.89541    0.00977     2.90458
      N   13   -0.19557      0.99966     2.68469    0.01122     3.69557
      N   14   -0.16633      0.99968     2.65171    0.01495     3.66633
      C   15    0.17689      0.99955     1.80817    0.01538     2.82311
      N   16   -0.40604      0.99972     2.89669    0.00963     3.90604
      N   17   -0.16734      0.99965     2.65421    0.01347     3.66734
      N   18    0.12266      0.99971     2.36119    0.01645     3.37734
      N   19   -0.05664      0.99982     2.54299    0.01383     3.55664
      H   20    0.09541      0.00000     0.40342    0.00117     0.40459
      H   21    0.09759      0.00000     0.40045    0.00196     0.40241
      H   22    0.08738      0.00000     0.41105    0.00157     0.41262
      H   23    0.07856      0.00000     0.42014    0.00131     0.42144
      H   24    0.10050      0.00000     0.39834    0.00116     0.39950
      H   25    0.09319      0.00000     0.40521    0.00160     0.40681
      H   26    0.19554      0.00000     0.30222    0.00224     0.30446
      H   27    0.18134      0.00000     0.31692    0.00174     0.31866
      H   28    0.18261      0.00000     0.31560    0.00179     0.31739
 =======================================================================
   * Total *    0.00000     18.99198    45.77540    0.23261    65.00000

 Normal termination of Gaussian 16 at Sun Dec 13 20:59:33 2020.
