 Gaussian 16, Revision A.03,

 -----------------------------------------------------------
 # opt freq B3LYP/6-31G(d) empiricaldispersion=gd3bj scf=xqc
 -----------------------------------------------------------

 -------------------------------
 CID_151864538_JID_5102_neutraal
 -------------------------------
 Symbolic Z-matrix:
 Charge =  0 Multiplicity = 1

 SCF Done:  E(RB3LYP) =  -759.144536566     A.U. after   16 cycles
 SCF Done:  E(RB3LYP) =  -759.148835251     A.U. after   15 cycles
 SCF Done:  E(RB3LYP) =  -759.150470824     A.U. after   15 cycles
 SCF Done:  E(RB3LYP) =  -759.147632150     A.U. after   14 cycles
 SCF Done:  E(RB3LYP) =  -759.150229221     A.U. after   13 cycles
 SCF Done:  E(RB3LYP) =  -759.151424899     A.U. after   11 cycles
 SCF Done:  E(RB3LYP) =  -759.152204953     A.U. after   13 cycles
 SCF Done:  E(RB3LYP) =  -759.152769270     A.U. after   16 cycles
 SCF Done:  E(RB3LYP) =  -759.152931997     A.U. after   13 cycles
 SCF Done:  E(RB3LYP) =  -759.152965542     A.U. after   14 cycles
 SCF Done:  E(RB3LYP) =  -759.153403476     A.U. after   11 cycles
 SCF Done:  E(RB3LYP) =  -759.153407407     A.U. after   10 cycles
 SCF Done:  E(RB3LYP) =  -759.153408373     A.U. after   10 cycles
 SCF Done:  E(RB3LYP) =  -759.153408978     A.U. after    9 cycles
 SCF Done:  E(RB3LYP) =  -759.153409111     A.U. after    8 cycles
 Optimization completed.
    -- Stationary point found.
 Normal termination of Gaussian 16 at Thu Dec 10 14:51:04 2020.

 --------------------------------------------------------------------
 #N Geom=AllCheck Guess=TCheck SCRF=Check GenChk RB3LYP/6-31G(d) Freq
 --------------------------------------------------------------------

 Structure from the checkpoint file:  "JID_5102.chk"
 -------------------------------
 CID_151864538_JID_5102_neutraal
 -------------------------------
 Charge =  0 Multiplicity = 1

 SCF Done:  E(RB3LYP) =  -759.153409111     A.U. after    1 cycles

  Exact polarizability: 132.878 -17.285 120.608  -0.250   5.299  99.697
 Approx polarizability: 195.116 -47.780 196.065   2.169  16.759 152.630

                      1                      2                      3
                      A                      A                      A
 Frequencies --     40.1968                57.9048                62.2109
 Red. masses --      5.1334                 6.0032                 4.0651
 Frc consts  --      0.0049                 0.0119                 0.0093
 IR Inten    --      0.7770                 0.7940                 0.3769

                      4                      5                      6
                      A                      A                      A
 Frequencies --     71.1520               105.8503               120.0487
 Red. masses --      7.4578                 5.0669                 4.1749
 Frc consts  --      0.0222                 0.0334                 0.0354
 IR Inten    --      0.8671                 4.8615                 1.1799

                      7                      8                      9
                      A                      A                      A
 Frequencies --    156.2843               167.0662               202.1146
 Red. masses --      4.5243                 4.5890                 4.7768
 Frc consts  --      0.0651                 0.0755                 0.1150
 IR Inten    --      1.9455                 0.9287                 4.4726

                     10                     11                     12
                      A                      A                      A
 Frequencies --    217.6152               232.1921               246.3990
 Red. masses --      1.1119                 5.0843                 3.2074
 Frc consts  --      0.0310                 0.1615                 0.1147
 IR Inten    --      0.1302                 8.1289                 4.7539

                     13                     14                     15
                      A                      A                      A
 Frequencies --    261.3050               280.0902               285.9928
 Red. masses --      1.0582                 1.0965                 1.2674
 Frc consts  --      0.0426                 0.0507                 0.0611
 IR Inten    --      0.2862                 4.2411                61.4729

                     16                     17                     18
                      A                      A                      A
 Frequencies --    304.4892               324.3075               353.3693
 Red. masses --      3.0823                 2.9607                 3.0199
 Frc consts  --      0.1684                 0.1835                 0.2222
 IR Inten    --     50.9366                 4.0696                 4.4259

                     19                     20                     21
                      A                      A                      A
 Frequencies --    359.3762               403.1586               430.7624
 Red. masses --      2.8465                 1.9403                 1.5657
 Frc consts  --      0.2166                 0.1858                 0.1712
 IR Inten    --      3.3424                33.0087                50.0070

                     22                     23                     24
                      A                      A                      A
 Frequencies --    442.9309               467.1786               476.7397
 Red. masses --      2.5381                 2.5805                 2.9431
 Frc consts  --      0.2934                 0.3318                 0.3941
 IR Inten    --      8.1289                15.8940                38.4769

                     25                     26                     27
                      A                      A                      A
 Frequencies --    537.3235               566.0405               626.2620
 Red. masses --      4.3198                13.8303                 6.1165
 Frc consts  --      0.7348                 2.6108                 1.4134
 IR Inten    --      5.7025                 9.3153                 4.5736

                     28                     29                     30
                      A                      A                      A
 Frequencies --    649.8877               721.0748               746.5648
 Red. masses --      4.2904                 4.5848                 3.6456
 Frc consts  --      1.0676                 1.4045                 1.1971
 IR Inten    --      2.0883                 0.6457                 1.4192

                     31                     32                     33
                      A                      A                      A
 Frequencies --    791.2527               823.4884               861.2780
 Red. masses --      3.6825                 3.3080                 4.0598
 Frc consts  --      1.3584                 1.3217                 1.7743
 IR Inten    --     25.6665                67.6732                23.7485

                     34                     35                     36
                      A                      A                      A
 Frequencies --    912.2925               922.8753               939.2625
 Red. masses --      1.9508                 3.6372                 1.6932
 Frc consts  --      0.9566                 1.8251                 0.8801
 IR Inten    --     80.8378                35.4968                 2.5225

                     37                     38                     39
                      A                      A                      A
 Frequencies --    941.6118               960.6872               975.7858
 Red. masses --      1.6390                 3.1175                 2.5897
 Frc consts  --      0.8562                 1.6952                 1.4528
 IR Inten    --      1.3521                31.4523                49.0403

                     40                     41                     42
                      A                      A                      A
 Frequencies --    986.1437              1068.3122              1069.8681
 Red. masses --      1.1989                 1.4737                 1.7748
 Frc consts  --      0.6869                 0.9910                 1.1969
 IR Inten    --      0.0809                 0.3573                 0.6823

                     43                     44                     45
                      A                      A                      A
 Frequencies --   1077.5156              1112.5964              1136.1292
 Red. masses --      1.5971                 2.7534                 2.1731
 Frc consts  --      1.0925                 2.0081                 1.6526
 IR Inten    --      3.1876               154.0178                66.1665

                     46                     47                     48
                      A                      A                      A
 Frequencies --   1206.4601              1219.8167              1257.3413
 Red. masses --      1.5739                 1.7477                 1.5444
 Frc consts  --      1.3498                 1.5322                 1.4385
 IR Inten    --    104.6334                68.0221                27.0868

                     49                     50                     51
                      A                      A                      A
 Frequencies --   1277.8202              1289.8427              1300.6121
 Red. masses --      1.2922                 2.6476                 2.8392
 Frc consts  --      1.2432                 2.5952                 2.8297
 IR Inten    --     11.1033                18.9037                37.2816

                     52                     53                     54
                      A                      A                      A
 Frequencies --   1319.2544              1324.7692              1365.8644
 Red. masses --      3.2384                 1.5189                 3.9501
 Frc consts  --      3.3207                 1.5706                 4.3418
 IR Inten    --    130.2945                29.4482               107.7375

                     55                     56                     57
                      A                      A                      A
 Frequencies --   1373.1059              1397.2042              1424.4795
 Red. masses --      1.6368                 1.3086                 1.2823
 Frc consts  --      1.8183                 1.5051                 1.5330
 IR Inten    --     21.2002                28.0123                17.7155

                     58                     59                     60
                      A                      A                      A
 Frequencies --   1429.7317              1442.2157              1450.0036
 Red. masses --      1.2797                 1.3787                 1.3234
 Frc consts  --      1.5413                 1.6895                 1.6394
 IR Inten    --     16.9696                64.0174                39.4250

                     61                     62                     63
                      A                      A                      A
 Frequencies --   1455.2347              1501.9838              1516.0743
 Red. masses --      1.2356                 1.0467                 1.0836
 Frc consts  --      1.5417                 1.3913                 1.4675
 IR Inten    --     11.6792                 0.6312                15.8963

                     64                     65                     66
                      A                      A                      A
 Frequencies --   1521.9453              1523.8307              1527.3429
 Red. masses --      1.0513                 1.0489                 1.0632
 Frc consts  --      1.4347                 1.4350                 1.4613
 IR Inten    --      3.1310                 0.7395                10.1517

                     67                     68                     69
                      A                      A                      A
 Frequencies --   1535.1274              1557.7018              1688.7149
 Red. masses --      1.0541                 1.0549                 1.0941
 Frc consts  --      1.4635                 1.5080                 1.8383
 IR Inten    --      1.0103                 9.0791                39.7838

                     70                     71                     72
                      A                      A                      A
 Frequencies --   1801.4939              2271.2839              3061.4608
 Red. masses --     11.2905                13.5167                 1.0368
 Frc consts  --     21.5887                41.0830                 5.7255
 IR Inten    --    180.1145               497.8745                 5.9311

                     73                     74                     75
                      A                      A                      A
 Frequencies --   3062.3422              3062.8737              3069.7040
 Red. masses --      1.0462                 1.0496                 1.0378
 Frc consts  --      5.7807                 5.8015                 5.7619
 IR Inten    --     10.1953                30.2873                16.5986

                     76                     77                     78
                      A                      A                      A
 Frequencies --   3089.1823              3101.7905              3117.9432
 Red. masses --      1.0854                 1.0863                 1.1066
 Frc consts  --      6.1025                 6.1579                 6.3381
 IR Inten    --      5.7718                26.8780                23.9240

                     79                     80                     81
                      A                      A                      A
 Frequencies --   3124.5573              3127.4452              3138.6151
 Red. masses --      1.1020                 1.1025                 1.1025
 Frc consts  --      6.3389                 6.3532                 6.3987
 IR Inten    --     11.7012                 9.2116                39.4789

                     82                     83                     84
                      A                      A                      A
 Frequencies --   3144.9904              3168.7082              3175.5589
 Red. masses --      1.1032                 1.1007                 1.0997
 Frc consts  --      6.4289                 6.5113                 6.5341
 IR Inten    --     17.0462                 3.6820                 8.0306

                     85                     86                     87
                      A                      A                      A
 Frequencies --   3492.7328              3590.4891              3709.4166
 Red. masses --      1.0492                 1.0924                 1.0654
 Frc consts  --      7.5412                 8.2970                 8.6373
 IR Inten    --      0.4164                 2.3905                21.3072

 - Thermochemistry -
 -------------------
 Temperature   298.150 Kelvin.  Pressure   1.00000 Atm.
 Atom     1 has atomic number  6 and mass  12.00000

 Molecular mass:   216.12224 amu.
 Principal axes and moments of inertia in atomic units:
                           1         2         3
     Eigenvalues --  2247.745763620.209204722.75820
           X            0.99986  -0.01673  -0.00093
           Y            0.01672   0.99980  -0.01115
           Z            0.00112   0.01113   0.99994
 This molecule is an asymmetric top.
 Rotational symmetry number  1.
 Warning -- assumption of classical behavior for rotation
           may cause significant error
 Rotational temperatures (Kelvin)      0.03853     0.02393     0.01834
 Rotational constants (GHZ):           0.80291     0.49852     0.38214
 Zero-point vibrational energy     680149.1 (Joules/Mol)
                                  162.55954 (Kcal/Mol)
 Warning -- explicit consideration of  26 degrees of freedom as
           vibrations may cause significant error
 Vibrational temperatures:     57.83    83.31    89.51   102.37   152.29
          (Kelvin)            172.72   224.86   240.37   290.80   313.10
                              334.07   354.51   375.96   402.99   411.48
                              438.09   466.61   508.42   517.06   580.06
                              619.77   637.28   672.17   685.92   773.09
                              814.41   901.05   935.04  1037.47  1074.14
                             1138.44  1184.82  1239.19  1312.59  1327.81
                             1351.39  1354.77  1382.21  1403.94  1418.84
                             1537.06  1539.30  1550.30  1600.78  1634.64
                             1735.83  1755.04  1809.03  1838.50  1855.80
                             1871.29  1898.11  1906.05  1965.17  1975.59
                             2010.27  2049.51  2057.07  2075.03  2086.23
                             2093.76  2161.02  2181.29  2189.74  2192.45
                             2197.51  2208.71  2241.19  2429.68  2591.95
                             3267.87  4404.76  4406.03  4406.79  4416.62
                             4444.64  4462.78  4486.02  4495.54  4499.70
                             4515.77  4524.94  4559.06  4568.92  5025.26
                             5165.91  5337.02

 Zero-point correction=                           0.259055 (Hartree/Particle)
 Thermal correction to Energy=                    0.275850
 Thermal correction to Enthalpy=                  0.276794
 Thermal correction to Gibbs Free Energy=         0.215110
 Sum of electronic and zero-point Energies=           -758.894354
 Sum of electronic and thermal Energies=              -758.877559
 Sum of electronic and thermal Enthalpies=            -758.876615
 Sum of electronic and thermal Free Energies=         -758.938299

                     E (Thermal)             CV                S
                      KCal/Mol        Cal/Mol-Kelvin    Cal/Mol-Kelvin
 Total                  173.098             61.855            129.825
 Electronic               0.000              0.000              0.000
 Translational            0.889              2.981             42.015
 Rotational               0.889              2.981             32.019
 Vibrational            171.321             55.893             55.791
 Vibration     1          0.594              1.981              5.249
 Vibration     2          0.596              1.974              4.527
 Vibration     3          0.597              1.972              4.386
 Vibration     4          0.598              1.968              4.121
 Vibration     5          0.605              1.945              3.344
 Vibration     6          0.609              1.933              3.100
 Vibration     7          0.620              1.896              2.594
 Vibration     8          0.624              1.883              2.468
 Vibration     9          0.639              1.837              2.114
 Vibration    10          0.646              1.814              1.979
 Vibration    11          0.653              1.792              1.862
 Vibration    12          0.661              1.769              1.756
 Vibration    13          0.669              1.744              1.653
 Vibration    14          0.680              1.710              1.533
 Vibration    15          0.684              1.700              1.498
 Vibration    16          0.695              1.665              1.392
 Vibration    17          0.709              1.627              1.288
 Vibration    18          0.730              1.568              1.151
 Vibration    19          0.734              1.556              1.125
 Vibration    20          0.769              1.463              0.951
 Vibration    21          0.792              1.403              0.856
 Vibration    22          0.803              1.376              0.817
 Vibration    23          0.824              1.323              0.745
 Vibration    24          0.833              1.302              0.719
 Vibration    25          0.892              1.167              0.571
 Vibration    26          0.922              1.105              0.512

                           ! Non-Optimized Parameters !
 Normal termination of Gaussian 16 at Thu Dec 10 15:00:55 2020.

 ----------------------------------------------------------------------
 # B3LYP/6-311++G(d,p) empiricaldispersion=gd3bj scf=xqc pop=npa geom=c
 heck
 ----------------------------------------------------------------------

 ---------------------------------------
 CID_151864538_JID_5102_Energie_neutraal
 ---------------------------------------
 Structure from the checkpoint file:  "JID_5102.chk"
 Charge =  0 Multiplicity = 1

 SCF Done:  E(RB3LYP) =  -759.388320623     A.U. after   17 cycles
 Normal termination of Gaussian 16 at Thu Dec 10 15:06:06 2020.

 ----------------------------------------------------------------------
 # B3LYP/6-311++G(d,p) empiricaldispersion=gd3bj scf=xqc pop=npa geom=c
 heck
 ----------------------------------------------------------------------

 -------------------------------------
 CID_151864538_JID_5102_Energie_kation
 -------------------------------------
 Structure from the checkpoint file:  "JID_5102.chk"
 Charge =  1 Multiplicity = 2

 SCF Done:  E(UB3LYP) =  -759.067020799     A.U. after   28 cycles
 Normal termination of Gaussian 16 at Thu Dec 10 15:20:28 2020.
 Gaussian 16:  ES64L-G16RevA.03 25-Dec-2016

 ----------------------------------------------------------------------
 # B3LYP/6-311++G(d,p) empiricaldispersion=gd3bj scf=xqc pop=npa geom=c
 heck
 ----------------------------------------------------------------------

 ------------------------------------
 CID_151864538_JID_5102_Energie_anion
 ------------------------------------
 Structure from the checkpoint file:  "JID_5102.chk"
 Charge = -1 Multiplicity = 2

                         Standard orientation:
 ---------------------------------------------------------------------
 Center     Atomic      Atomic             Coordinates (Angstroms)
 Number     Number       Type             X           Y           Z
 ---------------------------------------------------------------------
      1          6           0       -2.693285    1.045243    1.058868
      2          6           0       -2.296879   -0.033026    0.052566
      3          6           0       -3.175240   -1.274980    0.207179
      4          6           0       -2.307194    0.515939   -1.374810
      5          8           0       -0.909277   -0.351729    0.450577
      6          6           0       -0.205333   -1.320433   -0.153650
      7          8           0       -0.563950   -1.970861   -1.115926
      8          6           0        1.191114   -1.450478    0.438353
      9          6           0        2.206702   -0.794225   -0.562619
     10          6           0        1.800787    0.586058   -1.078938
     11          7           0        1.773076    1.539389    0.062510
     12          7           0        0.895556    2.401939    0.019291
     13          7           0        0.121487    3.239935    0.080598
     14          8           0        3.499347   -0.742430    0.016525
     15          7           0        1.263769   -0.993498    1.817563
     16          1           0       -3.720140    1.373012    0.867510
     17          1           0       -2.031658    1.912658    0.978378
     18          1           0       -2.636335    0.654728    2.079567
     19          1           0       -4.223231   -0.997159    0.051529
     20          1           0       -2.904217   -2.046296   -0.514499
     21          1           0       -3.076259   -1.682470    1.218545
     22          1           0       -1.656523    1.393575   -1.451217
     23          1           0       -1.981167   -0.241772   -2.089005
     24          1           0       -3.323117    0.830736   -1.636186
     25          1           0        1.421736   -2.520208    0.432834
     26          1           0        2.283789   -1.452154   -1.433755
     27          1           0        2.558396    0.928961   -1.792644
     28          1           0        0.832492    0.549447   -1.587966
     29          1           0        3.482609   -0.011156    0.657343
     30          1           0        2.213715   -1.129210    2.156586
     31          1           0        1.049688   -0.001487    1.872138
 ---------------------------------------------------------------------

 SCF Done:  E(UB3LYP) =  -759.383503217     A.U. after   33 cycles
 SCF Done:  E(UB3LYP) =  -759.383503218     a.u. after    1 cycles

 The electronic state is 2-A.
 Alpha  occ. eigenvalues --  -19.06362 -19.02230 -19.01109 -14.32331 -14.22763
 Alpha  occ. eigenvalues --  -14.22593 -14.18766 -10.20234 -10.14769 -10.12630
 Alpha  occ. eigenvalues --  -10.10962 -10.10092 -10.06562 -10.06300 -10.06048
 Alpha  occ. eigenvalues --   -1.00421  -0.99747  -0.92984  -0.92197  -0.84222
 Alpha  occ. eigenvalues --   -0.78717  -0.71769  -0.67031  -0.60798  -0.60090
 Alpha  occ. eigenvalues --   -0.59805  -0.54765  -0.50353  -0.43181  -0.42410
 Alpha  occ. eigenvalues --   -0.42000  -0.40586  -0.39391  -0.38394  -0.37013
 Alpha  occ. eigenvalues --   -0.36570  -0.36330  -0.34923  -0.34054  -0.32804
 Alpha  occ. eigenvalues --   -0.32263  -0.31595  -0.31318  -0.30131  -0.29362
 Alpha  occ. eigenvalues --   -0.28966  -0.27295  -0.27063  -0.26189  -0.25407
 Alpha  occ. eigenvalues --   -0.24242  -0.23164  -0.20736  -0.19078  -0.18364
 Alpha  occ. eigenvalues --   -0.17796  -0.14311  -0.11989   0.04703
 Alpha virt. eigenvalues --    0.06445   0.08198   0.08279   0.08870   0.09393
 Alpha virt. eigenvalues --    0.09627   0.09911   0.10535   0.11599   0.12007
 Alpha virt. eigenvalues --    0.12453   0.12773   0.13279   0.13499   0.14014

  Beta  occ. eigenvalues --  -19.06354 -19.02190 -19.01104 -14.31977 -14.22678
  Beta  occ. eigenvalues --  -14.22295 -14.18733 -10.20231 -10.14766 -10.12620
  Beta  occ. eigenvalues --  -10.10958 -10.09992 -10.06544 -10.06286 -10.06031
  Beta  occ. eigenvalues --   -1.00404  -0.99073  -0.92894  -0.92186  -0.83880
  Beta  occ. eigenvalues --   -0.78659  -0.71753  -0.66898  -0.60675  -0.60058
  Beta  occ. eigenvalues --   -0.59774  -0.54681  -0.50268  -0.43074  -0.42300
  Beta  occ. eigenvalues --   -0.41962  -0.40548  -0.38721  -0.38352  -0.36870
  Beta  occ. eigenvalues --   -0.36336  -0.36137  -0.34815  -0.33506  -0.32560
  Beta  occ. eigenvalues --   -0.32161  -0.31485  -0.30761  -0.29736  -0.29300
  Beta  occ. eigenvalues --   -0.28913  -0.27267  -0.27024  -0.26169  -0.25384
  Beta  occ. eigenvalues --   -0.24196  -0.23100  -0.20721  -0.18891  -0.17970
  Beta  occ. eigenvalues --   -0.17498  -0.14231  -0.11881
  Beta virt. eigenvalues --    0.06946   0.07927   0.08618   0.08900   0.09647
  Beta virt. eigenvalues --    0.09742   0.09971   0.10622   0.11202   0.11797
  Beta virt. eigenvalues --    0.12133   0.12610   0.13060   0.13332   0.13586

 Mulliken charges and spin densities:
               1          2
     1  C   -0.020693  -0.409452
     2  C   -0.852241   0.849984
     3  C    0.105052  -0.526898
     4  C    0.301926  -0.814731
     5  O    0.203712  -0.008678
     6  C   -0.479056  -0.049787
     7  O   -0.212323   0.025102
     8  C    0.997252  -0.895355
     9  C   -0.332420  -0.162555
    10  C   -0.097078  -0.188282
    11  N    0.381021  -0.148680
    12  N    0.240089  -0.011957
    13  N   -0.877431   0.473896
    14  O   -0.183278   0.013517
    15  N   -0.401913   0.040842
    16  H   -0.029255   0.164584
    17  H   -0.095443   0.272282
    18  H    0.017593   0.138238
    19  H   -0.227955   0.391418
    20  H    0.093056   0.083169
    21  H    0.074253   0.070558
    22  H    0.192753  -0.063622
    23  H    0.018155   0.177563
    24  H   -0.070857   0.226324
    25  H    0.182271   0.058814
    26  H    0.165486   0.052363
    27  H   -0.558507   0.780704
    28  H    0.214372  -0.067114
    29  H    0.050820   0.220158
    30  H    0.045464   0.194999
    31  H    0.155172   0.112597
 Sum of Mulliken charges =  -1.00000   1.00000

 Dipole moment (field-independent basis, Debye):
    X=             -1.1788    Y=             -2.4434    Z=             -0.5917  Tot=              2.7767
 Quadrupole moment (field-independent basis, Debye-Ang):
   XX=           -148.8201   YY=           -130.7617   ZZ=           -117.8909
   XY=             -1.4044   XZ=              0.3176   YZ=             -1.8213

 Summary of Natural Population Analysis:

                                       Natural Population
                Natural  -----------------------------------------------
    Atom  No    Charge         Core      Valence    Rydberg      Total
 -----------------------------------------------------------------------
      C    1   -0.29388      0.99960     2.28703    0.00726     3.29388
      C    2    0.13480      0.99953     1.85197    0.01370     2.86520
      C    3   -0.30203      0.99960     2.29604    0.00639     3.30203
      C    4   -0.30437      0.99960     2.29818    0.00659     3.30437
      O    5   -0.29234      0.99984     3.28023    0.01226     4.29234
      C    6    0.41578      0.99964     1.55818    0.02639     2.58422
      O    7   -0.31710      0.99987     3.31238    0.00485     4.31710
      C    8   -0.06364      0.99954     2.04907    0.01503     3.06364
      C    9    0.06116      0.99953     1.92378    0.01553     2.93884
      C   10   -0.10090      0.99956     2.09009    0.01126     3.10090
      N   11   -0.23818      0.99970     2.72165    0.01684     3.73818
      N   12    0.14761      0.99970     2.33648    0.01621     3.35239
      N   13   -0.00398      0.99981     2.49196    0.01220     3.50398
      O   14   -0.37332      0.99990     3.36631    0.00711     4.37332
      N   15   -0.42101      0.99976     2.91087    0.01037     3.92101
      H   16    0.10026      0.00000     0.39880    0.00093     0.39974
      H   17    0.11488      0.00000     0.38394    0.00118     0.38512
      H   18    0.10268      0.00000     0.39636    0.00096     0.39732
      H   19    0.10323      0.00000     0.39573    0.00104     0.39677
      H   20    0.11228      0.00000     0.38683    0.00089     0.38772
      H   21    0.10267      0.00000     0.39643    0.00091     0.39733
      H   22    0.10735      0.00000     0.39160    0.00105     0.39265
      H   23    0.11163      0.00000     0.38745    0.00092     0.38837
      H   24    0.10282      0.00000     0.39636    0.00082     0.39718
      H   25    0.10349      0.00000     0.39514    0.00137     0.39651
      H   26    0.09411      0.00000     0.40473    0.00116     0.40589
      H   27    0.09816      0.00000     0.40020    0.00164     0.40184
      H   28    0.09788      0.00000     0.40071    0.00142     0.40212
      H   29    0.23627      0.00000     0.25876    0.00497     0.26373
      H   30    0.17653      0.00000     0.32167    0.00180     0.32347
      H   31    0.18717      0.00000     0.31023    0.00260     0.31283
 =======================================================================
   * Total *   -0.00000     14.99519    42.79917    0.20564    58.00000

 Normal termination of Gaussian 16 at Thu Dec 10 15:35:36 2020.
