 Gaussian 16, Revision A.03,

 -----------------------------------------------------------
 # opt freq B3LYP/6-31G(d) empiricaldispersion=gd3bj scf=xqc
 -----------------------------------------------------------

 ------------------------------
 CID_15852811_JID_6331_neutraal
 ------------------------------
 Symbolic Z-matrix:
 Charge =  0 Multiplicity = 1

 SCF Done:  E(RB3LYP) =  -652.685175441     A.U. after   14 cycles
 SCF Done:  E(RB3LYP) =  -652.689952650     A.U. after   12 cycles
 SCF Done:  E(RB3LYP) =  -652.690635198     A.U. after   11 cycles
 SCF Done:  E(RB3LYP) =  -652.690849829     A.U. after   11 cycles
 SCF Done:  E(RB3LYP) =  -652.690946623     A.U. after   11 cycles
 SCF Done:  E(RB3LYP) =  -652.690974432     A.U. after   10 cycles
 SCF Done:  E(RB3LYP) =  -652.690984946     A.U. after    9 cycles
 SCF Done:  E(RB3LYP) =  -652.690986882     A.U. after    9 cycles
 SCF Done:  E(RB3LYP) =  -652.690989327     A.U. after    9 cycles
 SCF Done:  E(RB3LYP) =  -652.690989966     A.U. after    9 cycles
 SCF Done:  E(RB3LYP) =  -652.690990035     A.U. after    7 cycles
 Optimization completed.
    -- Stationary point found.
 Normal termination of Gaussian 16 at Thu Dec 10 22:09:33 2020.

 --------------------------------------------------------------------
 #N Geom=AllCheck Guess=TCheck SCRF=Check GenChk RB3LYP/6-31G(d) Freq
 --------------------------------------------------------------------

 Structure from the checkpoint file:  "JID_6331.chk"
 ------------------------------
 CID_15852811_JID_6331_neutraal
 ------------------------------
 Charge =  0 Multiplicity = 1

 SCF Done:  E(RB3LYP) =  -652.690990035     A.U. after    1 cycles

  Exact polarizability: 195.198  18.402 163.437  15.988  -1.080 106.963
 Approx polarizability: 271.485  37.897 264.061  33.202   2.931 183.722

                      1                      2                      3
                      A                      A                      A
 Frequencies --     23.3923                41.5479                52.0758
 Red. masses --      5.1297                 3.7915                 3.7582
 Frc consts  --      0.0017                 0.0039                 0.0060
 IR Inten    --      0.0341                 0.1497                 0.5032

                      4                      5                      6
                      A                      A                      A
 Frequencies --     88.4688               134.5178               142.8390
 Red. masses --      3.6652                 3.5379                 4.3404
 Frc consts  --      0.0169                 0.0377                 0.0522
 IR Inten    --      0.7933                 0.7573                 0.7336

                      7                      8                      9
                      A                      A                      A
 Frequencies --    230.0480               232.9650               255.3706
 Red. masses --      3.7368                 3.7043                 1.1595
 Frc consts  --      0.1165                 0.1185                 0.0446
 IR Inten    --      0.5251                 0.3559                 0.0715

                     10                     11                     12
                      A                      A                      A
 Frequencies --    295.2474               314.4059               398.7370
 Red. masses --      2.8920                 4.8391                 2.9450
 Frc consts  --      0.1485                 0.2818                 0.2759
 IR Inten    --      1.9185                 4.5841                 7.9644

                     13                     14                     15
                      A                      A                      A
 Frequencies --    419.1046               419.8171               431.2354
 Red. masses --      3.1254                 3.1414                 1.3386
 Frc consts  --      0.3234                 0.3262                 0.1467
 IR Inten    --      0.5403                 0.6409                35.0795

                     16                     17                     18
                      A                      A                      A
 Frequencies --    454.1171               511.5858               518.2633
 Red. masses --      2.3856                 2.8436                 2.6473
 Frc consts  --      0.2899                 0.4385                 0.4189
 IR Inten    --     31.5092                24.7471                33.3921

                     19                     20                     21
                      A                      A                      A
 Frequencies --    528.9176               549.8739               629.1983
 Red. masses --      3.0373                 2.0555                 4.4586
 Frc consts  --      0.5006                 0.3662                 1.0400
 IR Inten    --      3.8461                97.6780                13.4627

                     22                     23                     24
                      A                      A                      A
 Frequencies --    634.1030               635.2423               664.2048
 Red. masses --      5.3923                 6.2071                 4.6151
 Frc consts  --      1.2775                 1.4758                 1.1996
 IR Inten    --      2.3344                 0.5595                 9.3188

                     25                     26                     27
                      A                      A                      A
 Frequencies --    705.7647               707.2987               760.9527
 Red. masses --      2.0939                 2.0866                 1.7405
 Frc consts  --      0.6145                 0.6150                 0.5938
 IR Inten    --     11.1461                15.0701                51.8564

                     28                     29                     30
                      A                      A                      A
 Frequencies --    763.6728               822.7267               829.5676
 Red. masses --      1.7063                 1.2534                 1.2921
 Frc consts  --      0.5863                 0.4999                 0.5239
 IR Inten    --     41.3758                 0.1779                 0.8824

                     31                     32                     33
                      A                      A                      A
 Frequencies --    847.3581               864.1919               875.3734
 Red. masses --      3.2439                 2.3245                 1.6020
 Frc consts  --      1.3723                 1.0228                 0.7233
 IR Inten    --      5.0973                 6.0992                 3.6354

                     34                     35                     36
                      A                      A                      A
 Frequencies --    883.4840               925.0037               947.7700
 Red. masses --      1.5352                 2.4725                 1.3199
 Frc consts  --      0.7060                 1.2464                 0.6985
 IR Inten    --      2.8627                 2.1176                 0.0112

                     37                     38                     39
                      A                      A                      A
 Frequencies --    950.7298               975.0040               979.2486
 Red. masses --      1.3198                 1.2197                 1.2260
 Frc consts  --      0.7029                 0.6831                 0.6927
 IR Inten    --      0.1255                 0.2719                 0.1737

                     40                     41                     42
                      A                      A                      A
 Frequencies --   1004.6758              1012.1062              1013.2679
 Red. masses --      1.9552                 5.5255                 5.5950
 Frc consts  --      1.1628                 3.3348                 3.3845
 IR Inten    --      8.4264                 3.2531                 4.2573

                     43                     44                     45
                      A                      A                      A
 Frequencies --   1061.0791              1063.6037              1112.0826
 Red. masses --      2.1674                 2.0905                 1.8281
 Frc consts  --      1.4378                 1.3934                 1.3321
 IR Inten    --      1.5301                 4.1213                 9.7737

                     46                     47                     48
                      A                      A                      A
 Frequencies --   1119.3877              1134.0630              1160.4571
 Red. masses --      1.6523                 2.2864                 2.2113
 Frc consts  --      1.2198                 1.7325                 1.7545
 IR Inten    --      2.3364                16.5611                38.6351

                     49                     50                     51
                      A                      A                      A
 Frequencies --   1192.1648              1192.8189              1197.2949
 Red. masses --      1.1269                 1.0982                 2.1150
 Frc consts  --      0.9437                 0.9206                 1.7863
 IR Inten    --      8.2241                 1.9823                94.1199

                     52                     53                     54
                      A                      A                      A
 Frequencies --   1217.9418              1221.5062              1292.8090
 Red. masses --      1.1370                 1.1373                 2.2356
 Frc consts  --      0.9937                 0.9998                 2.2014
 IR Inten    --     14.3225                 8.2605                79.8212

                     55                     56                     57
                      A                      A                      A
 Frequencies --   1304.8380              1353.5713              1361.1334
 Red. masses --      2.2236                 3.0841                 2.5471
 Frc consts  --      2.2306                 3.3292                 2.7803
 IR Inten    --     36.1153               103.0519                45.1269

                     58                     59                     60
                      A                      A                      A
 Frequencies --   1375.1307              1377.4158              1391.0652
 Red. masses --      1.8254                 1.6698                 1.5366
 Frc consts  --      2.0337                 1.8666                 1.7519
 IR Inten    --      6.6594                 3.0545                16.2426

                     61                     62                     63
                      A                      A                      A
 Frequencies --   1412.2919              1434.8674              1470.1938
 Red. masses --      1.2758                 1.2779                 1.6189
 Frc consts  --      1.4993                 1.5502                 2.0617
 IR Inten    --     22.6210                25.4944                98.8071

                     64                     65                     66
                      A                      A                      A
 Frequencies --   1482.4707              1518.8972              1523.2564
 Red. masses --      1.8641                 1.1438                 1.0628
 Frc consts  --      2.4137                 1.5547                 1.4530
 IR Inten    --     39.3171                 4.6522                 3.2016

                     67                     68                     69
                      A                      A                      A
 Frequencies --   1537.8021              1547.5687              1554.9438
 Red. masses --      1.7890                 1.8635                 2.0935
 Frc consts  --      2.4927                 2.6295                 2.9822
 IR Inten    --     52.5369                23.2606               132.6449

                     70                     71                     72
                      A                      A                      A
 Frequencies --   1562.2420              1643.7226              1649.2729
 Red. masses --      2.3999                 5.0810                 4.8740
 Frc consts  --      3.4509                 8.0883                 7.8112
 IR Inten    --    106.5557                 7.0899                 2.1078

                     73                     74                     75
                      A                      A                      A
 Frequencies --   1668.6843              1675.2993              2987.9792
 Red. masses --      5.5734                 5.6039                 1.0835
 Frc consts  --      9.1436                 9.2667                 5.6995
 IR Inten    --    127.4851                92.8183                21.6432

                     76                     77                     78
                      A                      A                      A
 Frequencies --   3051.9530              3122.1022              3146.3542
 Red. masses --      1.0372                 1.1029                 1.1008
 Frc consts  --      5.6920                 6.3342                 6.4204
 IR Inten    --     23.6858                27.8239                21.9946

                     79                     80                     81
                      A                      A                      A
 Frequencies --   3167.3996              3171.6693              3183.1818
 Red. masses --      1.0873                 1.0867                 1.0864
 Frc consts  --      6.4268                 6.4405                 6.4859
 IR Inten    --     14.6975                13.8427                 2.5394

                     82                     83                     84
                      A                      A                      A
 Frequencies --   3185.5217              3192.4416              3193.2336
 Red. masses --      1.0867                 1.0919                 1.0920
 Frc consts  --      6.4971                 6.5567                 6.5607
 IR Inten    --      0.0374                27.5010                32.7377

                     85                     86                     87
                      A                      A                      A
 Frequencies --   3207.5196              3211.3875              3214.6805
 Red. masses --      1.0920                 1.0961                 1.0965
 Frc consts  --      6.6195                 6.6603                 6.6764
 IR Inten    --     38.9338                27.6702                10.3885

                     88                     89                     90
                      A                      A                      A
 Frequencies --   3230.0126              3593.8597              3596.9523
 Red. masses --      1.0920                 1.0760                 1.0762
 Frc consts  --      6.7125                 8.1885                 8.2036
 IR Inten    --      0.8676                21.1628                10.5212

 - Thermochemistry -
 -------------------
 Temperature   298.150 Kelvin.  Pressure   1.00000 Atm.
 Atom     1 has atomic number  6 and mass  12.00000

 Molecular mass:   212.13135 amu.
 Principal axes and moments of inertia in atomic units:
                           1         2         3
     Eigenvalues --  2021.560735771.728127092.26227
           X            0.99999   0.00361   0.00322
           Y           -0.00358   0.99993  -0.01087
           Z           -0.00326   0.01086   0.99994
 This molecule is an asymmetric top.
 Rotational symmetry number  1.
 Warning -- assumption of classical behavior for rotation
           may cause significant error
 Rotational temperatures (Kelvin)      0.04285     0.01501     0.01221
 Rotational constants (GHZ):           0.89275     0.31269     0.25447
 Zero-point vibrational energy     716201.9 (Joules/Mol)
                                  171.17635 (Kcal/Mol)
 Warning -- explicit consideration of  20 degrees of freedom as
           vibrations may cause significant error
 Vibrational temperatures:     33.66    59.78    74.93   127.29   193.54
          (Kelvin)            205.51   330.99   335.18   367.42   424.80
                              452.36   573.69   603.00   604.02   620.45
                              653.37   736.06   745.67   760.99   791.15
                              905.28   912.33   913.97   955.64  1015.44
                             1017.65  1094.84  1098.75  1183.72  1193.56
                             1219.16  1243.38  1259.47  1271.14  1330.87
                             1363.63  1367.89  1402.81  1408.92  1445.50
                             1456.20  1457.87  1526.66  1530.29  1600.04
                             1610.55  1631.66  1669.64  1715.26  1716.20
                             1722.64  1752.35  1757.47  1860.06  1877.37
                             1947.49  1958.37  1978.51  1981.79  2001.43
                             2031.97  2064.45  2115.28  2132.94  2185.35
                             2191.63  2212.55  2226.61  2237.22  2247.72
                             2364.95  2372.94  2400.86  2410.38  4299.04
                             4391.08  4492.01  4526.90  4557.18  4563.32
                             4579.89  4583.26  4593.21  4594.35  4614.91
                             4620.47  4625.21  4647.27  5170.76  5175.21

 Zero-point correction=                           0.272787 (Hartree/Particle)
 Thermal correction to Energy=                    0.286885
 Thermal correction to Enthalpy=                  0.287829
 Thermal correction to Gibbs Free Energy=         0.230513
 Sum of electronic and zero-point Energies=           -652.418203
 Sum of electronic and thermal Energies=              -652.404105
 Sum of electronic and thermal Enthalpies=            -652.403161
 Sum of electronic and thermal Free Energies=         -652.460477

                     E (Thermal)             CV                S
                      KCal/Mol        Cal/Mol-Kelvin    Cal/Mol-Kelvin
 Total                  180.023             56.155            120.632
 Electronic               0.000              0.000              0.000
 Translational            0.889              2.981             41.960
 Rotational               0.889              2.981             32.781
 Vibrational            178.246             50.193             45.891
 Vibration     1          0.593              1.985              6.323
 Vibration     2          0.594              1.981              5.184
 Vibration     3          0.596              1.977              4.737
 Vibration     4          0.601              1.957              3.694
 Vibration     5          0.613              1.919              2.880
 Vibration     6          0.616              1.910              2.765
 Vibration     7          0.652              1.795              1.879
 Vibration     8          0.654              1.790              1.856
 Vibration     9          0.666              1.754              1.693
 Vibration    10          0.689              1.683              1.444
 Vibration    11          0.702              1.646              1.339
 Vibration    12          0.765              1.473              0.967
 Vibration    13          0.782              1.429              0.895
 Vibration    14          0.782              1.427              0.893
 Vibration    15          0.792              1.402              0.855
 Vibration    16          0.813              1.352              0.783
 Vibration    17          0.867              1.224              0.630
 Vibration    18          0.873              1.210              0.614
 Vibration    19          0.884              1.186              0.590
 Vibration    20          0.905              1.140              0.544

                           ! Non-Optimized Parameters !
 Normal termination of Gaussian 16 at Thu Dec 10 22:19:43 2020.

 ----------------------------------------------------------------------
 # B3LYP/6-311++G(d,p) empiricaldispersion=gd3bj scf=xqc pop=npa geom=c
 heck
 ----------------------------------------------------------------------

 --------------------------------------
 CID_15852811_JID_6331_Energie_neutraal
 --------------------------------------
 Structure from the checkpoint file:  "JID_6331.chk"
 Charge =  0 Multiplicity = 1

 SCF Done:  E(RB3LYP) =  -652.869596266     A.U. after   14 cycles
 Normal termination of Gaussian 16 at Thu Dec 10 22:24:11 2020.

 ----------------------------------------------------------------------
 # B3LYP/6-311++G(d,p) empiricaldispersion=gd3bj scf=xqc pop=npa geom=c
 heck
 ----------------------------------------------------------------------

 ------------------------------------
 CID_15852811_JID_6331_Energie_kation
 ------------------------------------
 Structure from the checkpoint file:  "JID_6331.chk"
 Charge =  1 Multiplicity = 2

 SCF Done:  E(UB3LYP) =  -652.606083327     A.U. after   23 cycles
 Normal termination of Gaussian 16 at Thu Dec 10 22:34:23 2020.
 Gaussian 16:  ES64L-G16RevA.03 25-Dec-2016

 ----------------------------------------------------------------------
 # B3LYP/6-311++G(d,p) empiricaldispersion=gd3bj scf=xqc pop=npa geom=c
 heck
 ----------------------------------------------------------------------

 -----------------------------------
 CID_15852811_JID_6331_Energie_anion
 -----------------------------------
 Structure from the checkpoint file:  "JID_6331.chk"
 Charge = -1 Multiplicity = 2

                         Standard orientation:
 ---------------------------------------------------------------------
 Center     Atomic      Atomic             Coordinates (Angstroms)
 Number     Number       Type             X           Y           Z
 ---------------------------------------------------------------------
      1          6           0       -0.230343    3.186431   -0.316505
      2          6           0        0.070004    1.697245   -0.148331
      3          7           0        1.426155    1.520912    0.330045
      4          6           0        2.139029    0.341971    0.085871
      5          6           0        3.538259    0.345212    0.222881
      6          6           0        4.273261   -0.816400    0.013414
      7          6           0        3.634659   -2.008882   -0.335825
      8          6           0        2.247041   -2.015476   -0.469107
      9          6           0        1.495870   -0.858728   -0.260780
     10          7           0       -0.849964    1.071287    0.806070
     11          6           0       -1.892363    0.244612    0.404285
     12          6           0       -2.352425   -0.768726    1.267529
     13          6           0       -3.407332   -1.593566    0.895699
     14          6           0       -4.027310   -1.443782   -0.348009
     15          6           0       -3.575659   -0.443786   -1.207617
     16          6           0       -2.526891    0.399719   -0.842178
     17          1           0       -0.069356    3.711052    0.631760
     18          1           0       -1.276641    3.323834   -0.601115
     19          1           0        0.404471    3.633671   -1.090699
     20          1           0       -0.056472    1.192220   -1.119385
     21          1           0        1.990414    2.359764    0.305336
     22          1           0        4.044287    1.269177    0.495349
     23          1           0        5.354276   -0.787409    0.121261
     24          1           0        4.209844   -2.915000   -0.499145
     25          1           0        1.730948   -2.933256   -0.738048
     26          1           0        0.417479   -0.898661   -0.359340
     27          1           0       -0.375298    0.783541    1.652050
     28          1           0       -1.866901   -0.903318    2.231529
     29          1           0       -3.741261   -2.368162    1.581030
     30          1           0       -4.847665   -2.092970   -0.637773
     31          1           0       -4.048505   -0.305624   -2.176451
     32          1           0       -2.217746    1.190683   -1.517123
 ---------------------------------------------------------------------

 SCF Done:  E(UB3LYP) =  -652.856405401     A.U. after   33 cycles
 SCF Done:  E(UB3LYP) =  -652.856405401     a.u. after    1 cycles

 The electronic state is 2-A.
 Alpha  occ. eigenvalues --  -14.23129 -14.22813 -10.15179 -10.12530 -10.12242
 Alpha  occ. eigenvalues --  -10.08556 -10.08487 -10.08209 -10.08137 -10.08030
 Alpha  occ. eigenvalues --  -10.07783 -10.07569 -10.07493 -10.07444 -10.07388
 Alpha  occ. eigenvalues --  -10.06912  -0.87385  -0.82197  -0.75835  -0.74590
 Alpha  occ. eigenvalues --   -0.67640  -0.65731  -0.65384  -0.63519  -0.62117
 Alpha  occ. eigenvalues --   -0.54942  -0.52620  -0.51681  -0.50822  -0.48829
 Alpha  occ. eigenvalues --   -0.45079  -0.43938  -0.41552  -0.39579  -0.39439
 Alpha  occ. eigenvalues --   -0.37795  -0.35590  -0.34914  -0.34353  -0.33347
 Alpha  occ. eigenvalues --   -0.33087  -0.32823  -0.31490  -0.29869  -0.29509
 Alpha  occ. eigenvalues --   -0.28838  -0.27138  -0.27110  -0.26641  -0.25364
 Alpha  occ. eigenvalues --   -0.25057  -0.22072  -0.20502  -0.16636  -0.16196
 Alpha  occ. eigenvalues --   -0.11939  -0.11338   0.04224
 Alpha virt. eigenvalues --    0.05827   0.06479   0.07010   0.07312   0.07642
 Alpha virt. eigenvalues --    0.07952   0.08460   0.08640   0.08816   0.09203
 Alpha virt. eigenvalues --    0.09460   0.10243   0.10440   0.11405   0.11626

  Beta  occ. eigenvalues --  -14.23102 -14.22804 -10.15177 -10.12529 -10.12244
  Beta  occ. eigenvalues --  -10.08539 -10.08475 -10.08201 -10.08123 -10.08022
  Beta  occ. eigenvalues --  -10.07765 -10.07563 -10.07470 -10.07434 -10.07386
  Beta  occ. eigenvalues --  -10.06863  -0.87361  -0.82169  -0.75812  -0.74563
  Beta  occ. eigenvalues --   -0.67613  -0.65697  -0.65351  -0.63489  -0.62068
  Beta  occ. eigenvalues --   -0.54885  -0.52588  -0.51638  -0.50796  -0.48784
  Beta  occ. eigenvalues --   -0.45051  -0.43894  -0.41511  -0.39538  -0.39409
  Beta  occ. eigenvalues --   -0.37764  -0.35554  -0.34888  -0.34324  -0.33317
  Beta  occ. eigenvalues --   -0.33057  -0.32783  -0.31446  -0.29830  -0.29477
  Beta  occ. eigenvalues --   -0.28794  -0.27106  -0.27073  -0.26612  -0.25339
  Beta  occ. eigenvalues --   -0.25029  -0.22044  -0.20473  -0.16583  -0.16157
  Beta  occ. eigenvalues --   -0.11916  -0.11317
  Beta virt. eigenvalues --    0.06055   0.06658   0.07188   0.07304   0.07535
  Beta virt. eigenvalues --    0.07991   0.08193   0.08803   0.08929   0.09132
  Beta virt. eigenvalues --    0.09481   0.09654   0.10688   0.10924   0.11882

 Mulliken charges and spin densities:
               1          2
     1  C    2.589507  -3.053270
     2  C   -0.883616   0.705703
     3  N   -0.117710   0.202121
     4  C    0.252739  -0.807753
     5  C   -1.944426   1.486988
     6  C    1.117393  -1.456459
     7  C    0.261571  -0.480921
     8  C   -1.420076   1.331329
     9  C    1.285500  -0.728318
    10  N   -0.041730   0.068980
    11  C   -0.132145  -0.270954
    12  C   -0.940832   0.842691
    13  C   -0.348393   0.067838
    14  C    0.539971  -0.919175
    15  C   -0.245078   0.111181
    16  C    0.992571  -0.772024
    17  H   -0.348924   0.508667
    18  H   -0.198298   0.348455
    19  H   -0.430925   0.593057
    20  H   -0.025960   0.165353
    21  H   -0.058883   0.349470
    22  H   -1.065872   1.222148
    23  H   -0.161555   0.320754
    24  H    0.033355   0.098790
    25  H   -0.074337   0.240542
    26  H    0.591721  -0.434191
    27  H    0.254942   0.033619
    28  H   -0.101327   0.232298
    29  H   -0.118150   0.279412
    30  H   -0.023688   0.154650
    31  H   -0.301397   0.483348
    32  H    0.064051   0.075669
 Sum of Mulliken charges =  -1.00000   1.00000

 Dipole moment (field-independent basis, Debye):
    X=             -2.6048    Y=             -5.0578    Z=              0.5586  Tot=              5.7165
 Quadrupole moment (field-independent basis, Debye-Ang):
   XX=           -178.9914   YY=           -154.3875   ZZ=           -127.4067
   XY=            -13.0056   XZ=             -3.7521   YZ=              1.5566

 Summary of Natural Population Analysis:

                                       Natural Population
                Natural  -----------------------------------------------
    Atom  No    Charge         Core      Valence    Rydberg      Total
 -----------------------------------------------------------------------
      C    1   -0.28798      0.99964     2.28223    0.00611     3.28798
      C    2    0.08177      0.99961     1.90374    0.01488     2.91823
      N    3   -0.31974      0.99966     2.80859    0.01149     3.81974
      C    4    0.09058      0.99949     1.89793    0.01200     2.90942
      C    5   -0.11840      0.99953     2.10830    0.01058     3.11840
      C    6   -0.09348      0.99957     2.08324    0.01067     3.09348
      C    7   -0.12701      0.99956     2.11771    0.00973     3.12701
      C    8   -0.09123      0.99957     2.08236    0.00930     3.09123
      C    9   -0.13391      0.99952     2.12636    0.00803     3.13391
      N   10   -0.31818      0.99966     2.80787    0.01065     3.81818
      C   11    0.08964      0.99949     1.90026    0.01061     2.91036
      C   12   -0.12315      0.99953     2.11510    0.00852     3.12315
      C   13   -0.09257      0.99957     2.08322    0.00978     3.09257
      C   14   -0.12805      0.99956     2.11848    0.01000     3.12805
      C   15   -0.09107      0.99957     2.08094    0.01056     3.09107
      C   16   -0.13351      0.99952     2.12499    0.00899     3.13351
      H   17    0.10376      0.00000     0.39454    0.00171     0.39624
      H   18    0.10519      0.00000     0.39346    0.00135     0.39481
      H   19    0.10324      0.00000     0.39474    0.00202     0.39676
      H   20    0.08661      0.00000     0.40996    0.00343     0.41339
      H   21    0.19441      0.00000     0.29984    0.00575     0.30559
      H   22    0.10433      0.00000     0.39330    0.00237     0.39567
      H   23    0.10015      0.00000     0.39890    0.00095     0.39985
      H   24    0.09837      0.00000     0.40087    0.00076     0.40163
      H   25    0.09898      0.00000     0.40023    0.00080     0.40102
      H   26    0.10781      0.00000     0.39021    0.00198     0.39219
      H   27    0.19150      0.00000     0.30580    0.00270     0.30850
      H   28    0.09922      0.00000     0.39950    0.00128     0.40078
      H   29    0.09911      0.00000     0.40001    0.00088     0.40089
      H   30    0.09970      0.00000     0.39941    0.00089     0.40030
      H   31    0.10008      0.00000     0.39900    0.00092     0.39992
      H   32    0.10382      0.00000     0.39467    0.00151     0.39618
 =======================================================================
   * Total *    0.00000     15.99303    40.81579    0.19118    57.00000

 Normal termination of Gaussian 16 at Thu Dec 10 22:49:12 2020.
