 Gaussian 16, Revision A.03,

 -----------------------------------------------------------
 # opt freq B3LYP/6-31G(d) empiricaldispersion=gd3bj scf=xqc
 -----------------------------------------------------------

 ------------------------------
 CID_63700927_JID_7519_neutraal
 ------------------------------
 Symbolic Z-matrix:
 Charge =  0 Multiplicity = 1

 SCF Done:  E(RB3LYP) =  -783.461847896     A.U. after   15 cycles
 SCF Done:  E(RB3LYP) =  -783.465817139     A.U. after   13 cycles
 SCF Done:  E(RB3LYP) =  -783.460534216     A.U. after   14 cycles
 SCF Done:  E(RB3LYP) =  -783.466036233     A.U. after   13 cycles
 SCF Done:  E(RB3LYP) =  -783.468568039     A.U. after   15 cycles
 SCF Done:  E(RB3LYP) =  -783.469444618     A.U. after   13 cycles
 SCF Done:  E(RB3LYP) =  -783.468844438     A.U. after   13 cycles
 SCF Done:  E(RB3LYP) =  -783.470416607     A.U. after   13 cycles
 SCF Done:  E(RB3LYP) =  -783.471528937     A.U. after   13 cycles
 SCF Done:  E(RB3LYP) =  -783.472825779     A.U. after   13 cycles
 SCF Done:  E(RB3LYP) =  -783.484541393     A.U. after   10 cycles
 SCF Done:  E(RB3LYP) =  -783.484546433     A.U. after    9 cycles
 SCF Done:  E(RB3LYP) =  -783.484551656     A.U. after   10 cycles
 SCF Done:  E(RB3LYP) =  -783.484552450     A.U. after    8 cycles
 SCF Done:  E(RB3LYP) =  -783.484552511     A.U. after    7 cycles
 Optimization completed.
    -- Stationary point found.
 Normal termination of Gaussian 16 at Thu Dec 17 20:26:53 2020.

 --------------------------------------------------------------------
 #N Geom=AllCheck Guess=TCheck SCRF=Check GenChk RB3LYP/6-31G(d) Freq
 --------------------------------------------------------------------

 Structure from the checkpoint file:  "JID_7519.chk"
 ------------------------------
 CID_63700927_JID_7519_neutraal
 ------------------------------
 Charge =  0 Multiplicity = 1

 SCF Done:  E(RB3LYP) =  -783.484552511     A.U. after    1 cycles

  Exact polarizability: 183.843   9.218 175.929 -21.006   9.954 102.847
 Approx polarizability: 262.297  15.868 261.543 -46.238  23.591 165.072

                      1                      2                      3
                      A                      A                      A
 Frequencies --     22.9596                32.7828                44.4268
 Red. masses --      4.3001                 4.1910                 4.3612
 Frc consts  --      0.0013                 0.0027                 0.0051
 IR Inten    --      1.3397                 0.8967                 0.0395

                      4                      5                      6
                      A                      A                      A
 Frequencies --     69.9577                81.8695               109.2312
 Red. masses --      4.8771                 2.9414                 3.6828
 Frc consts  --      0.0141                 0.0116                 0.0259
 IR Inten    --      1.1104                 0.1331                 3.1197

                      7                      8                      9
                      A                      A                      A
 Frequencies --    111.7520               138.8802               164.3312
 Red. masses --      2.7920                 2.2696                 4.0266
 Frc consts  --      0.0205                 0.0258                 0.0641
 IR Inten    --      1.3138                 0.4053                 4.2894

                     10                     11                     12
                      A                      A                      A
 Frequencies --    179.0663               202.4485               249.7249
 Red. masses --      3.5332                 2.1983                 1.6623
 Frc consts  --      0.0667                 0.0531                 0.0611
 IR Inten    --      1.9807                 0.4569                 0.6561

                     13                     14                     15
                      A                      A                      A
 Frequencies --    260.8207               271.6817               295.7626
 Red. masses --      1.4388                 2.2548                 2.4543
 Frc consts  --      0.0577                 0.0981                 0.1265
 IR Inten    --      0.5203                 0.4642                 1.5068

                     16                     17                     18
                      A                      A                      A
 Frequencies --    312.5558               350.3619               393.2353
 Red. masses --      1.2133                 4.4672                 3.8897
 Frc consts  --      0.0698                 0.3231                 0.3544
 IR Inten    --      2.5491                 4.7229                 2.1516

                     19                     20                     21
                      A                      A                      A
 Frequencies --    399.0356               418.0982               439.8552
 Red. masses --      2.2655                 2.4173                 3.8968
 Frc consts  --      0.2125                 0.2490                 0.4442
 IR Inten    --      1.2118                 3.3203                 0.4008

                     22                     23                     24
                      A                      A                      A
 Frequencies --    450.2806               470.4961               506.1037
 Red. masses --      2.0694                 3.4371                 2.2560
 Frc consts  --      0.2472                 0.4483                 0.3405
 IR Inten    --      2.3110                 2.2099                 5.4183

                     25                     26                     27
                      A                      A                      A
 Frequencies --    535.1591               560.5814               583.3216
 Red. masses --      2.4170                 3.5046                 4.5840
 Frc consts  --      0.4078                 0.6489                 0.9190
 IR Inten    --     17.4054                 5.7710                 0.9487

                     28                     29                     30
                      A                      A                      A
 Frequencies --    647.3587               647.5056               710.3487
 Red. masses --      2.0794                 2.8823                 4.6827
 Frc consts  --      0.5134                 0.7120                 1.3922
 IR Inten    --     72.3213                69.7117                21.4120

                     31                     32                     33
                      A                      A                      A
 Frequencies --    738.3204               771.4262               772.5269
 Red. masses --      2.2377                 2.6123                 2.8398
 Frc consts  --      0.7187                 0.9159                 0.9985
 IR Inten    --      1.0063                71.7918                 2.7578

                     34                     35                     36
                      A                      A                      A
 Frequencies --    823.8360               837.4079               868.6681
 Red. masses --      3.3201                 3.6565                 2.9067
 Frc consts  --      1.3276                 1.5107                 1.2923
 IR Inten    --      6.7095                 6.9462                12.3797

                     37                     38                     39
                      A                      A                      A
 Frequencies --    881.3013               897.2039               962.2852
 Red. masses --      1.4687                 2.2394                 1.8671
 Frc consts  --      0.6721                 1.0621                 1.0187
 IR Inten    --      0.1537                 2.0201                 6.1283

                     40                     41                     42
                      A                      A                      A
 Frequencies --    991.5970              1001.4083              1010.0496
 Red. masses --      1.2813                 4.8667                 2.9948
 Frc consts  --      0.7423                 2.8755                 1.8001
 IR Inten    --      0.0530                 3.0572                86.8122

                     43                     44                     45
                      A                      A                      A
 Frequencies --   1066.6295              1070.7773              1083.1370
 Red. masses --      2.7351                 2.0616                 1.6352
 Frc consts  --      1.8334                 1.3927                 1.1303
 IR Inten    --     12.2141                36.2045                 5.0572

                     46                     47                     48
                      A                      A                      A
 Frequencies --   1096.3037              1125.5800              1135.2845
 Red. masses --      1.9502                 1.6856                 1.2796
 Frc consts  --      1.3810                 1.2582                 0.9717
 IR Inten    --      6.3784                11.3208                22.8459

                     49                     50                     51
                      A                      A                      A
 Frequencies --   1152.1558              1154.7433              1176.3731
 Red. masses --      1.9176                 1.5801                 1.8081
 Frc consts  --      1.4998                 1.2414                 1.4742
 IR Inten    --     90.4360                49.3857               123.5477

                     52                     53                     54
                      A                      A                      A
 Frequencies --   1195.0425              1204.7057              1213.8510
 Red. masses --      1.4370                 1.4557                 1.4641
 Frc consts  --      1.2091                 1.2447                 1.2710
 IR Inten    --      2.6485                 4.9519               111.5946

                     55                     56                     57
                      A                      A                      A
 Frequencies --   1216.3606              1244.8060              1292.1241
 Red. masses --      1.6148                 1.7125                 1.9841
 Frc consts  --      1.4077                 1.5634                 1.9517
 IR Inten    --      0.2217                43.7048                15.9596

                     58                     59                     60
                      A                      A                      A
 Frequencies --   1317.1927              1330.0743              1357.1619
 Red. masses --      1.7352                 2.5030                 4.3010
 Frc consts  --      1.7738                 2.6089                 4.6675
 IR Inten    --     96.5058                18.7865                36.3489

                     61                     62                     63
                      A                      A                      A
 Frequencies --   1380.7062              1392.0601              1395.5472
 Red. masses --      1.4099                 2.3209                 1.4434
 Frc consts  --      1.5836                 2.6498                 1.6562
 IR Inten    --     12.1876                61.1888                14.6165

                     64                     65                     66
                      A                      A                      A
 Frequencies --   1411.4702              1423.8462              1438.2879
 Red. masses --      1.4213                 1.3045                 1.9727
 Frc consts  --      1.6684                 1.5582                 2.4044
 IR Inten    --     22.8648                 2.6069                56.1967

                     67                     68                     69
                      A                      A                      A
 Frequencies --   1470.6130              1482.5322              1491.2975
 Red. masses --      1.1611                 1.5331                 2.5497
 Frc consts  --      1.4795                 1.9853                 3.3409
 IR Inten    --      0.9140                50.9694                29.3173

                     70                     71                     72
                      A                      A                      A
 Frequencies --   1494.4583              1503.7810              1508.0207
 Red. masses --      1.1444                 1.0795                 1.0790
 Frc consts  --      1.5058                 1.4382                 1.4457
 IR Inten    --      0.8236                11.5562                 4.0040

                     73                     74                     75
                      A                      A                      A
 Frequencies --   1513.0801              1518.3869              1521.8105
 Red. masses --      1.1240                 1.1140                 1.1016
 Frc consts  --      1.5161                 1.5132                 1.5032
 IR Inten    --     26.0682                17.8833                19.8813

                     76                     77                     78
                      A                      A                      A
 Frequencies --   1530.6156              1538.5877              1542.5877
 Red. masses --      1.0851                 1.0975                 1.2953
 Frc consts  --      1.4978                 1.5307                 1.8161
 IR Inten    --     35.1181                10.4450                 9.9121

                     79                     80                     81
                      A                      A                      A
 Frequencies --   1554.6253              1560.3648              1616.3146
 Red. masses --      1.0577                 1.5551                 5.4778
 Frc consts  --      1.5061                 2.2307                 8.4315
 IR Inten    --     11.6860               165.8888                27.8175

                     82                     83                     84
                      A                      A                      A
 Frequencies --   1661.1261              1837.7097              2920.9858
 Red. masses --      5.9931                10.0383                 1.0625
 Frc consts  --      9.7432                19.9740                 5.3413
 IR Inten    --    310.1827               262.1247                44.5497

                     85                     86                     87
                      A                      A                      A
 Frequencies --   2931.9015              3018.1074              3028.2946
 Red. masses --      1.0640                 1.0404                 1.0691
 Frc consts  --      5.3888                 5.5836                 5.7767
 IR Inten    --    130.3733                52.7982                13.1887

                     88                     89                     90
                      A                      A                      A
 Frequencies --   3036.8756              3049.5261              3063.0089
 Red. masses --      1.0700                 1.0626                 1.1044
 Frc consts  --      5.8141                 5.8220                 6.1047
 IR Inten    --     82.5887                39.4287                42.4479

                     91                     92                     93
                      A                      A                      A
 Frequencies --   3063.2727              3072.9944              3076.0424
 Red. masses --      1.0678                 1.0767                 1.0961
 Frc consts  --      5.9038                 5.9906                 6.1108
 IR Inten    --     42.8060                58.1850                32.7079

                     94                     95                     96
                      A                      A                      A
 Frequencies --   3093.3819              3109.5098              3154.0652
 Red. masses --      1.1013                 1.1038                 1.0956
 Frc consts  --      6.2093                 6.2879                 6.4218
 IR Inten    --     42.2689                38.4986                16.2257

                     97                     98                     99
                      A                      A                      A
 Frequencies --   3163.1584              3183.9943              3197.4424
 Red. masses --      1.0971                 1.0903                 1.0897
 Frc consts  --      6.4674                 6.5123                 6.5640
 IR Inten    --      2.9163                 2.8386                16.2632

                    100                    101                    102
                      A                      A                      A
 Frequencies --   3240.2744              3257.4273              3701.4593
 Red. masses --      1.0917                 1.0932                 1.0642
 Frc consts  --      6.7533                 6.8344                 8.5904
 IR Inten    --     10.0224                 0.4768                72.7737

 - Thermochemistry -
 -------------------
 Temperature   298.150 Kelvin.  Pressure   1.00000 Atm.
 Atom     1 has atomic number  6 and mass  12.00000

 Molecular mass:   237.14773 amu.
 Principal axes and moments of inertia in atomic units:
                           1         2         3
     Eigenvalues --  3210.581445063.654717526.86628
           X            0.99954  -0.02989  -0.00470
           Y            0.02988   0.99955  -0.00134
           Z            0.00474   0.00120   0.99999
 This molecule is an asymmetric top.
 Rotational symmetry number  1.
 Warning -- assumption of classical behavior for rotation
           may cause significant error
 Rotational temperatures (Kelvin)      0.02698     0.01711     0.01151
 Rotational constants (GHZ):           0.56212     0.35641     0.23977
 Zero-point vibrational energy     812251.7 (Joules/Mol)
                                  194.13281 (Kcal/Mol)
 Warning -- explicit consideration of  27 degrees of freedom as
           vibrations may cause significant error
 Vibrational temperatures:     33.03    47.17    63.92   100.65   117.79
          (Kelvin)            157.16   160.79   199.82   236.44   257.64
                              291.28   359.30   375.26   390.89   425.54
                              449.70   504.09   565.78   574.12   601.55
                              632.85   647.85   676.94   728.17   769.97
                              806.55   839.27   931.40   931.62  1022.03
                             1062.28  1109.91  1111.49  1185.32  1204.84
                             1249.82  1268.00  1290.88  1384.51  1426.69
                             1440.80  1453.24  1534.64  1540.61  1558.39
                             1577.34  1619.46  1633.42  1657.70  1661.42
                             1692.54  1719.40  1733.30  1746.46  1750.07
                             1791.00  1859.08  1895.15  1913.68  1952.65
                             1986.53  2002.86  2007.88  2030.79  2048.60
                             2069.38  2115.88  2133.03  2145.64  2150.19
                             2163.61  2169.71  2176.98  2184.62  2189.55
                             2202.21  2213.68  2219.44  2236.76  2245.02
                             2325.52  2389.99  2644.05  4202.65  4218.35
                             4342.38  4357.04  4369.39  4387.59  4406.99
                             4407.37  4421.35  4425.74  4450.69  4473.89
                             4538.00  4551.08  4581.06  4600.41  4662.03
                             4686.71  5325.57

 Zero-point correction=                           0.309370 (Hartree/Particle)
 Thermal correction to Energy=                    0.326883
 Thermal correction to Enthalpy=                  0.327827
 Thermal correction to Gibbs Free Energy=         0.262616
 Sum of electronic and zero-point Energies=           -783.175182
 Sum of electronic and thermal Energies=              -783.157670
 Sum of electronic and thermal Enthalpies=            -783.156726
 Sum of electronic and thermal Free Energies=         -783.221937

                     E (Thermal)             CV                S
                      KCal/Mol        Cal/Mol-Kelvin    Cal/Mol-Kelvin
 Total                  205.122             65.217            137.248
 Electronic               0.000              0.000              0.000
 Translational            0.889              2.981             42.292
 Rotational               0.889              2.981             33.170
 Vibrational            203.345             59.255             61.786
 Vibration     1          0.593              1.985              6.360
 Vibration     2          0.594              1.983              5.653
 Vibration     3          0.595              1.980              5.051
 Vibration     4          0.598              1.968              4.155
 Vibration     5          0.600              1.962              3.846
 Vibration     6          0.606              1.942              3.283
 Vibration     7          0.607              1.940              3.238
 Vibration     8          0.614              1.914              2.819
 Vibration     9          0.623              1.886              2.499
 Vibration    10          0.629              1.868              2.338
 Vibration    11          0.639              1.836              2.111
 Vibration    12          0.663              1.763              1.733
 Vibration    13          0.669              1.744              1.656
 Vibration    14          0.675              1.725              1.585
 Vibration    15          0.690              1.682              1.441
 Vibration    16          0.701              1.650              1.349
 Vibration    17          0.727              1.575              1.165
 Vibration    18          0.760              1.485              0.988
 Vibration    19          0.765              1.472              0.966
 Vibration    20          0.781              1.431              0.898
 Vibration    21          0.800              1.383              0.827
 Vibration    22          0.809              1.360              0.795
 Vibration    23          0.828              1.316              0.736
 Vibration    24          0.861              1.236              0.643
 Vibration    25          0.890              1.172              0.576
 Vibration    26          0.916              1.117              0.523
 Vibration    27          0.940              1.067              0.479

                           ! Non-Optimized Parameters !
 Normal termination of Gaussian 16 at Thu Dec 17 20:40:23 2020.

 ----------------------------------------------------------------------
 # B3LYP/6-311++G(d,p) empiricaldispersion=gd3bj scf=xqc pop=npa geom=c
 heck
 ----------------------------------------------------------------------

 --------------------------------------
 CID_63700927_JID_7519_Energie_neutraal
 --------------------------------------
 Structure from the checkpoint file:  "JID_7519.chk"
 Charge =  0 Multiplicity = 1

 SCF Done:  E(RB3LYP) =  -783.708346339     A.U. after   15 cycles
 Normal termination of Gaussian 16 at Thu Dec 17 20:46:21 2020.

 ----------------------------------------------------------------------
 # B3LYP/6-311++G(d,p) empiricaldispersion=gd3bj scf=xqc pop=npa geom=c
 heck
 ----------------------------------------------------------------------

 ------------------------------------
 CID_63700927_JID_7519_Energie_kation
 ------------------------------------
 Structure from the checkpoint file:  "JID_7519.chk"
 Charge =  1 Multiplicity = 2

 SCF Done:  E(UB3LYP) =  -783.445460723     A.U. after   22 cycles
 Normal termination of Gaussian 16 at Thu Dec 17 20:58:21 2020.
 Gaussian 16:  ES64L-G16RevA.03 25-Dec-2016

 ----------------------------------------------------------------------
 # B3LYP/6-311++G(d,p) empiricaldispersion=gd3bj scf=xqc pop=npa geom=c
 heck
 ----------------------------------------------------------------------

 -----------------------------------
 CID_63700927_JID_7519_Energie_anion
 -----------------------------------
 Structure from the checkpoint file:  "JID_7519.chk"
 Charge = -1 Multiplicity = 2

                         Standard orientation:
 ---------------------------------------------------------------------
 Center     Atomic      Atomic             Coordinates (Angstroms)
 Number     Number       Type             X           Y           Z
 ---------------------------------------------------------------------
      1          6           0        1.953452   -2.070512   -0.274848
      2          7           0        2.703489   -1.396473    0.774865
      3          6           0        4.123365   -1.681308    0.693094
      4          6           0        2.402127    0.025756    0.912434
      5          6           0        2.678448    0.928071   -0.317712
      6          6           0        1.451714    1.179218   -1.207146
      7          7           0        0.418279    1.972699   -0.539334
      8          6           0        0.686559    3.377751   -0.303090
      9          6           0       -0.770891    1.422843   -0.131622
     10          6           0       -1.759623    2.204359    0.527844
     11          6           0       -2.943730    1.597018    0.905786
     12          6           0       -3.154275    0.240257    0.640332
     13          6           0       -2.124799   -0.443328   -0.004401
     14          7           0       -0.970676    0.118082   -0.378013
     15          6           0       -2.245495   -1.902124   -0.330655
     16          8           0       -1.394639   -2.581859   -0.859818
     17          8           0       -3.451042   -2.411885    0.038196
     18          1           0        2.073628   -3.154716   -0.164874
     19          1           0        2.290093   -1.807075   -1.297278
     20          1           0        0.890414   -1.833074   -0.200421
     21          1           0        4.604848   -1.337575   -0.244767
     22          1           0        4.647045   -1.210409    1.533070
     23          1           0        4.279124   -2.764445    0.758030
     24          1           0        1.346898    0.117678    1.193850
     25          1           0        2.988375    0.390967    1.764496
     26          1           0        3.073985    1.895759    0.019174
     27          1           0        3.468283    0.484870   -0.937675
     28          1           0        1.756334    1.716142   -2.115904
     29          1           0        0.992413    0.240843   -1.511584
     30          1           0       -0.075338    4.018788   -0.766971
     31          1           0        0.733300    3.620184    0.767720
     32          1           0        1.651511    3.629223   -0.746110
     33          1           0       -1.596469    3.253525    0.737835
     34          1           0       -3.708764    2.179789    1.411189
     35          1           0       -4.068120   -0.265092    0.922029
     36          1           0       -3.420876   -3.353579   -0.211562
 ---------------------------------------------------------------------

 SCF Done:  E(UB3LYP) =  -783.714371059     A.U. after   33 cycles
 SCF Done:  E(UB3LYP) =  -783.714371059     a.u. after    1 cycles

 The electronic state is 2-A.
 Alpha  occ. eigenvalues --  -19.01542 -18.94071 -14.20363 -14.19100 -14.13225
 Alpha  occ. eigenvalues --  -10.12169 -10.09641 -10.09129 -10.08574 -10.07962
 Alpha  occ. eigenvalues --  -10.07633 -10.05711 -10.05649 -10.04040 -10.03014
 Alpha  occ. eigenvalues --  -10.01745 -10.01559  -0.95115  -0.85677  -0.83848
 Alpha  occ. eigenvalues --   -0.80898  -0.76915  -0.66441  -0.64865  -0.62116
 Alpha  occ. eigenvalues --   -0.59732  -0.59186  -0.56269  -0.52455  -0.50400
 Alpha  occ. eigenvalues --   -0.46399  -0.45146  -0.44212  -0.40382  -0.37522
 Alpha  occ. eigenvalues --   -0.36630  -0.35620  -0.34827  -0.34244  -0.33725
 Alpha  occ. eigenvalues --   -0.32948  -0.32395  -0.31081  -0.30251  -0.30011
 Alpha  occ. eigenvalues --   -0.28788  -0.28689  -0.27337  -0.26964  -0.25998
 Alpha  occ. eigenvalues --   -0.25468  -0.24925  -0.24125  -0.24049  -0.23295
 Alpha  occ. eigenvalues --   -0.22995  -0.22490  -0.17701  -0.16239  -0.13698
 Alpha  occ. eigenvalues --   -0.12253  -0.10836  -0.09885  -0.07155   0.04895
 Alpha virt. eigenvalues --    0.06569   0.07530   0.08862   0.09147   0.09669
 Alpha virt. eigenvalues --    0.10100   0.10793   0.10950   0.11190   0.12612
 Alpha virt. eigenvalues --    0.12827   0.13376   0.13447   0.13895   0.14136

  Beta  occ. eigenvalues --  -19.01462 -18.93775 -14.20381 -14.19100 -14.12850
  Beta  occ. eigenvalues --  -10.11913 -10.09722 -10.09116 -10.08567 -10.07961
  Beta  occ. eigenvalues --  -10.07630 -10.05706 -10.05645 -10.03779 -10.02902
  Beta  occ. eigenvalues --  -10.01755 -10.01282  -0.94801  -0.85228  -0.83757
  Beta  occ. eigenvalues --   -0.80894  -0.76441  -0.66383  -0.64434  -0.61748
  Beta  occ. eigenvalues --   -0.59704  -0.59170  -0.56092  -0.52085  -0.50044
  Beta  occ. eigenvalues --   -0.46358  -0.44961  -0.43993  -0.40288  -0.37491
  Beta  occ. eigenvalues --   -0.36600  -0.35532  -0.34715  -0.34208  -0.33553
  Beta  occ. eigenvalues --   -0.32729  -0.32180  -0.31029  -0.30068  -0.28788
  Beta  occ. eigenvalues --   -0.28639  -0.28579  -0.27324  -0.26912  -0.25860
  Beta  occ. eigenvalues --   -0.25403  -0.24234  -0.23976  -0.23920  -0.23181
  Beta  occ. eigenvalues --   -0.22822  -0.22420  -0.16529  -0.15669  -0.11937
  Beta  occ. eigenvalues --   -0.11744  -0.10475  -0.09784  -0.06259
  Beta virt. eigenvalues --    0.06596   0.07545   0.08807   0.09113   0.09654
  Beta virt. eigenvalues --    0.10035   0.10663   0.10815   0.11030   0.11208
  Beta virt. eigenvalues --    0.12590   0.12735   0.13384   0.13739   0.13842

 Mulliken charges and spin densities:
               1          2
     1  C   -0.513749  -0.036597
     2  N    0.115516   0.017977
     3  C   -0.153754  -0.160953
     4  C   -0.586000   0.003604
     5  C   -0.041528  -0.159227
     6  C   -0.304908   0.066046
     7  N    0.192198   0.016562
     8  C   -0.118107  -0.235069
     9  C   -0.247450   0.008900
    10  C   -0.246993   0.194441
    11  C   -0.217179   0.051870
    12  C   -0.387264   0.029633
    13  C   -0.195141   0.159601
    14  N   -0.088420   0.172951
    15  C    0.145936   0.141437
    16  O   -0.395620   0.108306
    17  O   -0.227889   0.016662
    18  H    0.107862  -0.003032
    19  H    0.078352   0.009529
    20  H    0.331297   0.006084
    21  H    0.039727   0.043792
    22  H    0.049005   0.073302
    23  H    0.088271   0.035489
    24  H    0.240096   0.008696
    25  H    0.082296   0.038013
    26  H    0.066653   0.053997
    27  H    0.061465   0.061058
    28  H    0.099526   0.052591
    29  H    0.261795  -0.014438
    30  H    0.044885   0.100082
    31  H    0.156737   0.011145
    32  H   -0.019976   0.136468
    33  H    0.063787  -0.013168
    34  H    0.117383   0.004383
    35  H    0.146340   0.001060
    36  H    0.254852  -0.001195
 Sum of Mulliken charges =  -1.00000   1.00000

 Dipole moment (field-independent basis, Debye):
    X=              3.7903    Y=              1.9998    Z=              0.3954  Tot=              4.3037
 Quadrupole moment (field-independent basis, Debye-Ang):
   XX=           -140.3234   YY=           -128.5007   ZZ=           -118.7229
   XY=              2.1521   XZ=             -1.7183   YZ=             -0.9829

 Summary of Natural Population Analysis:

                                       Natural Population
                Natural  -----------------------------------------------
    Atom  No    Charge         Core      Valence    Rydberg      Total
 -----------------------------------------------------------------------
      C    1   -0.18604      0.99965     2.17848    0.00791     3.18604
      N    2   -0.27492      0.99973     2.76366    0.01152     3.77492
      C    3   -0.17471      0.99965     2.16834    0.00672     3.17471
      C    4   -0.08772      0.99961     2.07393    0.01418     3.08772
      C    5   -0.21145      0.99962     2.20275    0.00907     3.21145
      C    6   -0.08576      0.99961     2.07451    0.01164     3.08576
      N    7   -0.26209      0.99964     2.75200    0.01046     3.76209
      C    8   -0.17677      0.99965     2.16832    0.00879     3.17677
      C    9    0.19190      0.99953     1.79413    0.01445     2.80810
      C   10   -0.10481      0.99953     2.09701    0.00826     3.10481
      C   11   -0.06977      0.99958     2.06118    0.00900     3.06977
      C   12   -0.13459      0.99954     2.12616    0.00890     3.13459
      C   13    0.09554      0.99949     1.89191    0.01307     2.90446
      N   14   -0.20621      0.99964     2.69638    0.01020     3.70621
      C   15    0.42346      0.99969     1.55300    0.02385     2.57654
      O   16   -0.29585      0.99987     3.28884    0.00714     4.29585
      O   17   -0.35567      0.99988     3.34833    0.00746     4.35567
      H   18    0.08816      0.00000     0.41066    0.00118     0.41184
      H   19    0.07200      0.00000     0.42647    0.00153     0.42800
      H   20    0.12588      0.00000     0.37257    0.00155     0.37412
      H   21    0.07378      0.00000     0.42398    0.00224     0.42622
      H   22    0.08989      0.00000     0.40902    0.00110     0.41011
      H   23    0.09078      0.00000     0.40812    0.00110     0.40922
      H   24    0.10772      0.00000     0.39088    0.00140     0.39228
      H   25    0.08714      0.00000     0.41185    0.00101     0.41286
      H   26    0.09270      0.00000     0.40612    0.00118     0.40730
      H   27    0.09447      0.00000     0.40366    0.00188     0.40553
      H   28    0.08361      0.00000     0.41545    0.00093     0.41639
      H   29    0.12366      0.00000     0.37487    0.00146     0.37634
      H   30    0.09225      0.00000     0.40625    0.00150     0.40775
      H   31    0.08967      0.00000     0.40913    0.00120     0.41033
      H   32    0.09418      0.00000     0.40505    0.00077     0.40582
      H   33    0.09139      0.00000     0.40737    0.00124     0.40861
      H   34    0.08796      0.00000     0.41102    0.00102     0.41204
      H   35    0.10328      0.00000     0.39568    0.00104     0.39672
      H   36    0.22695      0.00000     0.26769    0.00536     0.27305
 =======================================================================
   * Total *   -0.00000     16.99390    46.79479    0.21130    64.00000

 Normal termination of Gaussian 16 at Thu Dec 17 21:16:20 2020.
