 Gaussian 16, Revision A.03,

 -----------------------------------------------------------
 # opt freq B3LYP/6-31G(d) empiricaldispersion=gd3bj scf=xqc
 -----------------------------------------------------------

 ------------------------------
 CID_76984678_JID_8450_neutraal
 ------------------------------
 Symbolic Z-matrix:
 Charge =  0 Multiplicity = 1

 SCF Done:  E(RB3LYP) =  -1090.16922012     A.U. after   15 cycles
 SCF Done:  E(RB3LYP) =  -1090.17348812     A.U. after   12 cycles
 SCF Done:  E(RB3LYP) =  -1090.17430838     A.U. after   12 cycles
 SCF Done:  E(RB3LYP) =  -1090.17471804     A.U. after   14 cycles
 SCF Done:  E(RB3LYP) =  -1090.17505432     A.U. after   12 cycles
 SCF Done:  E(RB3LYP) =  -1090.17526382     A.U. after   12 cycles
 SCF Done:  E(RB3LYP) =  -1090.17534142     A.U. after   10 cycles
 SCF Done:  E(RB3LYP) =  -1090.17541293     A.U. after   11 cycles
 SCF Done:  E(RB3LYP) =  -1090.17544376     A.U. after   11 cycles
 SCF Done:  E(RB3LYP) =  -1090.17545214     A.U. after   10 cycles
 SCF Done:  E(RB3LYP) =  -1090.17545605     A.U. after    7 cycles
 SCF Done:  E(RB3LYP) =  -1090.17545611     A.U. after    8 cycles
 SCF Done:  E(RB3LYP) =  -1090.17545619     A.U. after    8 cycles
 SCF Done:  E(RB3LYP) =  -1090.17545625     A.U. after    8 cycles
 SCF Done:  E(RB3LYP) =  -1090.17545628     A.U. after    8 cycles
 Optimization completed.
    -- Stationary point found.
 Normal termination of Gaussian 16 at Fri Dec 11 20:13:07 2020.

 --------------------------------------------------------------------
 #N Geom=AllCheck Guess=TCheck SCRF=Check GenChk RB3LYP/6-31G(d) Freq
 --------------------------------------------------------------------

 Structure from the checkpoint file:  "JID_8450.chk"
 ------------------------------
 CID_76984678_JID_8450_neutraal
 ------------------------------
 Charge =  0 Multiplicity = 1

 SCF Done:  E(RB3LYP) =  -1090.17545628     A.U. after    1 cycles

  Exact polarizability: 277.449 -33.879 158.968   4.470   9.911 144.941
 Approx polarizability: 375.073 -71.053 258.501  11.481  18.812 240.085

                      1                      2                      3
                      A                      A                      A
 Frequencies --      9.1679                12.5776                18.5649
 Red. masses --      5.7566                 3.6596                 5.3994
 Frc consts  --      0.0003                 0.0003                 0.0011
 IR Inten    --      0.2879                 0.0283                 0.0802

                      4                      5                      6
                      A                      A                      A
 Frequencies --     45.1285                68.7679               100.6642
 Red. masses --      4.0476                 3.7253                 3.4274
 Frc consts  --      0.0049                 0.0104                 0.0205
 IR Inten    --      0.2043                 0.3657                 0.7816

                      7                      8                      9
                      A                      A                      A
 Frequencies --    105.1645               130.5016               153.1604
 Red. masses --      3.0749                 1.0930                 3.7095
 Frc consts  --      0.0200                 0.0110                 0.0513
 IR Inten    --      0.4989                 0.3926                 0.5523

                     10                     11                     12
                      A                      A                      A
 Frequencies --    169.5716               212.8878               232.1967
 Red. masses --      3.0477                 4.1661                 3.3473
 Frc consts  --      0.0516                 0.1112                 0.1063
 IR Inten    --      0.6056                 2.1875                 1.1275

                     13                     14                     15
                      A                      A                      A
 Frequencies --    263.4917               278.1978               296.5367
 Red. masses --      3.2732                 3.2099                 1.1189
 Frc consts  --      0.1339                 0.1464                 0.0580
 IR Inten    --      2.7806                 0.1794                 0.3842

                     16                     17                     18
                      A                      A                      A
 Frequencies --    341.2914               350.5505               367.7180
 Red. masses --      3.6997                 3.3544                 2.8499
 Frc consts  --      0.2539                 0.2429                 0.2270
 IR Inten    --      1.0655                 1.0442                 2.0088

                     19                     20                     21
                      A                      A                      A
 Frequencies --    396.2020               413.3747               465.5176
 Red. masses --      3.9890                 2.9812                 3.3551
 Frc consts  --      0.3689                 0.3001                 0.4284
 IR Inten    --      3.1474                 0.0111                 2.5781

                     22                     23                     24
                      A                      A                      A
 Frequencies --    493.1594               539.3856               561.3958
 Red. masses --      2.4255                 3.3704                 7.1093
 Frc consts  --      0.3476                 0.5777                 1.3201
 IR Inten    --      5.8392                 0.2574                 2.2891

                     25                     26                     27
                      A                      A                      A
 Frequencies --    587.9572               622.4637               636.5906
 Red. masses --      4.0066                 4.8128                 6.3910
 Frc consts  --      0.8161                 1.0987                 1.5259
 IR Inten    --      3.5077                 7.6945                 0.0200

                     28                     29                     30
                      A                      A                      A
 Frequencies --    639.0909               675.9025               704.5798
 Red. masses --      4.2449                 6.2176                 1.9507
 Frc consts  --      1.0215                 1.6736                 0.5706
 IR Inten    --      6.1202                 3.5738                12.0889

                     31                     32                     33
                      A                      A                      A
 Frequencies --    731.1793               745.6294               759.7488
 Red. masses --      1.8245                 1.3101                 1.8364
 Frc consts  --      0.5747                 0.4291                 0.6245
 IR Inten    --     94.5184                62.0387                15.3086

                     34                     35                     36
                      A                      A                      A
 Frequencies --    771.8197               829.4528               848.4485
 Red. masses --      2.3694                 2.6085                 1.4360
 Frc consts  --      0.8316                 1.0574                 0.6090
 IR Inten    --     25.5900                 6.9986                 1.2117

                     37                     38                     39
                      A                      A                      A
 Frequencies --    860.5832               861.6486               885.9458
 Red. masses --      3.5333                 1.7721                 2.2975
 Frc consts  --      1.5418                 0.7752                 1.0625
 IR Inten    --      3.0300                 4.4913                31.2376

                     40                     41                     42
                      A                      A                      A
 Frequencies --    923.1090               961.4275               967.0538
 Red. masses --      1.4830                 1.3769                 2.0890
 Frc consts  --      0.7446                 0.7499                 1.1511
 IR Inten    --      0.6555                 0.5940                 8.8089

                     43                     44                     45
                      A                      A                      A
 Frequencies --    984.3881               989.6281              1013.0743
 Red. masses --      3.3547                 1.2575                 1.1272
 Frc consts  --      1.9153                 0.7256                 0.6816
 IR Inten    --      4.6704                 2.1919                26.1146

                     46                     47                     48
                      A                      A                      A
 Frequencies --   1019.6165              1024.5396              1052.5068
 Red. masses --      5.9776                 1.4994                 2.8059
 Frc consts  --      3.6615                 0.9273                 1.8313
 IR Inten    --      0.1163                 4.2058                47.2336

                     49                     50                     51
                      A                      A                      A
 Frequencies --   1062.2615              1079.5320              1083.5671
 Red. masses --      2.1870                 1.5110                 2.4565
 Frc consts  --      1.4540                 1.0375                 1.6993
 IR Inten    --      0.4354                 4.0485                31.3886

                     52                     53                     54
                      A                      A                      A
 Frequencies --   1095.0303              1114.5597              1127.1579
 Red. masses --      2.4102                 1.7420                 2.0247
 Frc consts  --      1.7028                 1.2750                 1.5156
 IR Inten    --     21.9919                15.5249                 6.2690

                     55                     56                     57
                      A                      A                      A
 Frequencies --   1141.7384              1170.2126              1188.2647
 Red. masses --      3.6110                 1.7584                 1.6211
 Frc consts  --      2.7734                 1.4187                 1.3486
 IR Inten    --     89.8746                16.8149                12.2003

                     58                     59                     60
                      A                      A                      A
 Frequencies --   1194.0599              1218.2395              1248.6831
 Red. masses --      1.0956                 1.1443                 2.0947
 Frc consts  --      0.9204                 1.0006                 1.9244
 IR Inten    --      0.1288                 0.3532                 1.3421

                     61                     62                     63
                      A                      A                      A
 Frequencies --   1282.3557              1319.3922              1346.8863
 Red. masses --      1.5744                 1.5112                 1.7095
 Frc consts  --      1.5254                 1.5499                 1.8272
 IR Inten    --     11.9721                 6.4817                 2.9375

                     64                     65                     66
                      A                      A                      A
 Frequencies --   1349.8402              1362.7306              1374.5301
 Red. masses --      4.2201                 1.5117                 1.7359
 Frc consts  --      4.5304                 1.6540                 1.9323
 IR Inten    --     25.3058                 5.9975                 2.7177

                     67                     68                     69
                      A                      A                      A
 Frequencies --   1382.0491              1397.6268              1409.0362
 Red. masses --      1.2504                 1.5087                 1.4182
 Frc consts  --      1.4072                 1.7363                 1.6590
 IR Inten    --      3.5956                 2.4013                19.0772

                     70                     71                     72
                      A                      A                      A
 Frequencies --   1423.8787              1441.7188              1499.3664
 Red. masses --      1.2285                 1.2715                 2.0693
 Frc consts  --      1.4675                 1.5571                 2.7409
 IR Inten    --      7.0095                 0.9070                 5.9113

                     73                     74                     75
                      A                      A                      A
 Frequencies --   1503.7384              1505.8784              1511.9416
 Red. masses --      1.1647                 1.0446                 1.2220
 Frc consts  --      1.5518                 1.3956                 1.6458
 IR Inten    --     46.6786                 5.4734                 9.4534

                     76                     77                     78
                      A                      A                      A
 Frequencies --   1519.3480              1521.3707              1530.5505
 Red. masses --      1.1492                 1.0915                 1.0932
 Frc consts  --      1.5631                 1.4885                 1.5089
 IR Inten    --     41.7167                 4.2871                21.1039

                     79                     80                     81
                      A                      A                      A
 Frequencies --   1549.0586              1549.8287              1596.1028
 Red. masses --      2.2201                 4.5659                 4.9554
 Frc consts  --      3.1387                 6.4617                 7.4379
 IR Inten    --     13.4754                11.8351                35.8415

                     82                     83                     84
                      A                      A                      A
 Frequencies --   1638.2548              1665.3582              1725.8168
 Red. masses --      5.2051                 5.5025                 5.5952
 Frc consts  --      8.2308                 8.9913                 9.8187
 IR Inten    --      1.5346                 7.0851                 0.3447

                     85                     86                     87
                      A                      A                      A
 Frequencies --   3026.6297              3043.2336              3053.3797
 Red. masses --      1.0591                 1.0844                 1.0365
 Frc consts  --      5.7159                 5.9170                 5.6935
 IR Inten    --     41.6745                24.6197                25.8944

                     88                     89                     90
                      A                      A                      A
 Frequencies --   3054.8125              3062.0149              3108.9870
 Red. masses --      1.0350                 1.1045                 1.1013
 Frc consts  --      5.6905                 6.1017                 6.2718
 IR Inten    --     14.5243                34.6554                14.8989

                     91                     92                     93
                      A                      A                      A
 Frequencies --   3121.4089              3137.8158              3139.4070
 Red. masses --      1.1018                 1.0881                 1.1019
 Frc consts  --      6.3248                 6.3119                 6.3988
 IR Inten    --     56.2090                17.7429                17.2132

                     94                     95                     96
                      A                      A                      A
 Frequencies --   3143.0850              3177.6124              3180.5004
 Red. masses --      1.1036                 1.0859                 1.0876
 Frc consts  --      6.4234                 6.4603                 6.4823
 IR Inten    --     18.5662                 9.6081                11.2826

                     97                     98                     99
                      A                      A                      A
 Frequencies --   3185.8041              3195.0347              3204.3236
 Red. masses --      1.0869                 1.0908                 1.0928
 Frc consts  --      6.4993                 6.5603                 6.6107
 IR Inten    --      3.7925                15.7850                42.2923

                    100                    101                    102
                      A                      A                      A
 Frequencies --   3212.3242              3275.5183              3513.1734
 Red. masses --      1.0976                 1.0947                 1.0742
 Frc consts  --      6.6731                 6.9197                 7.8117
 IR Inten    --     21.4750                 1.5176                 2.6810

 - Thermochemistry -
 -------------------
 Temperature   298.150 Kelvin.  Pressure   1.00000 Atm.
 Atom     1 has atomic number  6 and mass  12.00000

 Molecular mass:   258.11907 amu.
 Principal axes and moments of inertia in atomic units:
                           1         2         3
     Eigenvalues --  2075.23112********************
           X            0.99998   0.00655   0.00050
           Y           -0.00655   0.99995  -0.00796
           Z           -0.00055   0.00796   0.99997
 This molecule is an asymmetric top.
 Rotational symmetry number  1.
 Warning -- assumption of classical behavior for rotation
           may cause significant error
 Rotational temperatures (Kelvin)      0.04174     0.00592     0.00560
 Rotational constants (GHZ):           0.86966     0.12339     0.11661
 Zero-point vibrational energy     790053.3 (Joules/Mol)
                                  188.82726 (Kcal/Mol)
 Warning -- explicit consideration of  25 degrees of freedom as
           vibrations may cause significant error
 Vibrational temperatures:     13.19    18.10    26.71    64.93    98.94
          (Kelvin)            144.83   151.31   187.76   220.36   243.98
                              306.30   334.08   379.11   400.26   426.65
                              491.04   504.36   529.06   570.05   594.75
                              669.78   709.55   776.06   807.72   845.94
                              895.59   915.91   919.51   972.47  1013.73
                             1052.00  1072.79  1093.11  1110.48  1193.40
                             1220.73  1238.19  1239.72  1274.68  1328.15
                             1383.28  1391.37  1416.31  1423.85  1457.59
                             1467.00  1474.08  1514.32  1528.36  1553.21
                             1559.01  1575.50  1603.60  1621.73  1642.71
                             1683.67  1709.65  1717.99  1752.77  1796.58
                             1845.02  1898.31  1937.87  1942.12  1960.67
                             1977.64  1988.46  2010.87  2027.29  2048.64
                             2074.31  2157.25  2163.54  2166.62  2175.35
                             2186.00  2188.91  2202.12  2228.75  2229.86
                             2296.44  2357.08  2396.08  2483.07  4354.65
                             4378.53  4393.13  4395.19  4405.56  4473.14
                             4491.01  4514.62  4516.91  4522.20  4571.88
                             4576.03  4583.66  4596.94  4610.31  4621.82
                             4712.74  5054.67

 Zero-point correction=                           0.300915 (Hartree/Particle)
 Thermal correction to Energy=                    0.318718
 Thermal correction to Enthalpy=                  0.319662
 Thermal correction to Gibbs Free Energy=         0.250317
 Sum of electronic and zero-point Energies=          -1089.874541
 Sum of electronic and thermal Energies=             -1089.856738
 Sum of electronic and thermal Enthalpies=           -1089.855794
 Sum of electronic and thermal Free Energies=        -1089.925140

                     E (Thermal)             CV                S
                      KCal/Mol        Cal/Mol-Kelvin    Cal/Mol-Kelvin
 Total                  199.999             66.647            145.950
 Electronic               0.000              0.000              0.000
 Translational            0.889              2.981             42.545
 Rotational               0.889              2.981             34.506
 Vibrational            198.221             60.686             68.899
 Vibration     1          0.593              1.987              8.184
 Vibration     2          0.593              1.987              7.555
 Vibration     3          0.593              1.986              6.782
 Vibration     4          0.595              1.979              5.020
 Vibration     5          0.598              1.969              4.188
 Vibration     6          0.604              1.949              3.441
 Vibration     7          0.605              1.945              3.356
 Vibration     8          0.612              1.923              2.939
 Vibration     9          0.619              1.899              2.633
 Vibration    10          0.625              1.880              2.440
 Vibration    11          0.644              1.821              2.019
 Vibration    12          0.653              1.792              1.862
 Vibration    13          0.670              1.740              1.639
 Vibration    14          0.679              1.714              1.545
 Vibration    15          0.690              1.680              1.436
 Vibration    16          0.721              1.593              1.206
 Vibration    17          0.727              1.574              1.164
 Vibration    18          0.740              1.539              1.089
 Vibration    19          0.763              1.478              0.977
 Vibration    20          0.777              1.441              0.915
 Vibration    21          0.823              1.327              0.750
 Vibration    22          0.849              1.265              0.675
 Vibration    23          0.894              1.163              0.567
 Vibration    24          0.917              1.115              0.521
 Vibration    25          0.945              1.057              0.471

                           ! Non-Optimized Parameters !
 Normal termination of Gaussian 16 at Fri Dec 11 20:25:08 2020.

 ----------------------------------------------------------------------
 # B3LYP/6-311++G(d,p) empiricaldispersion=gd3bj scf=xqc pop=npa geom=c
 heck
 ----------------------------------------------------------------------

 --------------------------------------
 CID_76984678_JID_8450_Energie_neutraal
 --------------------------------------
 Structure from the checkpoint file:  "JID_8450.chk"
 Charge =  0 Multiplicity = 1

 SCF Done:  E(RB3LYP) =  -1090.38720305     A.U. after   15 cycles
 Normal termination of Gaussian 16 at Fri Dec 11 20:30:36 2020.

 ----------------------------------------------------------------------
 # B3LYP/6-311++G(d,p) empiricaldispersion=gd3bj scf=xqc pop=npa geom=c
 heck
 ----------------------------------------------------------------------

 ------------------------------------
 CID_76984678_JID_8450_Energie_kation
 ------------------------------------
 Structure from the checkpoint file:  "JID_8450.chk"
 Charge =  1 Multiplicity = 2

 SCF Done:  E(UB3LYP) =  -1090.11356814     A.U. after   28 cycles
 Normal termination of Gaussian 16 at Fri Dec 11 20:44:20 2020.
 Gaussian 16:  ES64L-G16RevA.03 25-Dec-2016

 ----------------------------------------------------------------------
 # B3LYP/6-311++G(d,p) empiricaldispersion=gd3bj scf=xqc pop=npa geom=c
 heck
 ----------------------------------------------------------------------

 -----------------------------------
 CID_76984678_JID_8450_Energie_anion
 -----------------------------------
 Structure from the checkpoint file:  "JID_8450.chk"
 Charge = -1 Multiplicity = 2

                         Standard orientation:
 ---------------------------------------------------------------------
 Center     Atomic      Atomic             Coordinates (Angstroms)
 Number     Number       Type             X           Y           Z
 ---------------------------------------------------------------------
      1          6           0        4.163147    3.039197   -0.466030
      2          6           0        4.082377    1.555822   -0.270173
      3          6           0        5.115777    0.668509   -0.390217
      4         16           0        4.565777   -0.948773   -0.080455
      5          6           0        2.959402   -0.306415    0.201204
      6          7           0        2.868063    0.984853    0.068787
      7          6           0        1.777788   -1.183390    0.536630
      8          6           0        1.189414   -0.761595    1.897689
      9          7           0        0.872790   -1.132855   -0.613670
     10          6           0       -0.354261   -1.937813   -0.537015
     11          6           0       -1.550882   -1.201462    0.002248
     12          6           0       -2.635585   -0.923125   -0.736160
     13          6           0       -3.832456   -0.179291   -0.324558
     14          6           0       -4.889456   -0.035476   -1.238762
     15          6           0       -6.048574    0.659877   -0.900379
     16          6           0       -6.176034    1.230922    0.365441
     17          6           0       -5.132806    1.099179    1.286581
     18          6           0       -3.977056    0.404092    0.947399
     19          1           0        3.488057    3.360696   -1.267427
     20          1           0        3.859166    3.567193    0.445086
     21          1           0        5.179533    3.349279   -0.724151
     22          1           0        6.148104    0.875012   -0.635100
     23          1           0        2.129392   -2.220000    0.619845
     24          1           0        0.826602    0.269233    1.845625
     25          1           0        0.363436   -1.419975    2.184701
     26          1           0        1.953121   -0.817219    2.681662
     27          1           0        0.653374   -0.161520   -0.824237
     28          1           0       -0.591248   -2.311507   -1.542195
     29          1           0       -0.131267   -2.820471    0.077914
     30          1           0       -1.484192   -0.853359    1.030598
     31          1           0       -2.655023   -1.285430   -1.765137
     32          1           0       -4.794783   -0.478388   -2.227328
     33          1           0       -6.851379    0.755762   -1.626203
     34          1           0       -7.077293    1.774577    0.633840
     35          1           0       -5.221897    1.542490    2.274654
     36          1           0       -3.176878    0.315804    1.675909
 ---------------------------------------------------------------------

 SCF Done:  E(UB3LYP) =  -1090.38506330     A.U. after   33 cycles
 SCF Done:  E(UB3LYP) =  -1090.38533548     a.u. after    5 cycles

 The electronic state is 2-A.
 Alpha  occ. eigenvalues --  -88.77487 -14.20314 -14.18706 -10.12511 -10.11308
 Alpha  occ. eigenvalues --  -10.10803 -10.09163 -10.08388 -10.07809 -10.06209
 Alpha  occ. eigenvalues --  -10.05655 -10.05352 -10.05088 -10.05019 -10.04580
 Alpha  occ. eigenvalues --  -10.04466 -10.03879 -10.03236  -7.86137  -5.82405
 Alpha  occ. eigenvalues --   -5.82063  -5.81756  -0.86178  -0.80012  -0.73641
 Alpha  occ. eigenvalues --   -0.69301  -0.69082  -0.66840  -0.64638  -0.62669
 Alpha  occ. eigenvalues --   -0.61376  -0.58475  -0.55386  -0.51555  -0.49298
 Alpha  occ. eigenvalues --   -0.48459  -0.47760  -0.43389  -0.43187  -0.40294
 Alpha  occ. eigenvalues --   -0.39186  -0.36044  -0.35654  -0.34519  -0.34156
 Alpha  occ. eigenvalues --   -0.33777  -0.32870  -0.32157  -0.31024  -0.30536
 Alpha  occ. eigenvalues --   -0.30338  -0.29844  -0.28977  -0.28206  -0.27068
 Alpha  occ. eigenvalues --   -0.26042  -0.25708  -0.25591  -0.25039  -0.23968
 Alpha  occ. eigenvalues --   -0.22342  -0.21791  -0.18239  -0.17989  -0.17384
 Alpha  occ. eigenvalues --   -0.13960  -0.13937  -0.12509  -0.09918   0.04272
 Alpha virt. eigenvalues --    0.05642   0.06817   0.07607   0.07871   0.08007
 Alpha virt. eigenvalues --    0.08727   0.09259   0.09663   0.09927   0.10286
 Alpha virt. eigenvalues --    0.10593   0.10831   0.11137   0.12054   0.12624

  Beta  occ. eigenvalues --  -88.77470 -14.20269 -14.18651 -10.12366 -10.11318
  Beta  occ. eigenvalues --  -10.10808 -10.09070 -10.08401 -10.07794 -10.06198
  Beta  occ. eigenvalues --  -10.05713 -10.05328 -10.05056 -10.04888 -10.04371
  Beta  occ. eigenvalues --  -10.04333 -10.03793 -10.02988  -7.86121  -5.82398
  Beta  occ. eigenvalues --   -5.82056  -5.81696  -0.86040  -0.79903  -0.73393
  Beta  occ. eigenvalues --   -0.69173  -0.68925  -0.66545  -0.64515  -0.62494
  Beta  occ. eigenvalues --   -0.61073  -0.58353  -0.55219  -0.51387  -0.49081
  Beta  occ. eigenvalues --   -0.48348  -0.47545  -0.43144  -0.43030  -0.40194
  Beta  occ. eigenvalues --   -0.39080  -0.35938  -0.35538  -0.34347  -0.34041
  Beta  occ. eigenvalues --   -0.33654  -0.32779  -0.32070  -0.30945  -0.30433
  Beta  occ. eigenvalues --   -0.30290  -0.29796  -0.28903  -0.27982  -0.26923
  Beta  occ. eigenvalues --   -0.25945  -0.25589  -0.25041  -0.24869  -0.23881
  Beta  occ. eigenvalues --   -0.22191  -0.21699  -0.17731  -0.17321  -0.17026
  Beta  occ. eigenvalues --   -0.13472  -0.13451  -0.12139  -0.08937
  Beta virt. eigenvalues --    0.06263   0.07542   0.07684   0.07799   0.08173
  Beta virt. eigenvalues --    0.08575   0.08793   0.09329   0.09590   0.10049
  Beta virt. eigenvalues --    0.10425   0.10554   0.10809   0.11053   0.12091

 Mulliken charges and spin densities:
               1          2
     1  C    0.485455  -1.148475
     2  C   -1.036323   0.302573
     3  C    0.502177   0.150291
     4  S   -0.389937  -0.182329
     5  C   -0.474204   0.559053
     6  N    0.180495   0.033767
     7  C    0.422743  -0.465380
     8  C   -0.690280   0.053826
     9  N    0.202233  -0.001851
    10  C   -0.737171  -0.020427
    11  C    0.377374   0.192620
    12  C   -0.184138   0.022564
    13  C    1.320378   0.076251
    14  C    0.104095   0.040038
    15  C   -0.438310   0.029288
    16  C   -0.428448   0.164417
    17  C   -0.252715  -0.033767
    18  C   -1.209251   0.138553
    19  H    0.095212   0.057850
    20  H    0.071363   0.076627
    21  H   -0.135794   0.274026
    22  H   -0.430768   0.677946
    23  H    0.136053  -0.005969
    24  H    0.183028  -0.003155
    25  H    0.146744   0.011588
    26  H    0.117468   0.018562
    27  H    0.205553   0.008094
    28  H    0.168098   0.001307
    29  H    0.135759   0.011059
    30  H   -0.023977  -0.009500
    31  H    0.056293  -0.007759
    32  H    0.116903   0.000667
    33  H    0.115848  -0.002578
    34  H    0.101335  -0.013450
    35  H    0.145595   0.003954
    36  H    0.041111  -0.010283
 Sum of Mulliken charges =  -1.00000   1.00000

 Dipole moment (field-independent basis, Debye):
    X=              1.2902    Y=             -1.7488    Z=              1.5039  Tot=              2.6429
 Quadrupole moment (field-independent basis, Debye-Ang):
   XX=           -228.1788   YY=           -137.7382   ZZ=           -129.0325
   XY=             -7.8439   XZ=              8.4965   YZ=              2.0165

 Summary of Natural Population Analysis:

                                       Natural Population
                Natural  -----------------------------------------------
    Atom  No    Charge         Core      Valence    Rydberg      Total
 -----------------------------------------------------------------------
      C    1   -0.29192      0.99962     2.28726    0.00503     3.29192
      C    2    0.05952      0.99950     1.92656    0.01442     2.94048
      C    3   -0.20426      0.99946     2.19337    0.01143     3.20426
      S    4    0.18615      4.99942     2.79312    0.02131     7.81385
      C    5    0.07500      0.99958     1.90704    0.01838     2.92500
      N    6   -0.25286      0.99962     2.74193    0.01132     3.75286
      C    7   -0.02995      0.99954     2.01625    0.01416     3.02995
      C    8   -0.29040      0.99965     2.28606    0.00470     3.29040
      N    9   -0.33364      0.99974     2.82151    0.01238     3.83364
      C   10   -0.10006      0.99962     2.08996    0.01048     3.10006
      C   11   -0.05217      0.99952     2.04524    0.00741     3.05217
      C   12   -0.08873      0.99951     2.08012    0.00910     3.08873
      C   13   -0.01352      0.99951     2.00499    0.00903     3.01352
      C   14   -0.09113      0.99954     2.08314    0.00845     3.09113
      C   15   -0.10739      0.99957     2.09833    0.00948     3.10739
      C   16   -0.07835      0.99957     2.06885    0.00993     3.07835
      C   17   -0.11738      0.99958     2.10849    0.00931     3.11738
      C   18   -0.06932      0.99953     2.06165    0.00814     3.06932
      H   19    0.10560      0.00000     0.39306    0.00134     0.39440
      H   20    0.10394      0.00000     0.39481    0.00126     0.39606
      H   21    0.10141      0.00000     0.39766    0.00093     0.39859
      H   22    0.10942      0.00000     0.38910    0.00148     0.39058
      H   23    0.09125      0.00000     0.40740    0.00136     0.40875
      H   24    0.10663      0.00000     0.39242    0.00095     0.39337
      H   25    0.09823      0.00000     0.40093    0.00083     0.40177
      H   26    0.09687      0.00000     0.40235    0.00078     0.40313
      H   27    0.18001      0.00000     0.31749    0.00251     0.31999
      H   28    0.08982      0.00000     0.40888    0.00130     0.41018
      H   29    0.08964      0.00000     0.40913    0.00123     0.41036
      H   30    0.08523      0.00000     0.41338    0.00138     0.41477
      H   31    0.08414      0.00000     0.41409    0.00177     0.41586
      H   32    0.09148      0.00000     0.40716    0.00136     0.40852
      H   33    0.09107      0.00000     0.40787    0.00107     0.40893
      H   34    0.08919      0.00000     0.40979    0.00103     0.41081
      H   35    0.09218      0.00000     0.40679    0.00103     0.40782
      H   36    0.09434      0.00000     0.40432    0.00135     0.40566
 =======================================================================
   * Total *    0.00000     21.99209    46.79051    0.21739    69.00000

 Normal termination of Gaussian 16 at Fri Dec 11 22:02:09 2020.
