 Gaussian 16, Revision A.03,

 -----------------------------------------------------------
 # opt freq B3LYP/6-31G(d) empiricaldispersion=gd3bj scf=xqc
 -----------------------------------------------------------

 --------------------------------
 CID_105738608_JID_10122_neutraal
 --------------------------------
 Symbolic Z-matrix:
 Charge =  0 Multiplicity = 1

 SCF Done:  E(RB3LYP) =  -1277.68143462     A.U. after   15 cycles
 SCF Done:  E(RB3LYP) =  -1277.68600710     A.U. after   13 cycles
 SCF Done:  E(RB3LYP) =  -1277.68698016     A.U. after   12 cycles
 SCF Done:  E(RB3LYP) =  -1277.68738787     A.U. after   12 cycles
 SCF Done:  E(RB3LYP) =  -1277.68756213     A.U. after   12 cycles
 SCF Done:  E(RB3LYP) =  -1277.68762247     A.U. after   11 cycles
 SCF Done:  E(RB3LYP) =  -1277.68770973     A.U. after   11 cycles
 SCF Done:  E(RB3LYP) =  -1277.68775206     A.U. after   12 cycles
 SCF Done:  E(RB3LYP) =  -1277.68777386     A.U. after   11 cycles
 SCF Done:  E(RB3LYP) =  -1277.68779274     A.U. after   11 cycles
 SCF Done:  E(RB3LYP) =  -1277.68837708     A.U. after   10 cycles
 SCF Done:  E(RB3LYP) =  -1277.68838041     A.U. after   10 cycles
 SCF Done:  E(RB3LYP) =  -1277.68838036     A.U. after    9 cycles
 SCF Done:  E(RB3LYP) =  -1277.68838067     A.U. after    8 cycles
 SCF Done:  E(RB3LYP) =  -1277.68838088     A.U. after    8 cycles
 Optimization completed.
    -- Stationary point found.
 Normal termination of Gaussian 16 at Sun Dec 13 21:06:49 2020.

 --------------------------------------------------------------------
 #N Geom=AllCheck Guess=TCheck SCRF=Check GenChk RB3LYP/6-31G(d) Freq
 --------------------------------------------------------------------

 Structure from the checkpoint file:  "JID_10122.chk"
 --------------------------------
 CID_105738608_JID_10122_neutraal
 --------------------------------
 Charge =  0 Multiplicity = 1

 SCF Done:  E(RB3LYP) =  -1277.68838088     A.U. after    1 cycles

  Exact polarizability: 214.523  37.603 162.929   1.045  -0.518 165.248
 Approx polarizability: 284.246  75.284 254.303   3.613   4.547 280.164

                      1                      2                      3
                      A                      A                      A
 Frequencies --     10.3972                15.3737                22.5293
 Red. masses --      3.9811                 5.6460                 3.7508
 Frc consts  --      0.0003                 0.0008                 0.0011
 IR Inten    --      0.0785                 0.6550                 0.4553

                      4                      5                      6
                      A                      A                      A
 Frequencies --     50.6294                69.9029                83.5296
 Red. masses --      3.8936                 5.4355                 1.9177
 Frc consts  --      0.0059                 0.0156                 0.0079
 IR Inten    --      2.0285                 2.5693                 4.3820

                      7                      8                      9
                      A                      A                      A
 Frequencies --     85.6012               107.0386               121.2941
 Red. masses --      1.5731                 4.2578                10.0809
 Frc consts  --      0.0068                 0.0287                 0.0874
 IR Inten    --      1.2284                 0.2004                 7.6169

                     10                     11                     12
                      A                      A                      A
 Frequencies --    171.0833               174.9962               187.4772
 Red. masses --      4.9016                 3.9890                 3.9845
 Frc consts  --      0.0845                 0.0720                 0.0825
 IR Inten    --      0.5143                 1.8703                 2.4052

                     13                     14                     15
                      A                      A                      A
 Frequencies --    217.7188               220.5700               243.7831
 Red. masses --      2.2735                 3.5090                 1.2023
 Frc consts  --      0.0635                 0.1006                 0.0421
 IR Inten    --      0.2689                 0.1771                 0.3551

                     16                     17                     18
                      A                      A                      A
 Frequencies --    257.6239               266.4175               307.1763
 Red. masses --      5.5006                 3.3493                 4.2986
 Frc consts  --      0.2151                 0.1401                 0.2390
 IR Inten    --      3.0573                 1.3808                 2.6483

                     19                     20                     21
                      A                      A                      A
 Frequencies --    317.4819               334.6688               372.4053
 Red. masses --      5.1427                 2.7806                 3.3317
 Frc consts  --      0.3054                 0.1835                 0.2722
 IR Inten    --      0.7642                 2.4369                 1.3129

                     22                     23                     24
                      A                      A                      A
 Frequencies --    406.8941               424.6057               468.9003
 Red. masses --      4.0621                 4.0189                 4.5187
 Frc consts  --      0.3962                 0.4269                 0.5854
 IR Inten    --      3.6958                 1.5611                 4.9899

                     25                     26                     27
                      A                      A                      A
 Frequencies --    478.8526               487.7673               514.6225
 Red. masses --      5.6074                 5.5351                 2.8081
 Frc consts  --      0.7576                 0.7759                 0.4382
 IR Inten    --     14.3579                49.0817                29.6369

                     28                     29                     30
                      A                      A                      A
 Frequencies --    526.1695               551.9617               597.2818
 Red. masses --      6.9568                 4.7958                 3.3236
 Frc consts  --      1.1348                 0.8609                 0.6986
 IR Inten    --      2.8680                69.9645                 6.5547

                     31                     32                     33
                      A                      A                      A
 Frequencies --    606.2212               614.9231               633.8327
 Red. masses --      3.5258                 4.4276                 3.6047
 Frc consts  --      0.7634                 0.9864                 0.8532
 IR Inten    --     22.4026                 6.1241                88.8979

                     34                     35                     36
                      A                      A                      A
 Frequencies --    643.3281               665.9538               735.8528
 Red. masses --      2.7619                 4.1041                 4.4772
 Frc consts  --      0.6735                 1.0724                 1.4283
 IR Inten    --     94.2891                 0.8975                 0.7450

                     37                     38                     39
                      A                      A                      A
 Frequencies --    748.6011               799.1128               838.8525
 Red. masses --      5.5481                 2.1508                 1.3978
 Frc consts  --      1.8319                 0.8092                 0.5795
 IR Inten    --      2.3527                 8.6306                25.5555

                     40                     41                     42
                      A                      A                      A
 Frequencies --    849.2161               889.1216               904.8857
 Red. masses --      2.6250                 2.3858                 2.4351
 Frc consts  --      1.1154                 1.1112                 1.1748
 IR Inten    --    114.8229                10.2967                 6.0558

                     43                     44                     45
                      A                      A                      A
 Frequencies --    919.7631               927.9918               955.4068
 Red. masses --      2.8312                 1.2849                 1.8150
 Frc consts  --      1.4111                 0.6520                 0.9761
 IR Inten    --     63.1614                 3.4081                 6.2907

                     46                     47                     48
                      A                      A                      A
 Frequencies --    967.7513               979.0719              1015.0519
 Red. masses --      1.3160                 1.8748                 1.6806
 Frc consts  --      0.7261                 1.0588                 1.0202
 IR Inten    --      0.2260                18.3043                11.5947

                     49                     50                     51
                      A                      A                      A
 Frequencies --   1029.8856              1037.1868              1065.0728
 Red. masses --      1.5473                 2.0386                 3.4842
 Frc consts  --      0.9670                 1.2921                 2.3287
 IR Inten    --      1.6817                20.1007                69.6834

                     52                     53                     54
                      A                      A                      A
 Frequencies --   1077.5017              1094.3346              1104.1651
 Red. masses --      1.5181                 3.3547                 3.8483
 Frc consts  --      1.0385                 2.3670                 2.7643
 IR Inten    --      3.9911                12.3284                74.0916

                     55                     56                     57
                      A                      A                      A
 Frequencies --   1120.1457              1134.3361              1146.5315
 Red. masses --      2.6812                 2.7888                 2.6840
 Frc consts  --      1.9821                 2.1143                 2.0788
 IR Inten    --     26.3133                97.9586                44.0655

                     58                     59                     60
                      A                      A                      A
 Frequencies --   1155.3965              1162.0241              1170.1431
 Red. masses --      2.6325                 2.2844                 2.1467
 Frc consts  --      2.0705                 1.8174                 1.7318
 IR Inten    --     69.8720                28.6075                24.0643

                     61                     62                     63
                      A                      A                      A
 Frequencies --   1215.5512              1225.8913              1251.2215
 Red. masses --      2.1309                 1.3071                 3.3142
 Frc consts  --      1.8550                 1.1573                 3.0570
 IR Inten    --      5.0592                 9.5206                 1.0782

                     64                     65                     66
                      A                      A                      A
 Frequencies --   1254.4108              1270.4496              1305.4063
 Red. masses --      1.2787                 1.3092                 1.4695
 Frc consts  --      1.1855                 1.2450                 1.4754
 IR Inten    --      9.3396                15.4226                15.5031

                     67                     68                     69
                      A                      A                      A
 Frequencies --   1310.6322              1326.6546              1343.5355
 Red. masses --      1.2744                 3.4864                 1.5184
 Frc consts  --      1.2898                 3.6153                 1.6148
 IR Inten    --      0.3009                84.4167                47.6750

                     70                     71                     72
                      A                      A                      A
 Frequencies --   1351.8511              1364.2808              1384.8093
 Red. masses --      7.7604                 1.2462                 1.2465
 Frc consts  --      8.3559                 1.3666                 1.4083
 IR Inten    --      2.2375                 6.8884                10.3918

                     73                     74                     75
                      A                      A                      A
 Frequencies --   1398.4985              1414.7876              1421.2759
 Red. masses --      1.3322                 1.3444                 1.4490
 Frc consts  --      1.5351                 1.5855                 1.7246
 IR Inten    --      3.8780                 6.2667                 5.0018

                     76                     77                     78
                      A                      A                      A
 Frequencies --   1438.9947              1443.0900              1447.5696
 Red. masses --      1.2762                 3.0695                 1.2468
 Frc consts  --      1.5569                 3.7662                 1.5392
 IR Inten    --      8.1774                19.8974                 2.4748

                     79                     80                     81
                      A                      A                      A
 Frequencies --   1453.1154              1510.8792              1513.9394
 Red. masses --      1.3137                 1.0424                 1.3713
 Frc consts  --      1.6343                 1.4020                 1.8518
 IR Inten    --     49.6240                 8.4051                15.3848

                     82                     83                     84
                      A                      A                      A
 Frequencies --   1514.4662              1517.9955              1526.6514
 Red. masses --      1.0548                 1.0922                 1.0511
 Frc consts  --      1.4254                 1.4829                 1.4434
 IR Inten    --      2.3987                 2.2833                 4.5248

                     85                     86                     87
                      A                      A                      A
 Frequencies --   1531.5117              1534.1370              1553.7049
 Red. masses --      1.7045                 1.1216                 1.0966
 Frc consts  --      2.3555                 1.5553                 1.5597
 IR Inten    --      8.5471                 6.0637                 1.2868

                     88                     89                     90
                      A                      A                      A
 Frequencies --   1618.3620              1656.1971              2350.5806
 Red. masses --      7.1833                 5.7893                12.6795
 Frc consts  --     11.0847                 9.3562                41.2765
 IR Inten    --      0.5975                 3.6187                20.2529

                     91                     92                     93
                      A                      A                      A
 Frequencies --   2993.3593              3000.5331              3040.2624
 Red. masses --      1.0736                 1.0845                 1.0661
 Frc consts  --      5.6679                 5.7526                 5.8061
 IR Inten    --     94.5064                17.7907                11.9898

                     94                     95                     96
                      A                      A                      A
 Frequencies --   3050.8099              3054.8258              3057.5085
 Red. masses --      1.0437                 1.0696                 1.0373
 Frc consts  --      5.7233                 5.8812                 5.7131
 IR Inten    --      6.6924                 7.3848                 8.6652

                     97                     98                     99
                      A                      A                      A
 Frequencies --   3063.2993              3101.1470              3112.8776
 Red. masses --      1.0673                 1.1011                 1.1007
 Frc consts  --      5.9009                 6.2393                 6.2840
 IR Inten    --     41.4945                17.1961                 5.8097

                    100                    101                    102
                      A                      A                      A
 Frequencies --   3113.2955              3117.1985              3120.3223
 Red. masses --      1.0922                 1.1015                 1.1032
 Frc consts  --      6.2374                 6.3062                 6.3285
 IR Inten    --     46.7115                27.0811                37.6051

                    103                    104                    105
                      A                      A                      A
 Frequencies --   3137.2164              3147.0040              3220.5548
 Red. masses --      1.1026                 1.1022                 1.0896
 Frc consts  --      6.3939                 6.4315                 6.6588
 IR Inten    --     28.0702                10.7882                 1.4768

                    106                    107                    108
                      A                      A                      A
 Frequencies --   3226.1588              3238.3566              3516.6489
 Red. masses --      1.0908                 1.0948                 1.0745
 Frc consts  --      6.6889                 6.7648                 7.8295
 IR Inten    --      1.7648                 0.5605                29.1833

 - Thermochemistry -
 -------------------
 Temperature   298.150 Kelvin.  Pressure   1.00000 Atm.
 Atom     1 has atomic number  6 and mass  12.00000

 Molecular mass:   294.10381 amu.
 Principal axes and moments of inertia in atomic units:
                           1         2         3
     Eigenvalues --  3709.61858********************
           X            0.99988  -0.01025  -0.01165
           Y            0.00981   0.99925  -0.03751
           Z            0.01203   0.03740   0.99923
 This molecule is an asymmetric top.
 Rotational symmetry number  1.
 Warning -- assumption of classical behavior for rotation
           may cause significant error
 Rotational temperatures (Kelvin)      0.02335     0.00739     0.00663
 Rotational constants (GHZ):           0.48650     0.15398     0.13824
 Zero-point vibrational energy     812553.0 (Joules/Mol)
                                  194.20482 (Kcal/Mol)
 Warning -- explicit consideration of  32 degrees of freedom as
           vibrations may cause significant error
 Vibrational temperatures:     14.96    22.12    32.41    72.84   100.57
          (Kelvin)            120.18   123.16   154.00   174.52   246.15
                              251.78   269.74   313.25   317.35   350.75
                              370.66   383.32   441.96   456.79   481.51
                              535.81   585.43   610.91   674.64   688.96
                              701.79   740.43   757.04   794.15   859.36
                              872.22   884.74   911.94   925.61   958.16
                             1058.73  1077.07  1149.75  1206.92  1221.83
                             1279.25  1301.93  1323.33  1335.17  1374.62
                             1392.38  1408.67  1460.43  1481.78  1492.28
                             1532.40  1550.28  1574.50  1588.65  1611.64
                             1632.06  1649.60  1662.36  1671.89  1683.57
                             1748.91  1763.78  1800.23  1804.82  1827.89
                             1878.19  1885.71  1908.76  1933.05  1945.01
                             1962.90  1992.43  2012.13  2035.56  2044.90
                             2070.39  2076.28  2082.73  2090.71  2173.82
                             2178.22  2178.98  2184.06  2196.51  2203.50
                             2207.28  2235.43  2328.46  2382.90  3381.96
                             4306.78  4317.10  4374.26  4389.43  4395.21
                             4399.07  4407.40  4461.86  4478.74  4479.34
                             4484.95  4489.45  4513.75  4527.84  4633.66
                             4641.72  4659.27  5059.67

 Zero-point correction=                           0.309485 (Hartree/Particle)
 Thermal correction to Energy=                    0.329514
 Thermal correction to Enthalpy=                  0.330458
 Thermal correction to Gibbs Free Energy=         0.257021
 Sum of electronic and zero-point Energies=          -1277.378896
 Sum of electronic and thermal Energies=             -1277.358867
 Sum of electronic and thermal Enthalpies=           -1277.357923
 Sum of electronic and thermal Free Energies=        -1277.431360

                     E (Thermal)             CV                S
                      KCal/Mol        Cal/Mol-Kelvin    Cal/Mol-Kelvin
 Total                  206.773             74.034            154.562
 Electronic               0.000              0.000              0.000
 Translational            0.889              2.981             42.934
 Rotational               0.889              2.981             34.694
 Vibrational            204.996             68.073             76.934
 Vibration     1          0.593              1.987              7.934
 Vibration     2          0.593              1.986              7.157
 Vibration     3          0.593              1.985              6.398
 Vibration     4          0.595              1.977              4.793
 Vibration     5          0.598              1.968              4.156
 Vibration     6          0.600              1.961              3.806
 Vibration     7          0.601              1.959              3.758
 Vibration     8          0.606              1.944              3.322
 Vibration     9          0.609              1.931              3.080
 Vibration    10          0.626              1.878              2.424
 Vibration    11          0.627              1.873              2.381
 Vibration    12          0.632              1.857              2.253
 Vibration    13          0.646              1.814              1.978
 Vibration    14          0.647              1.810              1.954
 Vibration    15          0.659              1.773              1.775
 Vibration    16          0.667              1.750              1.678
 Vibration    17          0.672              1.735              1.619
 Vibration    18          0.697              1.660              1.377
 Vibration    19          0.704              1.640              1.323
 Vibration    20          0.716              1.606              1.237
 Vibration    21          0.744              1.529              1.070
 Vibration    22          0.772              1.455              0.938
 Vibration    23          0.787              1.417              0.876
 Vibration    24          0.826              1.319              0.741
 Vibration    25          0.835              1.297              0.713
 Vibration    26          0.844              1.277              0.689
 Vibration    27          0.870              1.218              0.623
 Vibration    28          0.881              1.192              0.596
 Vibration    29          0.907              1.135              0.540
 Vibration    30          0.955              1.038              0.454
 Vibration    31          0.965              1.019              0.439
 Vibration    32          0.974              1.000              0.425

                           ! Non-Optimized Parameters !
 Normal termination of Gaussian 16 at Sun Dec 13 21:23:47 2020.

 ----------------------------------------------------------------------
 # B3LYP/6-311++G(d,p) empiricaldispersion=gd3bj scf=xqc pop=npa geom=c
 heck
 ----------------------------------------------------------------------

 ----------------------------------------
 CID_105738608_JID_10122_Energie_neutraal
 ----------------------------------------
 Structure from the checkpoint file:  "JID_10122.chk"
 Charge =  0 Multiplicity = 1

 SCF Done:  E(RB3LYP) =  -1277.95870688     A.U. after   16 cycles
 Normal termination of Gaussian 16 at Sun Dec 13 21:31:13 2020.

 ----------------------------------------------------------------------
 # B3LYP/6-311++G(d,p) empiricaldispersion=gd3bj scf=xqc pop=npa geom=c
 heck
 ----------------------------------------------------------------------

 --------------------------------------
 CID_105738608_JID_10122_Energie_kation
 --------------------------------------
 Structure from the checkpoint file:  "JID_10122.chk"
 Charge =  1 Multiplicity = 2

 SCF Done:  E(UB3LYP) =  -1277.62968032     A.U. after   33 cycles
 SCF Done:  E(UB3LYP) =  -1277.62968032     a.u. after    1 cycles
 Normal termination of Gaussian 16 at Sun Dec 13 21:52:22 2020.
 Gaussian 16:  ES64L-G16RevA.03 25-Dec-2016

 ----------------------------------------------------------------------
 # B3LYP/6-311++G(d,p) empiricaldispersion=gd3bj scf=xqc pop=npa geom=c
 heck
 ----------------------------------------------------------------------

 -------------------------------------
 CID_105738608_JID_10122_Energie_anion
 -------------------------------------
 Structure from the checkpoint file:  "JID_10122.chk"
 Charge = -1 Multiplicity = 2

                         Standard orientation:
 ---------------------------------------------------------------------
 Center     Atomic      Atomic             Coordinates (Angstroms)
 Number     Number       Type             X           Y           Z
 ---------------------------------------------------------------------
      1          6           0        3.992448   -0.027502   -1.928032
      2          6           0        3.962896   -0.194050   -0.412134
      3          6           0        2.673735   -0.880942    0.118230
      4          6           0        3.217078   -1.923421    1.110333
      5          6           0        4.578061   -2.248552    0.499864
      6          8           0        5.069277   -1.001678    0.017489
      7          6           0        1.674185    0.078314    0.756060
      8          7           0        1.167698    1.035199   -0.242203
      9         16           0       -0.135063    2.000904    0.227405
     10          8           0       -0.118450    2.261354    1.671428
     11          8           0       -0.164615    3.097326   -0.743045
     12          6           0       -1.501743    0.885036   -0.093550
     13          6           0       -2.247236    0.404274    0.979122
     14          6           0       -3.322519   -0.460857    0.759869
     15          6           0       -3.614539   -0.817881   -0.573979
     16          6           0       -2.859380   -0.319887   -1.649591
     17          6           0       -1.795358    0.539040   -1.412691
     18          6           0       -4.705351   -1.708480   -0.838681
     19          7           0       -5.591535   -2.434962   -1.037497
     20          6           0       -4.143850   -0.993333    1.903795
     21          1           0        3.907456   -1.004004   -2.417794
     22          1           0        4.931929    0.434802   -2.244900
     23          1           0        3.160163    0.596454   -2.275194
     24          1           0        4.093151    0.788188    0.068198
     25          1           0        2.174800   -1.391927   -0.714559
     26          1           0        2.564214   -2.795695    1.212482
     27          1           0        3.350252   -1.473290    2.101628
     28          1           0        4.473820   -2.975471   -0.322209
     29          1           0        5.306071   -2.641193    1.215258
     30          1           0        0.812235   -0.484398    1.129687
     31          1           0        2.126977    0.591172    1.615186
     32          1           0        1.882132    1.658721   -0.616397
     33          1           0       -1.986078    0.715164    1.984806
     34          1           0       -3.118052   -0.612533   -2.661446
     35          1           0       -1.202517    0.937139   -2.228029
     36          1           0       -4.123220   -2.088761    1.929770
     37          1           0       -3.770896   -0.617860    2.859856
     38          1           0       -5.194849   -0.699200    1.804433
 ---------------------------------------------------------------------

 SCF Done:  E(UB3LYP) =  -1277.99318713     A.U. after   25 cycles

 The electronic state is 2-A.
 Alpha  occ. eigenvalues --  -88.93832 -19.05381 -18.99866 -18.99721 -14.23745
 Alpha  occ. eigenvalues --  -14.15651 -10.15374 -10.15259 -10.12396 -10.10887
 Alpha  occ. eigenvalues --  -10.10670 -10.09371 -10.05880 -10.05491 -10.05281
 Alpha  occ. eigenvalues --  -10.05228 -10.04996 -10.04793 -10.04667 -10.04507
 Alpha  occ. eigenvalues --   -7.99998  -5.96323  -5.96269  -5.96019  -1.00027
 Alpha  occ. eigenvalues --   -0.97280  -0.89147  -0.82728  -0.76374  -0.73632
 Alpha  occ. eigenvalues --   -0.73014  -0.70287  -0.66188  -0.64106  -0.63295
 Alpha  occ. eigenvalues --   -0.58739  -0.57241  -0.55255  -0.52828  -0.50140
 Alpha  occ. eigenvalues --   -0.48412  -0.47118  -0.44574  -0.42426  -0.41078
 Alpha  occ. eigenvalues --   -0.40768  -0.40286  -0.37570  -0.36734  -0.36558
 Alpha  occ. eigenvalues --   -0.35540  -0.34255  -0.33841  -0.32749  -0.32375
 Alpha  occ. eigenvalues --   -0.31612  -0.30830  -0.30368  -0.29461  -0.28887
 Alpha  occ. eigenvalues --   -0.28007  -0.27585  -0.26702  -0.26166  -0.25198
 Alpha  occ. eigenvalues --   -0.24338  -0.23488  -0.23089  -0.22308  -0.21732
 Alpha  occ. eigenvalues --   -0.20894  -0.19775  -0.19096  -0.18954  -0.18488
 Alpha  occ. eigenvalues --   -0.17285  -0.13578  -0.12660   0.02531
 Alpha virt. eigenvalues --    0.05444   0.06735   0.07184   0.08129   0.09225
 Alpha virt. eigenvalues --    0.09491   0.09810   0.10078   0.10649   0.10954
 Alpha virt. eigenvalues --    0.11516   0.11798   0.12660   0.12890   0.13189

  Beta  occ. eigenvalues --  -88.93826 -19.05380 -18.99837 -18.99669 -14.23710
  Beta  occ. eigenvalues --  -14.15296 -10.15372 -10.15259 -10.12396 -10.10887
  Beta  occ. eigenvalues --  -10.10670 -10.09371 -10.05920 -10.05374 -10.05293
  Beta  occ. eigenvalues --  -10.04812 -10.04735 -10.04614 -10.04601 -10.04463
  Beta  occ. eigenvalues --   -7.99991  -5.96303  -5.96248  -5.96026  -0.99907
  Beta  occ. eigenvalues --   -0.97278  -0.89055  -0.82655  -0.75845  -0.73253
  Beta  occ. eigenvalues --   -0.72866  -0.70285  -0.65671  -0.63753  -0.63067
  Beta  occ. eigenvalues --   -0.58685  -0.56985  -0.54810  -0.52815  -0.50106
  Beta  occ. eigenvalues --   -0.48087  -0.46851  -0.44553  -0.42398  -0.40828
  Beta  occ. eigenvalues --   -0.40636  -0.40101  -0.37437  -0.36719  -0.36546
  Beta  occ. eigenvalues --   -0.35349  -0.34206  -0.33825  -0.32684  -0.32342
  Beta  occ. eigenvalues --   -0.31414  -0.30455  -0.30358  -0.29343  -0.28843
  Beta  occ. eigenvalues --   -0.27892  -0.27581  -0.26686  -0.25953  -0.24402
  Beta  occ. eigenvalues --   -0.23903  -0.23361  -0.22930  -0.21771  -0.20972
  Beta  occ. eigenvalues --   -0.20189  -0.19607  -0.19083  -0.18743  -0.18256
  Beta  occ. eigenvalues --   -0.17064  -0.12173  -0.10664
  Beta virt. eigenvalues --    0.05430   0.06714   0.07164   0.08073   0.08637
  Beta virt. eigenvalues --    0.09227   0.09488   0.09799   0.10062   0.10647
  Beta virt. eigenvalues --    0.11202   0.11520   0.11836   0.12665   0.12878

 Mulliken charges and spin densities:
               1          2
     1  C   -0.341781  -0.002444
     2  C   -0.521154   0.012976
     3  C    0.340613  -0.008158
     4  C   -0.357515  -0.004108
     5  C   -0.320269   0.001084
     6  O   -0.089111   0.000214
     7  C   -0.829190   0.004858
     8  N    0.036454  -0.003205
     9  S    0.371114   0.019095
    10  O   -0.170747   0.008762
    11  O   -0.202116  -0.015002
    12  C   -0.112204   0.208040
    13  C   -0.429415   0.078575
    14  C   -0.323939   0.130050
    15  C    2.172362   0.276513
    16  C   -0.503741   0.087046
    17  C    0.019681   0.113484
    18  C   -1.959897  -0.118559
    19  N   -0.300468   0.185707
    20  C   -0.495681  -0.003697
    21  H    0.144257  -0.000035
    22  H    0.147947   0.000164
    23  H    0.138156  -0.000529
    24  H    0.203896   0.002269
    25  H    0.213327   0.003969
    26  H    0.140171   0.002149
    27  H    0.150951  -0.000728
    28  H    0.132009  -0.000151
    29  H    0.164856   0.000089
    30  H    0.198714  -0.007840
    31  H    0.197655   0.002243
    32  H    0.253263   0.013474
    33  H    0.184049  -0.001213
    34  H    0.142347  -0.001906
    35  H    0.182900  -0.002323
    36  H    0.151565   0.008463
    37  H    0.120638   0.000177
    38  H    0.150301   0.010497
 Sum of Mulliken charges =  -1.00000   1.00000

 Dipole moment (field-independent basis, Debye):
    X=             13.0476    Y=             -1.6253    Z=              1.7788  Tot=             13.2682
 Quadrupole moment (field-independent basis, Debye-Ang):
   XX=           -221.1102   YY=           -164.3740   ZZ=           -138.5114
   XY=            -25.8176   XZ=            -12.3154   YZ=             -8.6858

 Summary of Natural Population Analysis:

                                       Natural Population
                Natural  -----------------------------------------------
    Atom  No    Charge         Core      Valence    Rydberg      Total
 -----------------------------------------------------------------------
      C    1   -0.29498      0.99964     2.29004    0.00530     3.29498
      C    2    0.06730      0.99956     1.92049    0.01265     2.93270
      C    3   -0.12390      0.99958     2.11434    0.00998     3.12390
      C    4   -0.20097      0.99962     2.19467    0.00668     3.20097
      C    5   -0.00919      0.99961     1.99862    0.01097     3.00919
      O    6   -0.30833      0.99989     3.29774    0.01070     4.30833
      C    7   -0.09134      0.99959     2.08017    0.01158     3.09134
      N    8   -0.43429      0.99975     2.92067    0.01388     3.93429
      S    9    1.11030      4.99920     1.79247    0.09803     6.88970
      O   10   -0.47355      0.99991     3.46657    0.00707     4.47355
      O   11   -0.46739      0.99991     3.46224    0.00525     4.46739
      C   12   -0.06207      0.99935     2.04778    0.01494     3.06207
      C   13   -0.09682      0.99947     2.08809    0.00927     3.09682
      C   14    0.02434      0.99951     1.96838    0.00777     2.97566
      C   15   -0.02745      0.99938     2.01795    0.01012     3.02745
      C   16   -0.06719      0.99955     2.05962    0.00802     3.06719
      C   17   -0.09216      0.99951     2.08334    0.00930     3.09216
      C   18    0.13876      0.99965     1.84243    0.01916     2.86124
      N   19   -0.15525      0.99978     2.64384    0.01163     3.65525
      C   20   -0.29323      0.99964     2.28929    0.00430     3.29323
      H   21    0.09819      0.00000     0.40089    0.00092     0.40181
      H   22    0.10024      0.00000     0.39887    0.00089     0.39976
      H   23    0.10461      0.00000     0.39450    0.00089     0.39539
      H   24    0.08451      0.00000     0.41427    0.00123     0.41549
      H   25    0.10391      0.00000     0.39465    0.00143     0.39609
      H   26    0.10483      0.00000     0.39417    0.00100     0.39517
      H   27    0.09799      0.00000     0.40071    0.00130     0.40201
      H   28    0.07520      0.00000     0.42331    0.00150     0.42480
      H   29    0.08836      0.00000     0.41054    0.00111     0.41164
      H   30    0.10932      0.00000     0.38947    0.00121     0.39068
      H   31    0.09051      0.00000     0.40784    0.00165     0.40949
      H   32    0.18734      0.00000     0.31039    0.00227     0.31266
      H   33    0.10672      0.00000     0.39217    0.00111     0.39328
      H   34    0.09711      0.00000     0.40198    0.00090     0.40289
      H   35    0.10337      0.00000     0.39551    0.00111     0.39663
      H   36    0.10404      0.00000     0.39502    0.00094     0.39596
      H   37    0.09626      0.00000     0.40282    0.00092     0.40374
      H   38    0.10493      0.00000     0.39414    0.00093     0.39507
 =======================================================================
   * Total *    0.00000     23.99211    53.69997    0.30791    78.00000

 Normal termination of Gaussian 16 at Sun Dec 13 22:08:09 2020.
