 Gaussian 16, Revision A.03,

 -----------------------------------------------------------
 # opt freq B3LYP/6-31G(d) empiricaldispersion=gd3bj scf=xqc
 -----------------------------------------------------------

 ------------------------------
 CID_21993556_JID_7818_neutraal
 ------------------------------
 Symbolic Z-matrix:
 Charge =  0 Multiplicity = 1

 SCF Done:  E(RB3LYP) =  -711.858068835     A.U. after   14 cycles
 SCF Done:  E(RB3LYP) =  -711.862089008     A.U. after   12 cycles
 SCF Done:  E(RB3LYP) =  -711.861689247     A.U. after   14 cycles
 SCF Done:  E(RB3LYP) =  -711.862710278     A.U. after   12 cycles
 SCF Done:  E(RB3LYP) =  -711.863330124     A.U. after   12 cycles
 SCF Done:  E(RB3LYP) =  -711.863138684     A.U. after   12 cycles
 SCF Done:  E(RB3LYP) =  -711.863475235     A.U. after   11 cycles
 SCF Done:  E(RB3LYP) =  -711.863500173     A.U. after   10 cycles
 SCF Done:  E(RB3LYP) =  -711.863503307     A.U. after    9 cycles
 SCF Done:  E(RB3LYP) =  -711.863503869     A.U. after    8 cycles
 SCF Done:  E(RB3LYP) =  -711.863503917     A.U. after    7 cycles
 Optimization completed.
    -- Stationary point found.
 Normal termination of Gaussian 16 at Fri Dec 11 13:09:34 2020.

 --------------------------------------------------------------------
 #N Geom=AllCheck Guess=TCheck SCRF=Check GenChk RB3LYP/6-31G(d) Freq
 --------------------------------------------------------------------

 Structure from the checkpoint file:  "JID_7818.chk"
 ------------------------------
 CID_21993556_JID_7818_neutraal
 ------------------------------
 Charge =  0 Multiplicity = 1

 SCF Done:  E(RB3LYP) =  -711.863503916     A.U. after    1 cycles

  Exact polarizability: 188.478 -29.709 151.150  -2.300   2.986 135.541
 Approx polarizability: 267.687 -53.199 242.987 -12.551   5.218 232.420

                      1                      2                      3
                      A                      A                      A
 Frequencies --     41.3775                44.5057                69.8886
 Red. masses --      4.5805                 4.1567                 4.4839
 Frc consts  --      0.0046                 0.0049                 0.0129
 IR Inten    --      0.1210                 0.0907                 0.0995

                      4                      5                      6
                      A                      A                      A
 Frequencies --     88.0293               105.1261               143.7346
 Red. masses --      4.6137                 4.1260                 2.8079
 Frc consts  --      0.0211                 0.0269                 0.0342
 IR Inten    --      2.7578                 1.0648                 1.6392

                      7                      8                      9
                      A                      A                      A
 Frequencies --    165.1415               203.3112               231.1764
 Red. masses --      2.9582                 4.5166                 3.6906
 Frc consts  --      0.0475                 0.1100                 0.1162
 IR Inten    --      2.2009                 0.4734                 0.4354

                     10                     11                     12
                      A                      A                      A
 Frequencies --    269.6918               295.1616               307.7486
 Red. masses --      3.5980                 4.7091                 1.2557
 Frc consts  --      0.1542                 0.2417                 0.0701
 IR Inten    --      1.0248                 0.6893                40.3248

                     13                     14                     15
                      A                      A                      A
 Frequencies --    335.2091               376.6128               420.2898
 Red. masses --      3.8640                 2.8463                 3.0572
 Frc consts  --      0.2558                 0.2379                 0.3182
 IR Inten    --      7.3324                 0.6983                 0.4568

                     16                     17                     18
                      A                      A                      A
 Frequencies --    420.8075               431.8492               462.2817
 Red. masses --      1.3221                 3.6780                 1.8855
 Frc consts  --      0.1379                 0.4041                 0.2374
 IR Inten    --    127.7671                 1.2951                61.6125

                     19                     20                     21
                      A                      A                      A
 Frequencies --    478.9591               522.9141               568.5263
 Red. masses --      3.3036                 4.2989                 3.6708
 Frc consts  --      0.4465                 0.6926                 0.6990
 IR Inten    --      2.2768                10.1863                 0.5999

                     22                     23                     24
                      A                      A                      A
 Frequencies --    592.7488               628.5612               637.1081
 Red. masses --      3.2796                 4.6020                 6.3471
 Frc consts  --      0.6789                 1.0713                 1.5179
 IR Inten    --      0.2384                 7.7030                 0.1911

                     25                     26                     27
                      A                      A                      A
 Frequencies --    660.8761               715.4632               724.1152
 Red. masses --      3.8330                 3.3807                 1.9114
 Frc consts  --      0.9863                 1.0196                 0.5905
 IR Inten    --      7.0694                 5.9223                32.4547

                     28                     29                     30
                      A                      A                      A
 Frequencies --    764.4976               772.3875               781.1007
 Red. masses --      2.0331                 1.9234                 1.9745
 Frc consts  --      0.7001                 0.6761                 0.7098
 IR Inten    --     17.6976                11.8251                15.1343

                     31                     32                     33
                      A                      A                      A
 Frequencies --    828.3015               847.9955               869.4132
 Red. masses --      2.8589                 2.5254                 1.2595
 Frc consts  --      1.1556                 1.0700                 0.5609
 IR Inten    --      6.8159                58.5511                 0.2938

                     34                     35                     36
                      A                      A                      A
 Frequencies --    876.3107               898.0176               936.8617
 Red. masses --      1.8328                 1.5678                 1.4449
 Frc consts  --      0.8292                 0.7449                 0.7472
 IR Inten    --      6.3952                 3.6589                26.8836

                     37                     38                     39
                      A                      A                      A
 Frequencies --    944.5591               953.1436               957.0240
 Red. masses --      1.6306                 2.3961                 1.5342
 Frc consts  --      0.8571                 1.2825                 0.8279
 IR Inten    --     23.0592               142.8516                 1.7170

                     40                     41                     42
                      A                      A                      A
 Frequencies --    980.1792               986.7351              1001.9391
 Red. masses --      1.3320                 1.2518                 1.2504
 Frc consts  --      0.7540                 0.7181                 0.7396
 IR Inten    --      2.1382                 0.5271                 0.9631

                     43                     44                     45
                      A                      A                      A
 Frequencies --   1022.2230              1050.4522              1060.5719
 Red. masses --      6.1251                 1.8474                 2.5075
 Frc consts  --      3.7710                 1.2011                 1.6617
 IR Inten    --      0.9007                 5.5296                10.3165

                     46                     47                     48
                      A                      A                      A
 Frequencies --   1080.5584              1086.2001              1093.1166
 Red. masses --      2.4014                 3.5339                 2.1666
 Frc consts  --      1.6520                 2.4565                 1.5253
 IR Inten    --     21.8480                78.4349                 9.1670

                     49                     50                     51
                      A                      A                      A
 Frequencies --   1117.0962              1139.2368              1184.6257
 Red. masses --      1.6460                 2.1213                 1.5547
 Frc consts  --      1.2102                 1.6221                 1.2854
 IR Inten    --      1.7012                 4.1477                10.6899

                     52                     53                     54
                      A                      A                      A
 Frequencies --   1193.7728              1198.6170              1208.5215
 Red. masses --      1.1091                 1.1406                 1.9935
 Frc consts  --      0.9313                 0.9655                 1.7154
 IR Inten    --      0.1040                 1.3752                 4.4091

                     55                     56                     57
                      A                      A                      A
 Frequencies --   1214.7672              1217.0700              1230.5407
 Red. masses --      1.2374                 1.2877                 1.7594
 Frc consts  --      1.0759                 1.1238                 1.5697
 IR Inten    --     11.9517                 0.6576                 2.1486

                     58                     59                     60
                      A                      A                      A
 Frequencies --   1233.7518              1242.6528              1295.0291
 Red. masses --      1.9289                 1.4662                 1.8519
 Frc consts  --      1.7299                 1.3340                 1.8299
 IR Inten    --      1.0649                 4.0487                10.3776

                     61                     62                     63
                      A                      A                      A
 Frequencies --   1347.1772              1357.3333              1367.3287
 Red. masses --      2.2314                 2.7291                 1.9204
 Frc consts  --      2.3860                 2.9624                 2.1153
 IR Inten    --      2.4512                 0.2638                 0.1904

                     64                     65                     66
                      A                      A                      A
 Frequencies --   1372.9637              1385.7549              1414.7717
 Red. masses --      1.4317                 1.6721                 1.2375
 Frc consts  --      1.5901                 1.8918                 1.4594
 IR Inten    --      8.8799                16.4482                 7.9590

                     67                     68                     69
                      A                      A                      A
 Frequencies --   1420.0925              1437.7535              1494.0170
 Red. masses --      1.2567                 1.2277                 2.2215
 Frc consts  --      1.4932                 1.4953                 2.9215
 IR Inten    --      2.2451                60.8837                 5.6059

                     70                     71                     72
                      A                      A                      A
 Frequencies --   1497.9010              1523.5758              1532.4947
 Red. masses --      2.2625                 1.0989                 1.1224
 Frc consts  --      2.9909                 1.5029                 1.5532
 IR Inten    --      9.1077                 2.7897                 1.7734

                     73                     74                     75
                      A                      A                      A
 Frequencies --   1540.9915              1545.5272              1635.6307
 Red. masses --      2.2645                 2.1991                 5.7085
 Frc consts  --      3.1683                 3.0949                 8.9980
 IR Inten    --     11.3013                15.3631                 0.4393

                     76                     77                     78
                      A                      A                      A
 Frequencies --   1643.5104              1660.0628              1666.7285
 Red. masses --      5.5522                 5.5885                 5.2993
 Frc consts  --      8.8361                 9.0740                 8.6736
 IR Inten    --      0.7460                 1.0657                 5.5093

                     79                     80                     81
                      A                      A                      A
 Frequencies --   1693.7478              2993.9281              3021.8653
 Red. masses --      1.1046                 1.0707                 1.0835
 Frc consts  --      1.8670                 5.6546                 5.8294
 IR Inten    --     28.5660                61.9222                21.8328

                     82                     83                     84
                      A                      A                      A
 Frequencies --   3068.1419              3106.1543              3124.9740
 Red. masses --      1.0657                 1.0932                 1.0976
 Frc consts  --      5.9105                 6.2143                 6.3154
 IR Inten    --     11.9089                48.9091                11.3184

                     85                     86                     87
                      A                      A                      A
 Frequencies --   3173.3908              3180.8005              3184.5460
 Red. masses --      1.0871                 1.0849                 1.0873
 Frc consts  --      6.4504                 6.4673                 6.4966
 IR Inten    --     10.3369                 0.7570                 1.5104

                     88                     89                     90
                      A                      A                      A
 Frequencies --   3189.9657              3196.2558              3202.5738
 Red. masses --      1.0889                 1.0916                 1.0925
 Frc consts  --      6.5286                 6.5705                 6.6018
 IR Inten    --     14.3427                21.1140                34.6241

                     91                     92                     93
                      A                      A                      A
 Frequencies --   3210.1788              3210.7836              3225.4495
 Red. masses --      1.0975                 1.0959                 1.0922
 Frc consts  --      6.6637                 6.6562                 6.6945
 IR Inten    --     26.3578                18.3057                 5.5412

                     94                     95                     96
                      A                      A                      A
 Frequencies --   3484.3657              3572.7462              3719.7486
 Red. masses --      1.0496                 1.0918                 1.0655
 Frc consts  --      7.5082                 8.2112                 8.6864
 IR Inten    --      0.3156                 0.4349                18.1122

 - Thermochemistry -
 -------------------
 Temperature   298.150 Kelvin.  Pressure   1.00000 Atm.
 Atom     1 has atomic number  6 and mass  12.00000

 Molecular mass:   227.13101 amu.
 Principal axes and moments of inertia in atomic units:
                           1         2         3
     Eigenvalues --  2564.389265409.300116218.76611
           X            0.99996  -0.00908   0.00175
           Y            0.00906   0.99990   0.01091
           Z           -0.00185  -0.01089   0.99994
 This molecule is an asymmetric top.
 Rotational symmetry number  1.
 Warning -- assumption of classical behavior for rotation
           may cause significant error
 Rotational temperatures (Kelvin)      0.03378     0.01601     0.01393
 Rotational constants (GHZ):           0.70377     0.33364     0.29021
 Zero-point vibrational energy     763287.6 (Joules/Mol)
                                  182.43011 (Kcal/Mol)
 Warning -- explicit consideration of  22 degrees of freedom as
           vibrations may cause significant error
 Vibrational temperatures:     59.53    64.03   100.55   126.65   151.25
          (Kelvin)            206.80   237.60   292.52   332.61   388.03
                              424.67   442.78   482.29   541.86   604.70
                              605.45   621.33   665.12   689.12   752.36
                              817.98   852.83   904.36   916.66   950.85
                             1029.39  1041.84  1099.94  1111.29  1123.83
                             1191.74  1220.08  1250.89  1260.82  1292.05
                             1347.94  1359.01  1371.36  1376.94  1410.26
                             1419.69  1441.57  1470.75  1511.37  1525.93
                             1554.68  1562.80  1572.75  1607.25  1639.11
                             1704.41  1717.57  1724.54  1738.79  1747.78
                             1751.09  1770.47  1775.09  1787.90  1863.26
                             1938.29  1952.90  1967.28  1975.39  1993.79
                             2035.54  2043.20  2068.61  2149.56  2155.15
                             2192.09  2204.92  2217.14  2223.67  2353.31
                             2364.64  2388.46  2398.05  2436.93  4307.59
                             4347.79  4414.37  4469.06  4496.14  4565.80
                             4576.46  4581.85  4589.65  4598.70  4607.79
                             4618.73  4619.60  4640.70  5013.23  5140.38
                             5351.89

 Zero-point correction=                           0.290721 (Hartree/Particle)
 Thermal correction to Energy=                    0.305744
 Thermal correction to Enthalpy=                  0.306689
 Thermal correction to Gibbs Free Energy=         0.248160
 Sum of electronic and zero-point Energies=           -711.572783
 Sum of electronic and thermal Energies=              -711.557760
 Sum of electronic and thermal Enthalpies=            -711.556815
 Sum of electronic and thermal Free Energies=         -711.615344

                     E (Thermal)             CV                S
                      KCal/Mol        Cal/Mol-Kelvin    Cal/Mol-Kelvin
 Total                  191.858             59.641            123.184
 Electronic               0.000              0.000              0.000
 Translational            0.889              2.981             42.163
 Rotational               0.889              2.981             32.822
 Vibrational            190.080             53.680             48.198
 Vibration     1          0.594              1.981              5.192
 Vibration     2          0.595              1.980              5.048
 Vibration     3          0.598              1.968              4.156
 Vibration     4          0.601              1.958              3.703
 Vibration     5          0.605              1.945              3.357
 Vibration     6          0.616              1.909              2.754
 Vibration     7          0.624              1.885              2.490
 Vibration     8          0.639              1.835              2.103
 Vibration     9          0.653              1.793              1.870
 Vibration    10          0.674              1.729              1.598
 Vibration    11          0.689              1.683              1.444
 Vibration    12          0.698              1.659              1.374
 Vibration    13          0.716              1.605              1.235
 Vibration    14          0.747              1.520              1.053
 Vibration    15          0.783              1.426              0.891
 Vibration    16          0.783              1.425              0.889
 Vibration    17          0.793              1.401              0.853
 Vibration    18          0.820              1.334              0.759
 Vibration    19          0.835              1.297              0.713
 Vibration    20          0.878              1.199              0.603
 Vibration    21          0.925              1.099              0.507
 Vibration    22          0.950              1.047              0.462

 Optimization completed.
    -- Stationary point found.
 Normal termination of Gaussian 16 at Fri Dec 11 13:22:44 2020.

 ----------------------------------------------------------------------
 # B3LYP/6-311++G(d,p) empiricaldispersion=gd3bj scf=xqc pop=npa geom=c
 heck
 ----------------------------------------------------------------------

 --------------------------------------
 CID_21993556_JID_7818_Energie_neutraal
 --------------------------------------
 Structure from the checkpoint file:  "JID_7818.chk"
 Charge =  0 Multiplicity = 1

 SCF Done:  E(RB3LYP) =  -712.066750447     A.U. after   15 cycles
 Normal termination of Gaussian 16 at Fri Dec 11 13:27:55 2020.

 ----------------------------------------------------------------------
 # B3LYP/6-311++G(d,p) empiricaldispersion=gd3bj scf=xqc pop=npa geom=c
 heck
 ----------------------------------------------------------------------

 ------------------------------------
 CID_21993556_JID_7818_Energie_kation
 ------------------------------------
 Structure from the checkpoint file:  "JID_7818.chk"
 Charge =  1 Multiplicity = 2

 SCF Done:  E(UB3LYP) =  -711.764520853     A.U. after   32 cycles
 Normal termination of Gaussian 16 at Fri Dec 11 13:43:09 2020.
 Gaussian 16:  ES64L-G16RevA.03 25-Dec-2016

 ----------------------------------------------------------------------
 # B3LYP/6-311++G(d,p) empiricaldispersion=gd3bj scf=xqc pop=npa geom=c
 heck
 ----------------------------------------------------------------------

 -----------------------------------
 CID_21993556_JID_7818_Energie_anion
 -----------------------------------
 Structure from the checkpoint file:  "JID_7818.chk"
 Charge = -1 Multiplicity = 2

                         Standard orientation:
 ---------------------------------------------------------------------
 Center     Atomic      Atomic             Coordinates (Angstroms)
 Number     Number       Type             X           Y           Z
 ---------------------------------------------------------------------
      1          6           0       -4.005201   -0.084540   -1.155522
      2          6           0       -2.968635   -0.946259   -1.518364
      3          6           0       -1.834621   -1.057345   -0.715814
      4          6           0       -1.717437   -0.310464    0.463758
      5          6           0       -2.766366    0.541588    0.827733
      6          6           0       -3.899690    0.656611    0.020964
      7          6           0       -0.490375   -0.464847    1.360453
      8          6           0        0.787958   -0.792850    0.586311
      9          6           0        1.428184   -2.003239    0.877427
     10          6           0        2.595489   -2.398725    0.224732
     11          6           0        3.136623   -1.576599   -0.759261
     12          6           0        2.506650   -0.370286   -1.067211
     13          6           0        1.342302    0.048768   -0.405061
     14          6           0        0.777555    1.406295   -0.764444
     15          6           0        1.552581    2.561628   -0.100180
     16          8           0        2.917961    2.615519   -0.477404
     17          7           0       -0.380840    0.669275    2.293026
     18          1           0       -4.886612    0.006673   -1.784121
     19          1           0       -3.039977   -1.531063   -2.431448
     20          1           0       -1.028719   -1.722076   -1.011049
     21          1           0       -2.686964    1.106038    1.750119
     22          1           0       -4.702437    1.327038    0.316246
     23          1           0       -0.683369   -1.336784    2.000841
     24          1           0        0.993212   -2.654496    1.632258
     25          1           0        3.066285   -3.344843    0.476024
     26          1           0        4.035655   -1.871331   -1.293074
     27          1           0        2.911155    0.260754   -1.854258
     28          1           0        0.839343    1.547148   -1.849630
     29          1           0       -0.280270    1.484361   -0.499795
     30          1           0        1.117947    3.516130   -0.412532
     31          1           0        1.456493    2.494720    0.995688
     32          1           0        3.325848    1.784501   -0.183907
     33          1           0        0.436921    0.532524    2.884235
     34          1           0       -0.222432    1.533220    1.779325
 ---------------------------------------------------------------------

 SCF Done:  E(UB3LYP) =  -712.054677354     A.U. after   33 cycles
 SCF Done:  E(UB3LYP) =  -712.054677353     a.u. after    1 cycles

 The electronic state is 2-A.
 Alpha  occ. eigenvalues --  -19.03325 -14.20503 -10.12863 -10.11645 -10.08799
 Alpha  occ. eigenvalues --  -10.08579 -10.08527 -10.07971 -10.07869 -10.07860
 Alpha  occ. eigenvalues --  -10.07855 -10.07805 -10.07578 -10.07510 -10.07419
 Alpha  occ. eigenvalues --  -10.07419 -10.07349  -0.93594  -0.80937  -0.76118
 Alpha  occ. eigenvalues --   -0.75717  -0.69035  -0.67436  -0.65164  -0.64790
 Alpha  occ. eigenvalues --   -0.62830  -0.57222  -0.54247  -0.51421  -0.50563
 Alpha  occ. eigenvalues --   -0.49646  -0.47146  -0.43104  -0.42243  -0.41091
 Alpha  occ. eigenvalues --   -0.39799  -0.37671  -0.37003  -0.36317  -0.35345
 Alpha  occ. eigenvalues --   -0.35059  -0.33510  -0.32658  -0.32363  -0.32252
 Alpha  occ. eigenvalues --   -0.30380  -0.30052  -0.29078  -0.26976  -0.26636
 Alpha  occ. eigenvalues --   -0.25703  -0.25398  -0.24786  -0.24119  -0.23406
 Alpha  occ. eigenvalues --   -0.19239  -0.17436  -0.16132  -0.15754  -0.15006
 Alpha  occ. eigenvalues --   -0.14200   0.04245
 Alpha virt. eigenvalues --    0.06057   0.06716   0.06782   0.07162   0.07612
 Alpha virt. eigenvalues --    0.07776   0.08073   0.08349   0.08910   0.09128
 Alpha virt. eigenvalues --    0.09340   0.10134   0.10597   0.11617   0.11726

  Beta  occ. eigenvalues --  -19.03321 -14.20482 -10.12842 -10.11638 -10.08770
  Beta  occ. eigenvalues --  -10.08555 -10.08530 -10.07967 -10.07862 -10.07854
  Beta  occ. eigenvalues --  -10.07828 -10.07774 -10.07537 -10.07472 -10.07422
  Beta  occ. eigenvalues --  -10.07368 -10.07312  -0.93587  -0.80894  -0.76051
  Beta  occ. eigenvalues --   -0.75663  -0.68968  -0.67372  -0.65114  -0.64713
  Beta  occ. eigenvalues --   -0.62755  -0.57172  -0.54185  -0.51346  -0.50498
  Beta  occ. eigenvalues --   -0.49600  -0.47084  -0.43061  -0.42201  -0.41033
  Beta  occ. eigenvalues --   -0.39747  -0.37618  -0.36963  -0.36264  -0.35295
  Beta  occ. eigenvalues --   -0.35014  -0.33476  -0.32619  -0.32317  -0.32214
  Beta  occ. eigenvalues --   -0.30330  -0.30002  -0.29029  -0.26894  -0.26546
  Beta  occ. eigenvalues --   -0.25643  -0.25332  -0.24747  -0.24083  -0.23366
  Beta  occ. eigenvalues --   -0.19211  -0.17367  -0.15990  -0.15565  -0.14838
  Beta  occ. eigenvalues --   -0.14122
  Beta virt. eigenvalues --    0.06219   0.06766   0.07064   0.07290   0.07570
  Beta virt. eigenvalues --    0.07688   0.08198   0.08476   0.08605   0.09283
  Beta virt. eigenvalues --    0.09476   0.09694   0.10345   0.10858   0.11811

 Mulliken charges and spin densities:
               1          2
     1  C    0.418526  -0.759778
     2  C   -0.084316  -0.154851
     3  C   -1.808344   1.449592
     4  C    0.440691  -0.172953
     5  C    0.799161  -0.962380
     6  C   -0.528211   0.295148
     7  C    0.817789  -0.829461
     8  C   -0.407242   0.934038
     9  C   -0.615974   0.529866
    10  C    1.645320  -2.281591
    11  C    0.840241  -1.198464
    12  C   -0.709960   0.436245
    13  C   -0.143895   0.718747
    14  C    0.013700  -0.606367
    15  C    0.276907  -0.795882
    16  O   -0.280102   0.007682
    17  N   -0.378124  -0.082567
    18  H   -0.114270   0.253608
    19  H   -0.254747   0.431626
    20  H    0.205212  -0.020521
    21  H    0.051312   0.150908
    22  H   -0.198726   0.362910
    23  H   -0.019515   0.238202
    24  H   -0.498331   0.646651
    25  H   -0.708967   0.880445
    26  H   -0.413542   0.580926
    27  H   -0.012794   0.221610
    28  H   -0.008880   0.184276
    29  H    0.317802  -0.149461
    30  H   -0.089284   0.264534
    31  H    0.035395   0.118709
    32  H    0.200999   0.045450
    33  H    0.083865   0.177954
    34  H    0.128301   0.085148
 Sum of Mulliken charges =  -1.00000   1.00000

 Dipole moment (field-independent basis, Debye):
    X=             -1.6314    Y=              2.7792    Z=             -0.1317  Tot=              3.2254
 Quadrupole moment (field-independent basis, Debye-Ang):
   XX=           -175.2774   YY=           -155.0075   ZZ=           -139.7240
   XY=              7.5594   XZ=             -0.6294   YZ=              4.2725

 Summary of Natural Population Analysis:

                                       Natural Population
                Natural  -----------------------------------------------
    Atom  No    Charge         Core      Valence    Rydberg      Total
 -----------------------------------------------------------------------
      C    1   -0.10535      0.99956     2.09568    0.01012     3.10535
      C    2   -0.09861      0.99956     2.08957    0.00948     3.09861
      C    3   -0.09704      0.99951     2.08780    0.00974     3.09704
      C    4   -0.01488      0.99949     2.00371    0.01168     3.01488
      C    5   -0.10695      0.99950     2.09857    0.00887     3.10695
      C    6   -0.09470      0.99956     2.08534    0.00980     3.09470
      C    7   -0.02694      0.99952     2.01277    0.01466     3.02694
      C    8   -0.02448      0.99945     2.01162    0.01341     3.02448
      C    9   -0.09152      0.99950     2.08170    0.01031     3.09152
      C   10   -0.09241      0.99955     2.08246    0.01040     3.09241
      C   11   -0.10172      0.99955     2.09123    0.01094     3.10172
      C   12   -0.10864      0.99952     2.09770    0.01142     3.10864
      C   13   -0.01302      0.99945     2.00161    0.01196     3.01302
      C   14   -0.21802      0.99959     2.21001    0.00841     3.21802
      C   15   -0.00278      0.99960     1.99197    0.01121     3.00278
      O   16   -0.37022      0.99990     3.36356    0.00677     4.37022
      N   17   -0.41703      0.99978     2.90716    0.01010     3.91703
      H   18    0.09889      0.00000     0.40017    0.00094     0.40111
      H   19    0.09991      0.00000     0.39914    0.00095     0.40009
      H   20    0.10753      0.00000     0.39095    0.00152     0.39247
      H   21    0.11121      0.00000     0.38742    0.00138     0.38879
      H   22    0.09811      0.00000     0.40097    0.00092     0.40189
      H   23    0.10355      0.00000     0.39451    0.00194     0.39645
      H   24    0.10011      0.00000     0.39753    0.00236     0.39989
      H   25    0.10298      0.00000     0.39489    0.00214     0.39702
      H   26    0.10156      0.00000     0.39725    0.00119     0.39844
      H   27    0.10308      0.00000     0.39576    0.00116     0.39692
      H   28    0.10568      0.00000     0.39302    0.00131     0.39432
      H   29    0.11160      0.00000     0.38671    0.00170     0.38840
      H   30    0.08614      0.00000     0.41247    0.00140     0.41386
      H   31    0.07194      0.00000     0.42644    0.00162     0.42806
      H   32    0.23153      0.00000     0.26522    0.00325     0.26847
      H   33    0.17826      0.00000     0.31990    0.00185     0.32174
      H   34    0.17224      0.00000     0.32552    0.00224     0.32776
 =======================================================================
   * Total *    0.00000     16.99260    43.80028    0.20712    61.00000

 Normal termination of Gaussian 16 at Fri Dec 11 13:59:05 2020.
