 Gaussian 16, Revision A.03,

 -----------------------------------------------------------
 # opt freq B3LYP/6-31G(d) empiricaldispersion=gd3bj scf=xqc
 -----------------------------------------------------------

 -------------------------------
 CID_147247419_JID_2495_neutraal
 -------------------------------
 Symbolic Z-matrix:
 Charge =  0 Multiplicity = 1

 SCF Done:  E(RB3LYP) =  -950.754036735     A.U. after   15 cycles
 SCF Done:  E(RB3LYP) =  -950.760616140     A.U. after   13 cycles
 SCF Done:  E(RB3LYP) =  -950.761530000     A.U. after   12 cycles
 SCF Done:  E(RB3LYP) =  -950.761734757     A.U. after   12 cycles
 SCF Done:  E(RB3LYP) =  -950.762598297     A.U. after   12 cycles
 SCF Done:  E(RB3LYP) =  -950.763118897     A.U. after   12 cycles
 SCF Done:  E(RB3LYP) =  -950.763232209     A.U. after   11 cycles
 SCF Done:  E(RB3LYP) =  -950.763333618     A.U. after   12 cycles
 SCF Done:  E(RB3LYP) =  -950.763388878     A.U. after   11 cycles
 SCF Done:  E(RB3LYP) =  -950.763416007     A.U. after   10 cycles
 SCF Done:  E(RB3LYP) =  -950.763496392     A.U. after   11 cycles
 SCF Done:  E(RB3LYP) =  -950.763501397     A.U. after    9 cycles
 SCF Done:  E(RB3LYP) =  -950.763502909     A.U. after    9 cycles
 SCF Done:  E(RB3LYP) =  -950.763503043     A.U. after    8 cycles
 SCF Done:  E(RB3LYP) =  -950.763503061     A.U. after    7 cycles
 Optimization completed.
    -- Stationary point found.
 Normal termination of Gaussian 16 at Wed Dec  9 17:28:17 2020.

 --------------------------------------------------------------------
 #N Geom=AllCheck Guess=TCheck SCRF=Check GenChk RB3LYP/6-31G(d) Freq
 --------------------------------------------------------------------

 Structure from the checkpoint file:  "JID_2495.chk"
 -------------------------------
 CID_147247419_JID_2495_neutraal
 -------------------------------
 Charge =  0 Multiplicity = 1

 SCF Done:  E(RB3LYP) =  -950.763503061     A.U. after    1 cycles

  Exact polarizability: 114.314   5.642 106.955  -0.880  -7.418  82.639
 Approx polarizability: 151.821  13.988 167.242   1.089 -16.038 142.198

                      1                      2                      3
                      A                      A                      A
 Frequencies --     67.0279                67.7308                74.1868
 Red. masses --      2.1292                 8.0259                 3.0404
 Frc consts  --      0.0056                 0.0217                 0.0099
 IR Inten    --      3.5488                 1.6761                 1.0231

                      4                      5                      6
                      A                      A                      A
 Frequencies --     87.0369                96.9182               111.5855
 Red. masses --      2.1971                 2.8041                 8.2509
 Frc consts  --      0.0098                 0.0155                 0.0605
 IR Inten    --      0.2155                 0.8824                 0.1056

                      7                      8                      9
                      A                      A                      A
 Frequencies --    205.9962               275.9570               282.2809
 Red. masses --      5.5316                 1.1564                 3.3329
 Frc consts  --      0.1383                 0.0519                 0.1565
 IR Inten    --      6.9821                23.2126                 1.8013

                     10                     11                     12
                      A                      A                      A
 Frequencies --    320.4287               336.1846               346.7779
 Red. masses --      3.6664                 4.5693                 5.0941
 Frc consts  --      0.2218                 0.3043                 0.3609
 IR Inten    --      0.8419                 3.1465                 1.6857

                     13                     14                     15
                      A                      A                      A
 Frequencies --    386.3840               499.3717               534.2305
 Red. masses --      4.0227                 2.7094                 3.5630
 Frc consts  --      0.3538                 0.3981                 0.5991
 IR Inten    --      9.4285                 2.2865                13.2044

                     16                     17                     18
                      A                      A                      A
 Frequencies --    564.8314               590.6495               613.2103
 Red. masses --      5.4000                 3.4505                 5.0931
 Frc consts  --      1.0150                 0.7092                 1.1284
 IR Inten    --      6.2698                 3.9924                 5.0041

                     19                     20                     21
                      A                      A                      A
 Frequencies --    668.1026               691.5354               724.8294
 Red. masses --      5.2657                 3.9339                 3.6024
 Frc consts  --      1.3848                 1.1084                 1.1151
 IR Inten    --      9.4443                23.4256                 4.6689

                     22                     23                     24
                      A                      A                      A
 Frequencies --    739.0830               781.4319               838.2588
 Red. masses --      1.3375                 4.7896                 1.3773
 Frc consts  --      0.4305                 1.7232                 0.5702
 IR Inten    --      6.2826                 8.8163                34.1664

                     25                     26                     27
                      A                      A                      A
 Frequencies --    856.5508               899.9251               942.7246
 Red. masses --      5.2679                 1.7006                 1.4974
 Frc consts  --      2.2771                 0.8114                 0.7841
 IR Inten    --     73.4719                 5.5218                21.5010

                     28                     29                     30
                      A                      A                      A
 Frequencies --    996.3459              1021.1343              1038.2337
 Red. masses --      2.1911                 2.1500                 1.8958
 Frc consts  --      1.2815                 1.3209                 1.2040
 IR Inten    --      4.5129                14.6376                 0.7870

                     31                     32                     33
                      A                      A                      A
 Frequencies --   1073.1986              1074.2213              1133.9609
 Red. masses --      3.0895                 2.1284                 2.8108
 Frc consts  --      2.0965                 1.4471                 2.1295
 IR Inten    --     45.7934                31.4911                33.2874

                     34                     35                     36
                      A                      A                      A
 Frequencies --   1201.1290              1214.3238              1245.5433
 Red. masses --      1.2753                 2.4021                 1.6896
 Frc consts  --      1.0840                 2.0870                 1.5444
 IR Inten    --     46.7000               172.0936                 7.3823

                     37                     38                     39
                      A                      A                      A
 Frequencies --   1272.2017              1289.2372              1331.6178
 Red. masses --      3.0172                 1.5727                 1.5279
 Frc consts  --      2.8771                 1.5402                 1.5963
 IR Inten    --    111.0217                46.0286                24.3495

                     40                     41                     42
                      A                      A                      A
 Frequencies --   1374.2617              1423.6296              1464.6349
 Red. masses --      5.2052                 1.2986                 1.1998
 Frc consts  --      5.7920                 1.5507                 1.5164
 IR Inten    --     17.0142                36.1147                 4.2383

                     43                     44                     45
                      A                      A                      A
 Frequencies --   1497.6107              1500.8537              1501.5515
 Red. masses --      1.0459                 1.0503                 1.0959
 Frc consts  --      1.3821                 1.3939                 1.4558
 IR Inten    --     14.4034                 9.5760                 3.5948

                     46                     47                     48
                      A                      A                      A
 Frequencies --   1763.2896              1852.6545              1885.7903
 Red. masses --      7.0902                12.5961                11.9635
 Frc consts  --     12.9884                25.4726                25.0665
 IR Inten    --    169.9428               325.5786               145.9771

                     49                     50                     51
                      A                      A                      A
 Frequencies --   2677.0376              3054.6057              3076.9054
 Red. masses --      1.0383                 1.0707                 1.0376
 Frc consts  --      4.3842                 5.8862                 5.7876
 IR Inten    --      2.4663                15.5895                 0.1476

                     52                     53                     54
                      A                      A                      A
 Frequencies --   3145.1845              3148.8832              3155.3447
 Red. masses --      1.0989                 1.0871                 1.0949
 Frc consts  --      6.4047                 6.3507                 6.4229
 IR Inten    --      2.1786                 2.7834                 2.5921

                     55                     56                     57
                      A                      A                      A
 Frequencies --   3189.1929              3196.8791              3281.8046
 Red. masses --      1.1045                 1.0593                 1.1178
 Frc consts  --      6.6189                 6.3784                 7.0933
 IR Inten    --      2.9949                 0.2895                 4.2815

 - Thermochemistry -
 -------------------
 Temperature   298.150 Kelvin.  Pressure   1.00000 Atm.
 Atom     1 has atomic number  6 and mass  12.00000

 Molecular mass:   187.03032 amu.
 Principal axes and moments of inertia in atomic units:
                           1         2         3
     Eigenvalues --  1473.505082661.620863134.01611
           X            0.99932  -0.03462  -0.01274
           Y            0.03439   0.99924  -0.01822
           Z            0.01336   0.01777   0.99975
 This molecule is an asymmetric top.
 Rotational symmetry number  1.
 Warning -- assumption of classical behavior for rotation
           may cause significant error
 Rotational temperatures (Kelvin)      0.05878     0.03254     0.02764
 Rotational constants (GHZ):           1.22479     0.67806     0.57586
 Zero-point vibrational energy     410824.5 (Joules/Mol)
                                   98.18941 (Kcal/Mol)
 Warning -- explicit consideration of  18 degrees of freedom as
           vibrations may cause significant error
 Vibrational temperatures:     96.44    97.45   106.74   125.23   139.44
          (Kelvin)            160.55   296.38   397.04   406.14   461.03
                              483.69   498.94   555.92   718.48   768.64
                              812.67   849.81   882.27   961.25   994.97
                             1042.87  1063.38  1124.31  1206.07  1232.39
                             1294.79  1356.37  1433.52  1469.18  1493.79
                             1544.09  1545.56  1631.52  1728.16  1747.14
                             1792.06  1830.41  1854.92  1915.90  1977.26
                             2048.29  2107.28  2154.73  2159.39  2160.40
                             2536.98  2665.56  2713.23  3851.66  4394.90
                             4426.98  4525.22  4530.54  4539.84  4588.54
                             4599.60  4721.78

 Zero-point correction=                           0.156475 (Hartree/Particle)
 Thermal correction to Energy=                    0.168790
 Thermal correction to Enthalpy=                  0.169734
 Thermal correction to Gibbs Free Energy=         0.117109
 Sum of electronic and zero-point Energies=           -950.607028
 Sum of electronic and thermal Energies=              -950.594713
 Sum of electronic and thermal Enthalpies=            -950.593769
 Sum of electronic and thermal Free Energies=         -950.646394

                     E (Thermal)             CV                S
                      KCal/Mol        Cal/Mol-Kelvin    Cal/Mol-Kelvin
 Total                  105.917             44.484            110.758
 Electronic               0.000              0.000              0.000
 Translational            0.889              2.981             41.584
 Rotational               0.889              2.981             30.886
 Vibrational            104.140             38.522             38.287
 Vibration     1          0.598              1.970              4.239
 Vibration     2          0.598              1.970              4.218
 Vibration     3          0.599              1.966              4.039
 Vibration     4          0.601              1.958              3.726
 Vibration     5          0.603              1.951              3.515
 Vibration     6          0.607              1.940              3.241
 Vibration     7          0.640              1.831              2.079
 Vibration     8          0.678              1.718              1.559
 Vibration     9          0.681              1.706              1.520
 Vibration    10          0.706              1.634              1.308
 Vibration    11          0.717              1.603              1.230
 Vibration    12          0.725              1.582              1.181
 Vibration    13          0.755              1.499              1.014
 Vibration    14          0.855              1.251              0.660
 Vibration    15          0.889              1.174              0.578
 Vibration    16          0.921              1.107              0.514
 Vibration    17          0.948              1.052              0.466
 Vibration    18          0.973              1.004              0.427

 Optimization completed.
    -- Stationary point found.
 Normal termination of Gaussian 16 at Wed Dec  9 17:32:45 2020.

 ----------------------------------------------------------------------
 # B3LYP/6-311++G(d,p) empiricaldispersion=gd3bj scf=xqc pop=npa geom=c
 heck
 ----------------------------------------------------------------------

 ---------------------------------------
 CID_147247419_JID_2495_Energie_neutraal
 ---------------------------------------
 Structure from the checkpoint file:  "JID_2495.chk"
 Charge =  0 Multiplicity = 1

 SCF Done:  E(RB3LYP) =  -950.956357525     A.U. after   15 cycles
 Normal termination of Gaussian 16 at Wed Dec  9 17:35:00 2020.

 ----------------------------------------------------------------------
 # B3LYP/6-311++G(d,p) empiricaldispersion=gd3bj scf=xqc pop=npa geom=c
 heck
 ----------------------------------------------------------------------

 -------------------------------------
 CID_147247419_JID_2495_Energie_kation
 -------------------------------------
 Structure from the checkpoint file:  "JID_2495.chk"
 Charge =  1 Multiplicity = 2

 SCF Done:  E(UB3LYP) =  -950.644653977     A.U. after   22 cycles
 Normal termination of Gaussian 16 at Wed Dec  9 17:38:38 2020.
 Gaussian 16:  ES64L-G16RevA.03 25-Dec-2016

 ----------------------------------------------------------------------
 # B3LYP/6-311++G(d,p) empiricaldispersion=gd3bj scf=xqc pop=npa geom=c
 heck
 ----------------------------------------------------------------------

 ------------------------------------
 CID_147247419_JID_2495_Energie_anion
 ------------------------------------
 Structure from the checkpoint file:  "JID_2495.chk"
 Charge = -1 Multiplicity = 2

                         Standard orientation:
 ---------------------------------------------------------------------
 Center     Atomic      Atomic             Coordinates (Angstroms)
 Number     Number       Type             X           Y           Z
 ---------------------------------------------------------------------
      1          6           0        3.552110   -0.641982   -0.257888
      2          6           0        2.078096   -0.391334   -0.391660
      3          8           0        1.334909   -0.793172   -1.243913
      4          8           0        1.656685    0.400462    0.680922
      5          7           0        0.283823    0.557195    0.711383
      6          6           0       -0.344339    1.624273    0.055137
      7          6           0        0.266538    2.611742   -0.595924
      8          6           0       -1.819107    1.384936    0.301102
      9          6           0       -1.918669   -0.133680    0.558150
     10          6           0       -0.521612   -0.530256    1.042784
     11          8           0       -0.133464   -1.556704    1.548272
     12         16           0       -2.313169   -1.128280   -0.948615
     13          1           0        3.938056   -1.027742   -1.201700
     14          1           0        3.710764   -1.385054    0.531379
     15          1           0        4.079207    0.271004    0.030959
     16          1           0       -0.317287    3.392330   -1.068227
     17          1           0        1.346551    2.669884   -0.661925
     18          1           0       -2.434618    1.714643   -0.536401
     19          1           0       -2.132359    1.931851    1.199874
     20          1           0       -2.678931   -0.406841    1.290541
     21          1           0       -1.110581   -0.954847   -1.538793
 ---------------------------------------------------------------------

 SCF Done:  E(UB3LYP) =  -950.944594312     A.U. after   33 cycles
 SCF Done:  E(UB3LYP) =  -950.944594312     a.u. after    1 cycles

 The electronic state is 2-A.
 Alpha  occ. eigenvalues --  -88.72773 -19.09860 -19.01755 -18.97579 -14.29205
 Alpha  occ. eigenvalues --  -10.20307 -10.15055 -10.11689 -10.11051 -10.09185
 Alpha  occ. eigenvalues --  -10.07208 -10.04937  -7.81493  -5.77872  -5.77529
 Alpha  occ. eigenvalues --   -5.76866  -1.04435  -0.94957  -0.92039  -0.82458
 Alpha  occ. eigenvalues --   -0.70383  -0.66944  -0.64410  -0.60455  -0.54628
 Alpha  occ. eigenvalues --   -0.52341  -0.50006  -0.41766  -0.40226  -0.38862
 Alpha  occ. eigenvalues --   -0.37463  -0.36574  -0.35530  -0.34275  -0.32167
 Alpha  occ. eigenvalues --   -0.31970  -0.30499  -0.29802  -0.29495  -0.27955
 Alpha  occ. eigenvalues --   -0.27114  -0.25858  -0.23784  -0.22646  -0.20682
 Alpha  occ. eigenvalues --   -0.18742  -0.15284  -0.13162  -0.12026   0.05200
 Alpha virt. eigenvalues --    0.07137   0.07600   0.08779   0.09397   0.09869
 Alpha virt. eigenvalues --    0.10464   0.11077   0.11205   0.11785   0.12544
 Alpha virt. eigenvalues --    0.13557   0.14198   0.14348   0.15395   0.15698

  Beta  occ. eigenvalues --  -88.72725 -19.09821 -19.01723 -18.97335 -14.29215
  Beta  occ. eigenvalues --  -10.20262 -10.14802 -10.11638 -10.11000 -10.09190
  Beta  occ. eigenvalues --  -10.07133 -10.04881  -7.81441  -5.77787  -5.77468
  Beta  occ. eigenvalues --   -5.76830  -1.04343  -0.94856  -0.91625  -0.82308
  Beta  occ. eigenvalues --   -0.70250  -0.66756  -0.64260  -0.60294  -0.54363
  Beta  occ. eigenvalues --   -0.52187  -0.49879  -0.41662  -0.40061  -0.38747
  Beta  occ. eigenvalues --   -0.37285  -0.36381  -0.35407  -0.34097  -0.32069
  Beta  occ. eigenvalues --   -0.31852  -0.30383  -0.29568  -0.29030  -0.27801
  Beta  occ. eigenvalues --   -0.26840  -0.25627  -0.23548  -0.22521  -0.20072
  Beta  occ. eigenvalues --   -0.18672  -0.15088  -0.12999  -0.11622
  Beta virt. eigenvalues --    0.07326   0.08308   0.08831   0.08936   0.09794
  Beta virt. eigenvalues --    0.10276   0.10990   0.11519   0.11869   0.12277
  Beta virt. eigenvalues --    0.12781   0.14084   0.14238   0.14759   0.15456

 Mulliken charges and spin densities:
               1          2
     1  C    2.782605  -3.371602
     2  C   -1.698080   1.856943
     3  O   -0.196782   0.043750
     4  O    0.298859  -0.005662
     5  N   -0.190359   0.029945
     6  C   -0.559565   0.880469
     7  C    0.298069  -1.000907
     8  C   -0.391458  -0.085709
     9  C    0.177927   0.207385
    10  C   -0.261686   0.220120
    11  O   -0.363033   0.084807
    12  S   -0.014599  -0.248142
    13  H   -0.419063   0.594172
    14  H   -0.405319   0.603592
    15  H   -0.523024   0.692294
    16  H    0.090552   0.021085
    17  H   -0.033967   0.161666
    18  H    0.086120   0.089367
    19  H    0.163081  -0.008555
    20  H    0.278968   0.033981
    21  H   -0.119246   0.201000
 Sum of Mulliken charges =  -1.00000   1.00000

 Dipole moment (field-independent basis, Debye):
    X=             -7.0463    Y=              4.0739    Z=              1.8670  Tot=              8.3506
 Quadrupole moment (field-independent basis, Debye-Ang):
   XX=           -136.3341   YY=           -107.0060   ZZ=           -103.9041
   XY=             -2.3618   XZ=             -2.8176   YZ=              2.4878

 Summary of Natural Population Analysis:

                                       Natural Population
                Natural  -----------------------------------------------
    Atom  No    Charge         Core      Valence    Rydberg      Total
 -----------------------------------------------------------------------
      C    1   -0.33630      0.99961     2.33048    0.00621     3.33630
      C    2    0.41629      0.99971     1.55867    0.02533     2.58371
      O    3   -0.28840      0.99986     3.28193    0.00662     4.28840
      O    4   -0.19527      0.99987     3.18491    0.01050     4.19527
      N    5   -0.09782      0.99950     2.58415    0.01417     3.59782
      C    6    0.09769      0.99951     1.89047    0.01233     2.90231
      C    7   -0.23124      0.99951     2.22429    0.00744     3.23124
      C    8   -0.20834      0.99957     2.20010    0.00867     3.20834
      C    9   -0.19175      0.99954     2.17928    0.01293     3.19175
      C   10    0.36610      0.99961     1.60787    0.02642     2.63390
      O   11   -0.27648      0.99987     3.27099    0.00562     4.27648
      S   12   -0.00889      4.99964     2.99453    0.01471     8.00889
      H   13    0.11506      0.00000     0.38271    0.00222     0.38494
      H   14    0.12170      0.00000     0.37599    0.00231     0.37830
      H   15    0.11555      0.00000     0.38271    0.00174     0.38445
      H   16    0.09603      0.00000     0.40316    0.00081     0.40397
      H   17    0.10397      0.00000     0.39485    0.00117     0.39603
      H   18    0.11145      0.00000     0.38729    0.00127     0.38855
      H   19    0.10444      0.00000     0.39446    0.00110     0.39556
      H   20    0.11066      0.00000     0.38835    0.00099     0.38934
      H   21    0.07553      0.00000     0.42101    0.00346     0.42447
 =======================================================================
   * Total *    0.00000     15.99581    32.83818    0.16601    49.00000

 Normal termination of Gaussian 16 at Wed Dec  9 17:45:16 2020.
