 Gaussian 16, Revision A.03,

 -----------------------------------------------------------
 # opt freq B3LYP/6-31G(d) empiricaldispersion=gd3bj scf=xqc
 -----------------------------------------------------------

 ------------------------------
 CID_56711636_JID_8971_neutraal
 ------------------------------
 Symbolic Z-matrix:
 Charge =  0 Multiplicity = 1

 SCF Done:  E(RB3LYP) =  -1144.78501636     A.U. after   15 cycles
 SCF Done:  E(RB3LYP) =  -1144.78839212     A.U. after   14 cycles
 SCF Done:  E(RB3LYP) =  -1144.78768265     A.U. after   14 cycles
 SCF Done:  E(RB3LYP) =  -1144.78894656     A.U. after   13 cycles
 SCF Done:  E(RB3LYP) =  -1144.78975603     A.U. after   13 cycles
 SCF Done:  E(RB3LYP) =  -1144.79001449     A.U. after   13 cycles
 SCF Done:  E(RB3LYP) =  -1144.79020057     A.U. after   11 cycles
 SCF Done:  E(RB3LYP) =  -1144.79022752     A.U. after   12 cycles
 SCF Done:  E(RB3LYP) =  -1144.79027763     A.U. after   10 cycles
 SCF Done:  E(RB3LYP) =  -1144.79029206     A.U. after   10 cycles
 SCF Done:  E(RB3LYP) =  -1144.79029644     A.U. after   10 cycles
 SCF Done:  E(RB3LYP) =  -1144.79029767     A.U. after    8 cycles
 SCF Done:  E(RB3LYP) =  -1144.79029828     A.U. after    9 cycles
 SCF Done:  E(RB3LYP) =  -1144.79029838     A.U. after    7 cycles
 SCF Done:  E(RB3LYP) =  -1144.79029844     A.U. after    7 cycles
 Optimization completed.
    -- Stationary point found.
 Normal termination of Gaussian 16 at Fri Dec 11 23:14:31 2020.

 --------------------------------------------------------------------
 #N Geom=AllCheck Guess=TCheck SCRF=Check GenChk RB3LYP/6-31G(d) Freq
 --------------------------------------------------------------------

 Structure from the checkpoint file:  "JID_8971.chk"
 ------------------------------
 CID_56711636_JID_8971_neutraal
 ------------------------------
 Charge =  0 Multiplicity = 1

 SCF Done:  E(RB3LYP) =  -1144.79029844     A.U. after    1 cycles

  Exact polarizability: 291.393  13.061 169.377   4.350  -6.234  91.274
 Approx polarizability: 395.468  19.078 304.804   6.817 -25.303 151.195

                      1                      2                      3
                      A                      A                      A
 Frequencies --     18.5697                40.0518                52.2003
 Red. masses --      4.8211                 5.1488                 8.7388
 Frc consts  --      0.0010                 0.0049                 0.0140
 IR Inten    --      0.2819                 2.0450                 7.1750

                      4                      5                      6
                      A                      A                      A
 Frequencies --     53.8560                73.2912                93.5636
 Red. masses --      6.7661                 4.2442                 5.3214
 Frc consts  --      0.0116                 0.0134                 0.0274
 IR Inten    --      0.2086                 0.4611                 0.3892

                      7                      8                      9
                      A                      A                      A
 Frequencies --    139.4827               192.0221               206.9891
 Red. masses --      5.3132                 3.9900                 6.0533
 Frc consts  --      0.0609                 0.0867                 0.1528
 IR Inten    --      0.4733                 3.1465                 2.4019

                     10                     11                     12
                      A                      A                      A
 Frequencies --    241.4715               256.3919               333.6384
 Red. masses --      8.3385                 6.1211                 3.8937
 Frc consts  --      0.2865                 0.2371                 0.2554
 IR Inten    --      1.6907                 1.9425                 4.8442

                     13                     14                     15
                      A                      A                      A
 Frequencies --    360.9947               365.2889               401.5024
 Red. masses --      3.1289                 1.2711                 3.8286
 Frc consts  --      0.2402                 0.0999                 0.3636
 IR Inten    --     20.8521               100.2828                40.6758

                     16                     17                     18
                      A                      A                      A
 Frequencies --    413.0141               415.9172               425.3355
 Red. masses --      1.4294                 2.9698                 3.2158
 Frc consts  --      0.1437                 0.3027                 0.3428
 IR Inten    --    226.8794                15.1771                 0.7925

                     19                     20                     21
                      A                      A                      A
 Frequencies --    438.3391               450.7055               467.4720
 Red. masses --      4.1795                 5.4664                 5.3103
 Frc consts  --      0.4731                 0.6542                 0.6837
 IR Inten    --     51.8650                 4.8632                 9.3528

                     22                     23                     24
                      A                      A                      A
 Frequencies --    510.2198               524.9441               549.6439
 Red. masses --      2.5135                 3.0252                 1.6708
 Frc consts  --      0.3855                 0.4912                 0.2974
 IR Inten    --     10.8570                11.9583                 5.0911

                     25                     26                     27
                      A                      A                      A
 Frequencies --    559.7616               618.7170               648.9463
 Red. masses --      2.3669                 6.2524                 6.6734
 Frc consts  --      0.4370                 1.4102                 1.6558
 IR Inten    --      3.5223                 5.5463                 0.3713

                     28                     29                     30
                      A                      A                      A
 Frequencies --    660.8167               666.9575               719.5946
 Red. masses --      5.5341                 1.8796                 4.4831
 Frc consts  --      1.4238                 0.4926                 1.3678
 IR Inten    --      4.8453                13.3877                 0.0250

                     31                     32                     33
                      A                      A                      A
 Frequencies --    738.8917               759.4989               777.2367
 Red. masses --      3.8870                 6.1582                 5.1567
 Frc consts  --      1.2503                 2.0929                 1.8354
 IR Inten    --      1.0317                12.2017                10.0148

                     34                     35                     36
                      A                      A                      A
 Frequencies --    814.0635               833.4273               847.1278
 Red. masses --      1.3634                 1.4175                 1.6142
 Frc consts  --      0.5323                 0.5801                 0.6825
 IR Inten    --     31.1110                43.9246                 7.3080

                     37                     38                     39
                      A                      A                      A
 Frequencies --    853.7004               858.1796               866.0681
 Red. masses --      3.3091                 1.6454                 3.1230
 Frc consts  --      1.4209                 0.7140                 1.3802
 IR Inten    --      7.6593                 4.5072                 2.9892

                     40                     41                     42
                      A                      A                      A
 Frequencies --    921.8068               940.2386               959.8036
 Red. masses --      2.1475                 1.2996                 1.2919
 Frc consts  --      1.0752                 0.6769                 0.7012
 IR Inten    --     10.1218                 0.6559                 0.3231

                     43                     44                     45
                      A                      A                      A
 Frequencies --    966.6211               974.5876              1020.8915
 Red. masses --      1.3163                 1.2987                 5.6396
 Frc consts  --      0.7246                 0.7268                 3.4631
 IR Inten    --      0.1194                 0.8472                 8.3631

                     46                     47                     48
                      A                      A                      A
 Frequencies --   1036.7952              1058.8822              1111.6981
 Red. masses --      2.9531                 2.8980                 1.7784
 Frc consts  --      1.8703                 1.9144                 1.2949
 IR Inten    --      3.4268                 4.1334                13.2666

                     49                     50                     51
                      A                      A                      A
 Frequencies --   1120.9099              1139.9379              1162.4683
 Red. masses --      2.8453                 1.3646                 1.4220
 Frc consts  --      2.1063                 1.0448                 1.1321
 IR Inten    --     29.9039                14.8052                 3.7805

                     52                     53                     54
                      A                      A                      A
 Frequencies --   1199.6453              1209.5526              1212.6351
 Red. masses --      1.1383                 1.2105                 1.2791
 Frc consts  --      0.9652                 1.0434                 1.1082
 IR Inten    --      9.6701               151.3040                86.6494

                     55                     56                     57
                      A                      A                      A
 Frequencies --   1237.9994              1280.2851              1313.2370
 Red. masses --      1.1495                 1.3122                 2.9723
 Frc consts  --      1.0380                 1.2672                 3.0201
 IR Inten    --      0.3927                15.2824                67.5131

                     58                     59                     60
                      A                      A                      A
 Frequencies --   1314.6800              1328.4529              1341.5197
 Red. masses --      2.8338                 4.4155                 2.6560
 Frc consts  --      2.8858                 4.5912                 2.8163
 IR Inten    --     51.2501                31.5064                 2.1526

                     61                     62                     63
                      A                      A                      A
 Frequencies --   1358.7114              1375.0230              1386.7295
 Red. masses --      1.4988                 3.3515                 2.0735
 Frc consts  --      1.6302                 3.7334                 2.3493
 IR Inten    --      1.7666               114.7240                44.5008

                     64                     65                     66
                      A                      A                      A
 Frequencies --   1448.8436              1474.4969              1485.8164
 Red. masses --      2.5562                 1.1128                 2.8889
 Frc consts  --      3.1615                 1.4254                 3.7577
 IR Inten    --      7.3997                14.4445                26.5997

                     67                     68                     69
                      A                      A                      A
 Frequencies --   1544.3245              1574.4758              1609.9027
 Red. masses --      2.1465                 2.8157                 5.7888
 Frc consts  --      3.0162                 4.1125                 8.8397
 IR Inten    --    159.5299                33.7653                 0.2324

                     70                     71                     72
                      A                      A                      A
 Frequencies --   1636.0026              1646.9631              1661.1303
 Red. masses --      1.2885                 5.9759                 5.2798
 Frc consts  --      2.0320                 9.5505                 8.5837
 IR Inten    --    129.1715                19.6523                 3.1255

                     73                     74                     75
                      A                      A                      A
 Frequencies --   1678.6933              1807.9623              3086.6899
 Red. masses --      5.9426                 8.7933                 1.0630
 Frc consts  --      9.8666                16.9349                 5.9673
 IR Inten    --     77.3570               254.6677                 4.0731

                     76                     77                     78
                      A                      A                      A
 Frequencies --   3152.8131              3168.4905              3184.5543
 Red. masses --      1.1018                 1.0888                 1.0875
 Frc consts  --      6.4529                 6.4405                 6.4981
 IR Inten    --      1.4712                29.9770                11.4647

                     79                     80                     81
                      A                      A                      A
 Frequencies --   3196.4178              3197.4720              3204.5730
 Red. masses --      1.0895                 1.0893                 1.0911
 Frc consts  --      6.5583                 6.5617                 6.6014
 IR Inten    --      2.8385                 9.5657                16.5706

                     82                     83                     84
                      A                      A                      A
 Frequencies --   3205.6876              3219.7135              3233.5686
 Red. masses --      1.0926                 1.0939                 1.0919
 Frc consts  --      6.6153                 6.6816                 6.7264
 IR Inten    --      5.9213                10.2122                 1.5049

                     85                     86                     87
                      A                      A                      A
 Frequencies --   3572.9782              3698.5475              3750.9852
 Red. masses --      1.0458                 1.1038                 1.0659
 Frc consts  --      7.8659                 8.8958                 8.8361
 IR Inten    --     28.0186                56.9967                58.5536

 - Thermochemistry -
 -------------------
 Temperature   298.150 Kelvin.  Pressure   1.00000 Atm.
 Atom     1 has atomic number  6 and mass  12.00000

 Molecular mass:   259.06670 amu.
 Principal axes and moments of inertia in atomic units:
                           1         2         3
     Eigenvalues --  1705.46805********************
           X            1.00000   0.00048  -0.00056
           Y           -0.00047   0.99999   0.00500
           Z            0.00057  -0.00500   0.99999
 This molecule is an asymmetric top.
 Rotational symmetry number  1.
 Warning -- assumption of classical behavior for rotation
           may cause significant error
 Rotational temperatures (Kelvin)      0.05079     0.00682     0.00623
 Rotational constants (GHZ):           1.05821     0.14213     0.12972
 Zero-point vibrational energy     637981.1 (Joules/Mol)
                                  152.48114 (Kcal/Mol)
 Warning -- explicit consideration of  26 degrees of freedom as
           vibrations may cause significant error
 Vibrational temperatures:     26.72    57.63    75.10    77.49   105.45
          (Kelvin)            134.62   200.68   276.28   297.81   347.42
                              368.89   480.03   519.39   525.57   577.67
                              594.24   598.41   611.96   630.67   648.46
                              672.59   734.09   755.28   790.81   805.37
                              890.20   933.69   950.77   959.60  1035.34
                             1063.10  1092.75  1118.27  1171.26  1199.12
                             1218.83  1228.28  1234.73  1246.08  1326.27
                             1352.79  1380.94  1390.75  1402.21  1468.84
                             1491.72  1523.50  1599.49  1612.74  1640.12
                             1672.53  1726.02  1740.28  1744.71  1781.21
                             1842.04  1889.46  1891.53  1911.35  1930.15
                             1954.88  1978.35  1995.19  2084.56  2121.47
                             2137.76  2221.94  2265.32  2316.29  2353.84
                             2369.61  2390.00  2415.27  2601.25  4441.06
                             4536.19  4558.75  4581.86  4598.93  4600.45
                             4610.67  4612.27  4632.45  4652.38  5140.72
                             5321.38  5396.83

 Zero-point correction=                           0.242994 (Hartree/Particle)
 Thermal correction to Energy=                    0.259281
 Thermal correction to Enthalpy=                  0.260225
 Thermal correction to Gibbs Free Energy=         0.196996
 Sum of electronic and zero-point Energies=          -1144.547304
 Sum of electronic and thermal Energies=             -1144.531017
 Sum of electronic and thermal Enthalpies=           -1144.530073
 Sum of electronic and thermal Free Energies=        -1144.593302

                     E (Thermal)             CV                S
                      KCal/Mol        Cal/Mol-Kelvin    Cal/Mol-Kelvin
 Total                  162.701             62.932            133.077
 Electronic               0.000              0.000              0.000
 Translational            0.889              2.981             42.555
 Rotational               0.889              2.981             34.065
 Vibrational            160.924             56.971             56.457
 Vibration     1          0.593              1.986              6.782
 Vibration     2          0.594              1.981              5.257
 Vibration     3          0.596              1.977              4.732
 Vibration     4          0.596              1.976              4.671
 Vibration     5          0.599              1.967              4.063
 Vibration     6          0.603              1.954              3.584
 Vibration     7          0.615              1.914              2.811
 Vibration     8          0.634              1.851              2.208
 Vibration     9          0.641              1.830              2.070
 Vibration    10          0.658              1.777              1.792
 Vibration    11          0.666              1.752              1.686
 Vibration    12          0.715              1.608              1.242
 Vibration    13          0.735              1.553              1.118
 Vibration    14          0.739              1.544              1.100
 Vibration    15          0.767              1.467              0.957
 Vibration    16          0.777              1.442              0.916
 Vibration    17          0.779              1.436              0.906
 Vibration    18          0.787              1.415              0.874
 Vibration    19          0.799              1.387              0.832
 Vibration    20          0.809              1.359              0.794
 Vibration    21          0.825              1.322              0.745
 Vibration    22          0.865              1.227              0.633
 Vibration    23          0.880              1.195              0.599
 Vibration    24          0.905              1.140              0.545
 Vibration    25          0.915              1.118              0.524
 Vibration    26          0.979              0.992              0.419

 Optimization completed.
    -- Stationary point found.
 Normal termination of Gaussian 16 at Fri Dec 11 23:25:55 2020.

 ----------------------------------------------------------------------
 # B3LYP/6-311++G(d,p) empiricaldispersion=gd3bj scf=xqc pop=npa geom=c
 heck
 ----------------------------------------------------------------------

 --------------------------------------
 CID_56711636_JID_8971_Energie_neutraal
 --------------------------------------
 Structure from the checkpoint file:  "JID_8971.chk"
 Charge =  0 Multiplicity = 1

 SCF Done:  E(RB3LYP) =  -1145.03381448     A.U. after   16 cycles
 Normal termination of Gaussian 16 at Fri Dec 11 23:31:47 2020.

 ----------------------------------------------------------------------
 # B3LYP/6-311++G(d,p) empiricaldispersion=gd3bj scf=xqc pop=npa geom=c
 heck
 ----------------------------------------------------------------------

 ------------------------------------
 CID_56711636_JID_8971_Energie_kation
 ------------------------------------
 Structure from the checkpoint file:  "JID_8971.chk"
 Charge =  1 Multiplicity = 2

 SCF Done:  E(UB3LYP) =  -1144.76599921     A.U. after   24 cycles
 Normal termination of Gaussian 16 at Fri Dec 11 23:44:21 2020.
 Gaussian 16:  ES64L-G16RevA.03 25-Dec-2016

 ----------------------------------------------------------------------
 # B3LYP/6-311++G(d,p) empiricaldispersion=gd3bj scf=xqc pop=npa geom=c
 heck
 ----------------------------------------------------------------------

 -----------------------------------
 CID_56711636_JID_8971_Energie_anion
 -----------------------------------
 Structure from the checkpoint file:  "JID_8971.chk"
 Charge = -1 Multiplicity = 2

                         Standard orientation:
 ---------------------------------------------------------------------
 Center     Atomic      Atomic             Coordinates (Angstroms)
 Number     Number       Type             X           Y           Z
 ---------------------------------------------------------------------
      1          6           0        2.866495    1.177787    0.240581
      2          6           0        4.229461    1.460765    0.259168
      3          6           0        5.157109    0.442222    0.022581
      4          6           0        4.707786   -0.857159   -0.232997
      5          6           0        3.344822   -1.124824   -0.250653
      6          6           0        2.392969   -0.117565   -0.014702
      7          6           0        0.943836   -0.412956   -0.035115
      8          6           0        0.442892   -1.634401    0.446644
      9          6           0       -0.917179   -1.914721    0.428279
     10          6           0       -1.829439   -0.974267   -0.071510
     11          6           0       -1.350051    0.248475   -0.553607
     12          6           0        0.018166    0.513926   -0.533829
     13         16           0       -3.552766   -1.446119   -0.042915
     14          6           0       -4.385524    0.008518   -0.764266
     15          6           0       -4.329345    1.315152    0.039082
     16          8           0       -4.280446    2.391302   -0.538338
     17          7           0       -4.405551    1.181715    1.390799
     18          8           0        6.507285    0.654248    0.028473
     19          1           0        2.159370    1.973708    0.454037
     20          1           0        4.572914    2.471893    0.469629
     21          1           0        5.437471   -1.636593   -0.426305
     22          1           0        3.008544   -2.131842   -0.478880
     23          1           0        1.127964   -2.365657    0.865135
     24          1           0       -1.276127   -2.865986    0.812127
     25          1           0       -2.019445    1.002557   -0.949911
     26          1           0        0.372052    1.456893   -0.939806
     27          1           0       -4.007850    0.217569   -1.766684
     28          1           0       -5.433247   -0.297042   -0.860035
     29          1           0       -4.229402    0.282891    1.819439
     30          1           0       -4.272365    2.015242    1.945920
     31          1           0        6.676544    1.592156    0.207372
 ---------------------------------------------------------------------

 SCF Done:  E(UB3LYP) =  -1145.02947936     A.U. after   33 cycles
 SCF Done:  E(UB3LYP) =  -1145.02947936     a.u. after    1 cycles

 The electronic state is 2-A.
 Alpha  occ. eigenvalues --  -88.76896 -19.05273 -19.01165 -14.24864 -10.19870
 Alpha  occ. eigenvalues --  -10.13006 -10.12938 -10.10135 -10.07794 -10.07617
 Alpha  occ. eigenvalues --  -10.07441 -10.07356 -10.07295 -10.07258 -10.07203
 Alpha  occ. eigenvalues --  -10.07143 -10.07135 -10.07003  -7.85489  -5.81888
 Alpha  occ. eigenvalues --   -5.81481  -5.80894  -0.96352  -0.96093  -0.82673
 Alpha  occ. eigenvalues --   -0.77178  -0.75271  -0.71803  -0.67213  -0.65374
 Alpha  occ. eigenvalues --   -0.64732  -0.62774  -0.58021  -0.53175  -0.51854
 Alpha  occ. eigenvalues --   -0.50842  -0.49783  -0.47763  -0.45859  -0.44713
 Alpha  occ. eigenvalues --   -0.42717  -0.39904  -0.38408  -0.37165  -0.36297
 Alpha  occ. eigenvalues --   -0.35126  -0.34418  -0.33748  -0.33470  -0.32803
 Alpha  occ. eigenvalues --   -0.32066  -0.31610  -0.31217  -0.29286  -0.28450
 Alpha  occ. eigenvalues --   -0.28052  -0.26066  -0.25238  -0.24487  -0.23839
 Alpha  occ. eigenvalues --   -0.23401  -0.20475  -0.19401  -0.17989  -0.16010
 Alpha  occ. eigenvalues --   -0.15883  -0.14214  -0.10599   0.03851
 Alpha virt. eigenvalues --    0.05276   0.05893   0.06924   0.07541   0.07718
 Alpha virt. eigenvalues --    0.08094   0.08505   0.08761   0.09104   0.09834
 Alpha virt. eigenvalues --    0.10452   0.11006   0.11338   0.11638   0.12100

  Beta  occ. eigenvalues --  -88.76897 -19.05208 -19.01160 -14.24814 -10.19870
  Beta  occ. eigenvalues --  -10.12998 -10.12822 -10.09942 -10.07797 -10.07635
  Beta  occ. eigenvalues --  -10.07397 -10.07340 -10.07299 -10.07222 -10.07165
  Beta  occ. eigenvalues --  -10.07146 -10.07008 -10.06947  -7.85490  -5.81890
  Beta  occ. eigenvalues --   -5.81485  -5.80895  -0.96201  -0.96082  -0.82611
  Beta  occ. eigenvalues --   -0.77001  -0.75146  -0.71717  -0.67024  -0.65282
  Beta  occ. eigenvalues --   -0.64640  -0.62625  -0.57916  -0.53099  -0.51682
  Beta  occ. eigenvalues --   -0.50765  -0.49699  -0.47598  -0.45805  -0.44616
  Beta  occ. eigenvalues --   -0.42650  -0.39849  -0.38336  -0.37092  -0.36232
  Beta  occ. eigenvalues --   -0.35032  -0.34348  -0.33678  -0.33443  -0.32771
  Beta  occ. eigenvalues --   -0.32019  -0.31506  -0.30957  -0.29189  -0.28384
  Beta  occ. eigenvalues --   -0.27653  -0.25971  -0.25169  -0.24184  -0.23760
  Beta  occ. eigenvalues --   -0.23325  -0.20250  -0.19264  -0.17831  -0.15778
  Beta  occ. eigenvalues --   -0.15645  -0.13902  -0.10128
  Beta virt. eigenvalues --    0.06026   0.06782   0.07011   0.07382   0.07508
  Beta virt. eigenvalues --    0.07940   0.08174   0.08618   0.08840   0.09253
  Beta virt. eigenvalues --    0.10122   0.10518   0.11195   0.11458   0.11731

 Mulliken charges and spin densities:
               1          2
     1  C   -0.591396   0.038150
     2  C   -0.602824   0.482519
     3  C    0.926967  -1.259092
     4  C   -0.151579  -0.298555
     5  C   -0.595009   0.255001
     6  C    1.280953  -0.055997
     7  C    0.829908  -0.057599
     8  C   -0.724773   0.072896
     9  C   -0.643223   0.115050
    10  C    1.015100  -0.109033
    11  C   -0.444020   0.169596
    12  C   -0.401648   0.141466
    13  S   -0.240488  -0.391671
    14  C   -0.313905  -0.040767
    15  C    0.290146  -0.309316
    16  O   -0.301791   0.012340
    17  N   -0.221061  -0.059463
    18  O   -0.279277   0.037422
    19  H    0.106854   0.025994
    20  H   -0.620853   0.776274
    21  H    0.151210   0.015609
    22  H    0.134330  -0.014770
    23  H    0.076625   0.049498
    24  H    0.114664   0.040176
    25  H    0.051701   0.066668
    26  H    0.151956  -0.005579
    27  H    0.251259  -0.003321
    28  H    0.078680   0.167264
    29  H   -0.069384   0.305348
    30  H   -0.080059   0.379791
    31  H   -0.179063   0.454103
 Sum of Mulliken charges =  -1.00000   1.00000

 Dipole moment (field-independent basis, Debye):
    X=             -4.5510    Y=             -4.9592    Z=             -1.8610  Tot=              6.9834
 Quadrupole moment (field-independent basis, Debye-Ang):
   XX=           -237.0055   YY=           -145.2201   ZZ=           -134.8814
   XY=             -6.7782   XZ=              1.1297   YZ=             -1.3706

 Summary of Natural Population Analysis:

                                       Natural Population
                Natural  -----------------------------------------------
    Atom  No    Charge         Core      Valence    Rydberg      Total
 -----------------------------------------------------------------------
      C    1   -0.07162      0.99954     2.06374    0.00835     3.07162
      C    2   -0.14596      0.99952     2.13623    0.01020     3.14596
      C    3    0.17376      0.99939     1.81364    0.01321     2.82624
      C    4   -0.13518      0.99953     2.12556    0.01009     3.13518
      C    5   -0.07773      0.99954     2.07125    0.00694     3.07773
      C    6   -0.03708      0.99949     2.02785    0.00973     3.03708
      C    7   -0.00702      0.99949     1.99798    0.00955     3.00702
      C    8   -0.08717      0.99953     2.07943    0.00820     3.08717
      C    9   -0.11256      0.99951     2.10300    0.01004     3.11256
      C   10   -0.06372      0.99940     2.05350    0.01082     3.06372
      C   11   -0.12389      0.99950     2.11465    0.00975     3.12389
      C   12   -0.07685      0.99953     2.06912    0.00819     3.07685
      S   13    0.11992      4.99955     2.86070    0.01984     7.88008
      C   14   -0.30109      0.99954     2.29081    0.01074     3.30109
      C   15    0.32924      0.99969     1.64671    0.02436     2.67076
      O   16   -0.31770      0.99988     3.31170    0.00612     4.31770
      N   17   -0.40092      0.99970     2.89271    0.00851     3.90092
      O   18   -0.34090      0.99988     3.33417    0.00685     4.34090
      H   19    0.10058      0.00000     0.39815    0.00127     0.39942
      H   20    0.10131      0.00000     0.39691    0.00178     0.39869
      H   21    0.10235      0.00000     0.39684    0.00081     0.39765
      H   22    0.09769      0.00000     0.40128    0.00102     0.40231
      H   23    0.09857      0.00000     0.40018    0.00125     0.40143
      H   24    0.09917      0.00000     0.39996    0.00087     0.40083
      H   25    0.10489      0.00000     0.39315    0.00195     0.39511
      H   26    0.09971      0.00000     0.39909    0.00119     0.40029
      H   27    0.11598      0.00000     0.38277    0.00126     0.38402
      H   28    0.11966      0.00000     0.37948    0.00086     0.38034
      H   29    0.20215      0.00000     0.29399    0.00387     0.29785
      H   30    0.19754      0.00000     0.29965    0.00281     0.30246
      H   31    0.23687      0.00000     0.25601    0.00713     0.26313
 =======================================================================
   * Total *    0.00000     21.99220    45.79023    0.21757    68.00000

 Normal termination of Gaussian 16 at Sat Dec 12 00:01:41 2020.
