 Gaussian 16, Revision A.03,

 -----------------------------------------------------------
 # opt freq B3LYP/6-31G(d) empiricaldispersion=gd3bj scf=xqc
 -----------------------------------------------------------

 ------------------------------
 CID_63964687_JID_1791_neutraal
 ------------------------------
 Symbolic Z-matrix:
 Charge =  0 Multiplicity = 1

 SCF Done:  E(RB3LYP) =  -822.178554716     A.U. after   15 cycles
 SCF Done:  E(RB3LYP) =  -822.201466407     A.U. after   13 cycles
 SCF Done:  E(RB3LYP) =  -822.201653227     A.U. after   12 cycles
 SCF Done:  E(RB3LYP) =  -822.202107363     A.U. after   12 cycles
 SCF Done:  E(RB3LYP) =  -822.202424678     A.U. after   12 cycles
 SCF Done:  E(RB3LYP) =  -822.203110529     A.U. after   12 cycles
 SCF Done:  E(RB3LYP) =  -822.203169245     A.U. after   11 cycles
 SCF Done:  E(RB3LYP) =  -822.203173418     A.U. after   10 cycles
 SCF Done:  E(RB3LYP) =  -822.203181066     A.U. after   10 cycles
 SCF Done:  E(RB3LYP) =  -822.203185125     A.U. after    9 cycles
 SCF Done:  E(RB3LYP) =  -822.203186231     A.U. after    8 cycles
 SCF Done:  E(RB3LYP) =  -822.203186300     A.U. after    7 cycles
 Optimization completed.
    -- Stationary point found.
 Normal termination of Gaussian 16 at Tue Dec  8 21:07:59 2020.

 --------------------------------------------------------------------
 #N Geom=AllCheck Guess=TCheck SCRF=Check GenChk RB3LYP/6-31G(d) Freq
 --------------------------------------------------------------------

 Structure from the checkpoint file:  "JID_1791.chk"
 ------------------------------
 CID_63964687_JID_1791_neutraal
 ------------------------------
 Charge =  0 Multiplicity = 1

 SCF Done:  E(RB3LYP) =  -822.203186300     A.U. after    1 cycles

  Exact polarizability: 124.075   1.038 106.878  -0.131  -0.407  95.710
 Approx polarizability: 151.869   3.358 167.440   0.399  -8.727 148.410

                      1                      2                      3
                      A                      A                      A
 Frequencies --     32.4672                51.0234                70.6934
 Red. masses --      4.5846                 4.1220                 3.9945
 Frc consts  --      0.0028                 0.0063                 0.0118
 IR Inten    --      1.1799                 0.7271                 1.5438

                      4                      5                      6
                      A                      A                      A
 Frequencies --     91.9439               114.4876               151.0144
 Red. masses --      2.5976                 2.8798                 4.0410
 Frc consts  --      0.0129                 0.0222                 0.0543
 IR Inten    --      1.1913                 3.6619                 2.6643

                      7                      8                      9
                      A                      A                      A
 Frequencies --    152.4826               175.8618               201.9608
 Red. masses --      4.2491                 2.3817                 1.2027
 Frc consts  --      0.0582                 0.0434                 0.0289
 IR Inten    --      6.4583                 1.0790                 2.1539

                     10                     11                     12
                      A                      A                      A
 Frequencies --    225.5294               255.8283               264.4479
 Red. masses --      1.8789                 3.1995                 1.6571
 Frc consts  --      0.0563                 0.1234                 0.0683
 IR Inten    --      0.2706                 2.9770                 0.5169

                     13                     14                     15
                      A                      A                      A
 Frequencies --    297.5337               338.6847               392.7487
 Red. masses --      2.1289                 2.6701                 3.2432
 Frc consts  --      0.1110                 0.1805                 0.2947
 IR Inten    --      0.8767                 4.5080                 3.2077

                     16                     17                     18
                      A                      A                      A
 Frequencies --    421.9276               520.9222               561.6745
 Red. masses --      2.1643                 2.8080                 3.9382
 Frc consts  --      0.2270                 0.4489                 0.7320
 IR Inten    --      1.7647                 1.2765                 2.9964

                     19                     20                     21
                      A                      A                      A
 Frequencies --    610.4244               650.1901               705.9144
 Red. masses --      3.2561                 3.4644                 2.0194
 Frc consts  --      0.7148                 0.8629                 0.5929
 IR Inten    --      1.9059                 6.9732                63.6465

                     22                     23                     24
                      A                      A                      A
 Frequencies --    718.8008               760.7435               774.4626
 Red. masses --      4.0436                 1.6547                 1.5857
 Frc consts  --      1.2309                 0.5642                 0.5604
 IR Inten    --      4.9577                 9.3119                 5.6419

                     25                     26                     27
                      A                      A                      A
 Frequencies --    856.5893               892.1001               914.9131
 Red. masses --      1.9568                 2.1843                 1.6488
 Frc consts  --      0.8459                 1.0242                 0.8132
 IR Inten    --      8.7164                26.3112                 2.0822

                     28                     29                     30
                      A                      A                      A
 Frequencies --    935.4893               988.4234              1005.0979
 Red. masses --      1.8838                 1.1969                 1.4825
 Frc consts  --      0.9713                 0.6889                 0.8824
 IR Inten    --     10.8154                 5.4873                 9.8394

                     31                     32                     33
                      A                      A                      A
 Frequencies --   1019.7517              1051.6547              1086.3293
 Red. masses --      1.7200                 2.1121                 2.1497
 Frc consts  --      1.0538                 1.3763                 1.4947
 IR Inten    --      5.1120                 0.2889                 8.5581

                     34                     35                     36
                      A                      A                      A
 Frequencies --   1102.0990              1130.1737              1147.4649
 Red. masses --      2.6862                 1.6979                 1.9256
 Frc consts  --      1.9223                 1.2777                 1.4938
 IR Inten    --      0.2475                 5.1109                34.3896

                     37                     38                     39
                      A                      A                      A
 Frequencies --   1164.5473              1208.3581              1251.0735
 Red. masses --      2.5055                 1.3261                 1.3549
 Frc consts  --      2.0020                 1.1409                 1.2494
 IR Inten    --     26.2993                18.1883                 1.0985

                     40                     41                     42
                      A                      A                      A
 Frequencies --   1286.0988              1310.7590              1335.6195
 Red. masses --      1.3016                 1.1977                 1.2214
 Frc consts  --      1.2685                 1.2124                 1.2837
 IR Inten    --      0.3492                 1.0293                18.2130

                     43                     44                     45
                      A                      A                      A
 Frequencies --   1341.9237              1375.3670              1389.0773
 Red. masses --      1.2239                 1.2766                 1.3576
 Frc consts  --      1.2986                 1.4227                 1.5434
 IR Inten    --      3.1041                 3.8325                 4.0747

                     46                     47                     48
                      A                      A                      A
 Frequencies --   1390.8098              1411.2689              1414.1913
 Red. masses --      1.2007                 1.3520                 1.2719
 Frc consts  --      1.3684                 1.5865                 1.4988
 IR Inten    --      5.4716                 9.5239                 9.7989

                     49                     50                     51
                      A                      A                      A
 Frequencies --   1446.7816              1494.7272              1499.3468
 Red. masses --      1.2391                 1.0828                 1.0628
 Frc consts  --      1.5282                 1.4254                 1.4076
 IR Inten    --      2.6971                 3.3404                11.2777

                     52                     53                     54
                      A                      A                      A
 Frequencies --   1508.0978              1513.3974              1517.2084
 Red. masses --      1.0998                 1.1039                 1.0733
 Frc consts  --      1.4738                 1.4897                 1.4557
 IR Inten    --     10.3071                29.4329                 5.4462

                     55                     56                     57
                      A                      A                      A
 Frequencies --   1518.1740              1530.0927              1535.6822
 Red. masses --      1.0803                 1.0451                 1.1296
 Frc consts  --      1.4671                 1.4416                 1.5696
 IR Inten    --     11.9239                 6.3500                16.2660

                     58                     59                     60
                      A                      A                      A
 Frequencies --   1538.1554              2342.4814              3045.8142
 Red. masses --      1.0640                12.6409                 1.0616
 Frc consts  --      1.4832                40.8679                 5.8025
 IR Inten    --      2.8555                 3.5439                13.2786

                     61                     62                     63
                      A                      A                      A
 Frequencies --   3048.8414              3053.0434              3053.4849
 Red. masses --      1.0723                 1.0407                 1.0330
 Frc consts  --      5.8725                 5.7155                 5.6750
 IR Inten    --      5.8940                15.9347                29.1224

                     64                     65                     66
                      A                      A                      A
 Frequencies --   3055.4283              3061.3720              3077.5394
 Red. masses --      1.0611                 1.0717                 1.0728
 Frc consts  --      5.8367                 5.9179                 5.9868
 IR Inten    --     27.2722                33.4490                 3.6016

                     67                     68                     69
                      A                      A                      A
 Frequencies --   3086.6361              3102.7660              3104.9976
 Red. masses --      1.0897                 1.1015                 1.0986
 Frc consts  --      6.1166                 6.2478                 6.2406
 IR Inten    --     24.5035                43.6401                 2.7041

                     70                     71                     72
                      A                      A                      A
 Frequencies --   3122.6599              3126.7180              3131.6088
 Red. masses --      1.1021                 1.1053                 1.1072
 Frc consts  --      6.3316                 6.3665                 6.3974
 IR Inten    --     35.0820                12.9376                13.1868

                     73                     74                     75
                      A                      A                      A
 Frequencies --   3133.4592              3150.1881              3531.8354
 Red. masses --      1.1023                 1.1024                 1.0736
 Frc consts  --      6.3770                 6.4456                 7.8903
 IR Inten    --     29.7016                 9.6758                 2.0499

 - Thermochemistry -
 -------------------
 Temperature   298.150 Kelvin.  Pressure   1.00000 Atm.
 Atom     1 has atomic number  6 and mass  12.00000

 Molecular mass:   172.10342 amu.
 Principal axes and moments of inertia in atomic units:
                           1         2         3
     Eigenvalues --  1066.755914022.575534257.21682
           X            0.99996  -0.00831   0.00119
           Y            0.00810   0.99184   0.12721
           Z           -0.00223  -0.12719   0.99188
 This molecule is an asymmetric top.
 Rotational symmetry number  1.
 Warning -- assumption of classical behavior for rotation
           may cause significant error
 Rotational temperatures (Kelvin)      0.08119     0.02153     0.02035
 Rotational constants (GHZ):           1.69180     0.44865     0.42393
 Zero-point vibrational energy     621349.3 (Joules/Mol)
                                  148.50604 (Kcal/Mol)
 Warning -- explicit consideration of  19 degrees of freedom as
           vibrations may cause significant error
 Vibrational temperatures:     46.71    73.41   101.71   132.29   164.72
          (Kelvin)            217.28   219.39   253.03   290.58   324.49
                              368.08   380.48   428.08   487.29   565.08
                              607.06   749.49   808.12   878.26   935.48
                             1015.65  1034.19  1094.54  1114.28  1232.44
                             1283.53  1316.36  1345.96  1422.12  1446.11
                             1467.20  1513.10  1562.99  1585.67  1626.07
                             1650.95  1675.52  1738.56  1800.02  1850.41
                             1885.89  1921.66  1930.73  1978.85  1998.57
                             2001.07  2030.50  2034.71  2081.60  2150.58
                             2157.23  2169.82  2177.44  2182.92  2184.31
                             2201.46  2209.50  2213.06  3370.31  4382.25
                             4386.60  4392.65  4393.28  4396.08  4404.63
                             4427.89  4440.98  4464.19  4467.40  4492.81
                             4498.65  4505.69  4508.35  4532.42  5081.52

 Zero-point correction=                           0.236659 (Hartree/Particle)
 Thermal correction to Energy=                    0.250452
 Thermal correction to Enthalpy=                  0.251396
 Thermal correction to Gibbs Free Energy=         0.195273
 Sum of electronic and zero-point Energies=           -821.966527
 Sum of electronic and thermal Energies=              -821.952734
 Sum of electronic and thermal Enthalpies=            -821.951790
 Sum of electronic and thermal Free Energies=         -822.007913

                     E (Thermal)             CV                S
                      KCal/Mol        Cal/Mol-Kelvin    Cal/Mol-Kelvin
 Total                  157.161             48.992            118.121
 Electronic               0.000              0.000              0.000
 Translational            0.889              2.981             41.336
 Rotational               0.889              2.981             31.280
 Vibrational            155.384             43.031             45.505
 Vibration     1          0.594              1.983              5.673
 Vibration     2          0.595              1.977              4.777
 Vibration     3          0.598              1.968              4.134
 Vibration     4          0.602              1.955              3.618
 Vibration     5          0.607              1.937              3.191
 Vibration     6          0.618              1.902              2.659
 Vibration     7          0.619              1.900              2.641
 Vibration     8          0.628              1.872              2.372
 Vibration     9          0.639              1.837              2.115
 Vibration    10          0.650              1.802              1.914
 Vibration    11          0.666              1.753              1.690
 Vibration    12          0.671              1.738              1.632
 Vibration    13          0.691              1.678              1.431
 Vibration    14          0.719              1.598              1.218
 Vibration    15          0.760              1.486              0.990
 Vibration    16          0.784              1.423              0.885
 Vibration    17          0.876              1.204              0.608
 Vibration    18          0.917              1.114              0.520
 Vibration    19          0.969              1.010              0.432

 Optimization completed.
    -- Stationary point found.
 Normal termination of Gaussian 16 at Tue Dec  8 21:14:09 2020.

 ----------------------------------------------------------------------
 # B3LYP/6-311++G(d,p) empiricaldispersion=gd3bj scf=xqc pop=npa geom=c
 heck
 ----------------------------------------------------------------------

 --------------------------------------
 CID_63964687_JID_1791_Energie_neutraal
 --------------------------------------
 Structure from the checkpoint file:  "JID_1791.chk"
 Charge =  0 Multiplicity = 1

 SCF Done:  E(RB3LYP) =  -822.353809654     A.U. after   14 cycles
 Normal termination of Gaussian 16 at Tue Dec  8 21:18:02 2020.

 ----------------------------------------------------------------------
 # B3LYP/6-311++G(d,p) empiricaldispersion=gd3bj scf=xqc pop=npa geom=c
 heck
 ----------------------------------------------------------------------

 ------------------------------------
 CID_63964687_JID_1791_Energie_kation
 ------------------------------------
 Structure from the checkpoint file:  "JID_1791.chk"
 Charge =  1 Multiplicity = 2

 SCF Done:  E(UB3LYP) =  -822.048918368     A.U. after   19 cycles
 Normal termination of Gaussian 16 at Tue Dec  8 21:26:19 2020.
 Gaussian 16:  ES64L-G16RevA.03 25-Dec-2016

 ----------------------------------------------------------------------
 # B3LYP/6-311++G(d,p) empiricaldispersion=gd3bj scf=xqc pop=npa geom=c
 heck
 ----------------------------------------------------------------------

 -----------------------------------
 CID_63964687_JID_1791_Energie_anion
 -----------------------------------
 Structure from the checkpoint file:  "JID_1791.chk"
 Charge = -1 Multiplicity = 2

                         Standard orientation:
 ---------------------------------------------------------------------
 Center     Atomic      Atomic             Coordinates (Angstroms)
 Number     Number       Type             X           Y           Z
 ---------------------------------------------------------------------
      1          6           0        4.266072   -0.402654   -0.304370
      2          6           0        2.898639   -1.065988   -0.136809
      3          6           0        1.814275   -0.121075    0.420147
      4          6           0        1.676544    1.060270   -0.472563
      5          7           0        1.524645    1.937686   -1.219040
      6          7           0        0.566192   -0.844213    0.622941
      7          6           0       -0.411382   -0.258787    1.544360
      8          6           0       -1.056808    1.081342    1.160582
      9          6           0       -1.813919    1.083330   -0.170680
     10         16           0       -3.249961   -0.064458   -0.264515
     11          6           0       -2.486242   -1.562585   -0.980819
     12          1           0        4.223234    0.430043   -1.014219
     13          1           0        5.000162   -1.124376   -0.676156
     14          1           0        4.636060   -0.011931    0.651107
     15          1           0        2.550392   -1.463398   -1.098861
     16          1           0        2.952112   -1.911278    0.556530
     17          1           0        2.142872    0.247667    1.400376
     18          1           0        0.142423   -1.068224   -0.273258
     19          1           0       -1.201163   -1.004529    1.685476
     20          1           0        0.087632   -0.150694    2.515478
     21          1           0       -1.749256    1.359321    1.964862
     22          1           0       -0.295185    1.870279    1.114397
     23          1           0       -2.230406    2.079197   -0.348066
     24          1           0       -1.148192    0.875855   -1.014294
     25          1           0       -1.920137   -1.313985   -1.884432
     26          1           0       -1.844365   -2.091265   -0.270264
     27          1           0       -3.305730   -2.228777   -1.262829
 ---------------------------------------------------------------------

 SCF Done:  E(UB3LYP) =  -822.341047838     A.U. after   30 cycles

 The electronic state is 2-A.
 Alpha  occ. eigenvalues --  -88.74481 -14.21710 -14.21592 -10.14437 -10.11213
 Alpha  occ. eigenvalues --  -10.10512 -10.10242 -10.09932 -10.07936 -10.07885
 Alpha  occ. eigenvalues --  -10.06449  -7.83075  -5.79480  -5.79110  -5.78436
 Alpha  occ. eigenvalues --   -0.83761  -0.80578  -0.72180  -0.69565  -0.65938
 Alpha  occ. eigenvalues --   -0.61668  -0.58286  -0.53112  -0.51996  -0.47771
 Alpha  occ. eigenvalues --   -0.45199  -0.39091  -0.38080  -0.36898  -0.34964
 Alpha  occ. eigenvalues --   -0.34244  -0.33700  -0.32806  -0.31237  -0.30315
 Alpha  occ. eigenvalues --   -0.28409  -0.28007  -0.27050  -0.26551  -0.26439
 Alpha  occ. eigenvalues --   -0.25479  -0.24893  -0.23963  -0.22616  -0.21334
 Alpha  occ. eigenvalues --   -0.14760  -0.13205   0.04418
 Alpha virt. eigenvalues --    0.06190   0.07050   0.08149   0.08826   0.08957
 Alpha virt. eigenvalues --    0.09798   0.10501   0.10809   0.10961   0.11587
 Alpha virt. eigenvalues --    0.11633   0.12197   0.12527   0.12784   0.13331

  Beta  occ. eigenvalues --  -88.74475 -14.21694 -14.21565 -10.14412 -10.11212
  Beta  occ. eigenvalues --  -10.10506 -10.10220 -10.09878 -10.07903 -10.07879
  Beta  occ. eigenvalues --  -10.06413  -7.83070  -5.79470  -5.79102  -5.78433
  Beta  occ. eigenvalues --   -0.83727  -0.80539  -0.72150  -0.69518  -0.65893
  Beta  occ. eigenvalues --   -0.61605  -0.58219  -0.53045  -0.51884  -0.47728
  Beta  occ. eigenvalues --   -0.45153  -0.39050  -0.38025  -0.36867  -0.34916
  Beta  occ. eigenvalues --   -0.34199  -0.33650  -0.32759  -0.31175  -0.30273
  Beta  occ. eigenvalues --   -0.28367  -0.27956  -0.27007  -0.26488  -0.26392
  Beta  occ. eigenvalues --   -0.25441  -0.24849  -0.23915  -0.22553  -0.21292
  Beta  occ. eigenvalues --   -0.14737  -0.13184
  Beta virt. eigenvalues --    0.06823   0.07220   0.07619   0.08595   0.09403
  Beta virt. eigenvalues --    0.09456   0.10203   0.10640   0.10937   0.11319
  Beta virt. eigenvalues --    0.11835   0.11980   0.12448   0.12801   0.13282

 Mulliken charges and spin densities:
               1          2
     1  C    0.795972  -1.451687
     2  C   -0.224539   0.190817
     3  C   -1.480178   1.273767
     4  C    1.727197  -2.017720
     5  N   -0.348435   0.089604
     6  N    0.132780  -0.018845
     7  C    0.340680  -0.841274
     8  C   -0.137228   0.072393
     9  C   -0.234703   0.020852
    10  S   -0.041286   0.129720
    11  C    0.354963  -1.114314
    12  H    0.123555   0.037407
    13  H   -0.331690   0.477871
    14  H   -0.345881   0.489840
    15  H   -0.445945   0.562158
    16  H   -0.361913   0.575777
    17  H   -0.339537   0.521556
    18  H    0.608468  -0.360609
    19  H    0.212940  -0.052417
    20  H   -0.539693   0.699559
    21  H    0.063105   0.097523
    22  H    0.085381   0.058920
    23  H    0.116950   0.123195
    24  H    0.129725   0.027194
    25  H   -0.176274   0.359626
    26  H   -0.242974   0.417023
    27  H   -0.441440   0.632065
 Sum of Mulliken charges =  -1.00000   1.00000

 Dipole moment (field-independent basis, Debye):
    X=             -4.0343    Y=              3.0924    Z=              0.0726  Tot=              5.0837
 Quadrupole moment (field-independent basis, Debye-Ang):
   XX=           -152.2113   YY=           -119.2073   ZZ=           -117.8062
   XY=             -1.5633   XZ=             -8.9455   YZ=              0.9105

 Summary of Natural Population Analysis:

                                       Natural Population
                Natural  -----------------------------------------------
    Atom  No    Charge         Core      Valence    Rydberg      Total
 -----------------------------------------------------------------------
      C    1   -0.28992      0.99966     2.28460    0.00566     3.28992
      C    2   -0.18308      0.99963     2.17339    0.01007     3.18308
      C    3   -0.06060      0.99949     2.04764    0.01347     3.06060
      C    4    0.15217      0.99964     1.82964    0.01854     2.84783
      N    5   -0.18877      0.99979     2.67708    0.01190     3.68877
      N    6   -0.33153      0.99974     2.81931    0.01248     3.83153
      C    7   -0.09001      0.99961     2.07770    0.01270     3.09001
      C    8   -0.20865      0.99961     2.19947    0.00957     3.20865
      C    9   -0.25167      0.99958     2.24291    0.00919     3.25167
      S   10    0.07738      4.99964     2.90311    0.01987     7.92262
      C   11   -0.35245      0.99962     2.34609    0.00674     3.35245
      H   12    0.10038      0.00000     0.39866    0.00097     0.39962
      H   13    0.10330      0.00000     0.39562    0.00107     0.39670
      H   14    0.09950      0.00000     0.39894    0.00156     0.40050
      H   15    0.09761      0.00000     0.40059    0.00181     0.40239
      H   16    0.10833      0.00000     0.38898    0.00269     0.39167
      H   17    0.11625      0.00000     0.38028    0.00347     0.38375
      H   18    0.17630      0.00000     0.31865    0.00505     0.32370
      H   19    0.09883      0.00000     0.39975    0.00142     0.40117
      H   20    0.09778      0.00000     0.40065    0.00157     0.40222
      H   21    0.09979      0.00000     0.39886    0.00135     0.40021
      H   22    0.10303      0.00000     0.39575    0.00122     0.39697
      H   23    0.10607      0.00000     0.39291    0.00102     0.39393
      H   24    0.10650      0.00000     0.39159    0.00191     0.39350
      H   25    0.10273      0.00000     0.39528    0.00199     0.39727
      H   26    0.10051      0.00000     0.39760    0.00190     0.39949
      H   27    0.11026      0.00000     0.38816    0.00158     0.38974
 =======================================================================
   * Total *    0.00000     14.99602    31.84320    0.16078    47.00000

 Normal termination of Gaussian 16 at Tue Dec  8 21:37:00 2020.
