 Gaussian 16, Revision A.03,

 -----------------------------------------------------------
 # opt freq B3LYP/6-31G(d) empiricaldispersion=gd3bj scf=xqc
 -----------------------------------------------------------

 ------------------------------
 CID_24956774_JID_8764_neutraal
 ------------------------------
 Symbolic Z-matrix:
 Charge =  0 Multiplicity = 1

 SCF Done:  E(RB3LYP) =  -789.524784757     A.U. after   15 cycles
 SCF Done:  E(RB3LYP) =  -789.529187756     A.U. after   12 cycles
 SCF Done:  E(RB3LYP) =  -789.530231434     A.U. after   12 cycles
 SCF Done:  E(RB3LYP) =  -789.530898723     A.U. after   13 cycles
 SCF Done:  E(RB3LYP) =  -789.531259662     A.U. after   11 cycles
 SCF Done:  E(RB3LYP) =  -789.531421325     A.U. after   11 cycles
 SCF Done:  E(RB3LYP) =  -789.531531496     A.U. after   11 cycles
 SCF Done:  E(RB3LYP) =  -789.531555321     A.U. after    9 cycles
 SCF Done:  E(RB3LYP) =  -789.531567892     A.U. after   10 cycles
 SCF Done:  E(RB3LYP) =  -789.531570505     A.U. after    9 cycles
 SCF Done:  E(RB3LYP) =  -789.531574272     A.U. after   10 cycles
 SCF Done:  E(RB3LYP) =  -789.531575768     A.U. after    9 cycles
 SCF Done:  E(RB3LYP) =  -789.531576043     A.U. after    8 cycles
 SCF Done:  E(RB3LYP) =  -789.531576171     A.U. after    7 cycles
 Optimization completed.
    -- Stationary point found.
 Normal termination of Gaussian 16 at Fri Dec 11 22:13:37 2020.

 --------------------------------------------------------------------
 #N Geom=AllCheck Guess=TCheck SCRF=Check GenChk RB3LYP/6-31G(d) Freq
 --------------------------------------------------------------------

 Structure from the checkpoint file:  "JID_8764.chk"
 ------------------------------
 CID_24956774_JID_8764_neutraal
 ------------------------------
 Charge =  0 Multiplicity = 1

 SCF Done:  E(RB3LYP) =  -789.531576171     A.U. after    1 cycles

  Exact polarizability: 194.930  -6.784 186.116  -9.053   0.038 113.592
 Approx polarizability: 280.612 -13.202 276.418 -15.205  -2.522 177.675

                      1                      2                      3
                      A                      A                      A
 Frequencies --     34.6971                39.7654                43.7095
 Red. masses --      3.3412                 3.3755                 3.9706
 Frc consts  --      0.0024                 0.0031                 0.0045
 IR Inten    --      1.0801                 0.2497                 0.9577

                      4                      5                      6
                      A                      A                      A
 Frequencies --     57.4512                90.2472               141.1181
 Red. masses --      3.2752                 3.4831                 3.8570
 Frc consts  --      0.0064                 0.0167                 0.0453
 IR Inten    --      2.3528                 1.8681                 1.2254

                      7                      8                      9
                      A                      A                      A
 Frequencies --    146.9101               188.0934               202.1298
 Red. masses --      3.4213                 2.9299                 3.1541
 Frc consts  --      0.0435                 0.0611                 0.0759
 IR Inten    --      1.2286                 0.6581                 0.9287

                     10                     11                     12
                      A                      A                      A
 Frequencies --    224.2278               235.5189               248.6539
 Red. masses --      1.1608                 1.2550                 1.0784
 Frc consts  --      0.0344                 0.0410                 0.0393
 IR Inten    --      0.0780                 0.9042                 0.0372

                     13                     14                     15
                      A                      A                      A
 Frequencies --    253.3936               267.3724               284.1458
 Red. masses --      1.5766                 2.3091                 2.0629
 Frc consts  --      0.0596                 0.0973                 0.0981
 IR Inten    --      0.5590                 1.0767                 1.2175

                     16                     17                     18
                      A                      A                      A
 Frequencies --    314.9232               332.2803               362.3252
 Red. masses --      3.3428                 3.1039                 4.4449
 Frc consts  --      0.1953                 0.2019                 0.3438
 IR Inten    --      3.0848                 4.5036                 1.2751

                     19                     20                     21
                      A                      A                      A
 Frequencies --    375.8555               395.7427               437.5422
 Red. masses --      2.6135                 2.8276                 2.4811
 Frc consts  --      0.2175                 0.2609                 0.2799
 IR Inten    --      0.7147                 4.4146                 0.8254

                     22                     23                     24
                      A                      A                      A
 Frequencies --    454.2821               463.0296               479.9048
 Red. masses --      3.4333                 4.0049                 3.2045
 Frc consts  --      0.4175                 0.5059                 0.4348
 IR Inten    --      5.0090                 4.9803                 4.9632

                     25                     26                     27
                      A                      A                      A
 Frequencies --    511.1755               540.4518               556.9986
 Red. masses --      3.1127                 3.7836                 4.0216
 Frc consts  --      0.4792                 0.6511                 0.7351
 IR Inten    --      1.4810                 3.5451                 2.7868

                     28                     29                     30
                      A                      A                      A
 Frequencies --    567.1893               646.5798               652.3254
 Red. masses --      3.3327                 3.1229                 4.0962
 Frc consts  --      0.6317                 0.7692                 1.0270
 IR Inten    --      6.4269                 2.9119                 3.4399

                     31                     32                     33
                      A                      A                      A
 Frequencies --    712.9307               743.3728               744.4425
 Red. masses --      4.1278                 5.1772                 4.9674
 Frc consts  --      1.2361                 1.6856                 1.6220
 IR Inten    --     11.5256                10.6932                13.1512

                     34                     35                     36
                      A                      A                      A
 Frequencies --    781.9732               808.2187               839.6265
 Red. masses --      4.4890                 2.4717                 2.3140
 Frc consts  --      1.6173                 0.9513                 0.9611
 IR Inten    --      4.3895                 1.1956                14.6078

                     37                     38                     39
                      A                      A                      A
 Frequencies --    850.8228               871.5466               899.5960
 Red. masses --      1.7519                 1.7418                 2.4106
 Frc consts  --      0.7472                 0.7795                 1.1494
 IR Inten    --      9.5162                14.2068                 1.1922

                     40                     41                     42
                      A                      A                      A
 Frequencies --    930.2206               943.8783               954.8603
 Red. masses --      1.8668                 1.3446                 1.6445
 Frc consts  --      0.9518                 0.7058                 0.8834
 IR Inten    --      4.4258                 1.0600                 2.3529

                     43                     44                     45
                      A                      A                      A
 Frequencies --    958.0202               962.2081               975.8977
 Red. masses --      1.5949                 1.2978                 3.0146
 Frc consts  --      0.8625                 0.7079                 1.6915
 IR Inten    --      2.4527                 0.0956                 1.3798

                     46                     47                     48
                      A                      A                      A
 Frequencies --   1007.1500              1048.9720              1083.1656
 Red. masses --      1.9139                 1.9089                 3.4133
 Frc consts  --      1.1438                 1.2375                 2.3595
 IR Inten    --      4.8833                 2.5126                39.6849

                     49                     50                     51
                      A                      A                      A
 Frequencies --   1093.7418              1098.4226              1132.1433
 Red. masses --      2.1626                 1.7904                 1.8828
 Frc consts  --      1.5242                 1.2728                 1.4218
 IR Inten    --     28.1241                 2.6573                29.6920

                     52                     53                     54
                      A                      A                      A
 Frequencies --   1146.3331              1159.8485              1186.9125
 Red. masses --      1.8434                 2.2565                 1.2714
 Frc consts  --      1.4273                 1.7885                 1.0553
 IR Inten    --      3.6487                11.2119                 0.6589

                     55                     56                     57
                      A                      A                      A
 Frequencies --   1197.5355              1211.1450              1217.7978
 Red. masses --      1.6241                 1.7145                 1.6760
 Frc consts  --      1.3723                 1.4818                 1.4645
 IR Inten    --      2.4346                19.2952               109.5628

                     58                     59                     60
                      A                      A                      A
 Frequencies --   1227.0748              1238.9176              1248.3531
 Red. masses --      1.7163                 1.8456                 1.9117
 Frc consts  --      1.5226                 1.6691                 1.7553
 IR Inten    --     37.3068                36.5701                22.5523

                     61                     62                     63
                      A                      A                      A
 Frequencies --   1298.6078              1311.9295              1323.5454
 Red. masses --      1.7410                 2.0519                 2.2121
 Frc consts  --      1.7298                 2.0808                 2.2831
 IR Inten    --     10.8067                79.5253                22.6735

                     64                     65                     66
                      A                      A                      A
 Frequencies --   1338.1747              1347.2155              1352.5080
 Red. masses --      1.7127                 1.4229                 1.6547
 Frc consts  --      1.8070                 1.5215                 1.7834
 IR Inten    --     83.5809                 4.2961                71.1524

                     67                     68                     69
                      A                      A                      A
 Frequencies --   1380.1932              1385.0799              1402.6728
 Red. masses --      3.7237                 1.3458                 1.4846
 Frc consts  --      4.1793                 1.5212                 1.7210
 IR Inten    --     85.2650                 6.4227                15.9259

                     70                     71                     72
                      A                      A                      A
 Frequencies --   1414.7252              1427.8803              1428.3046
 Red. masses --      1.3134                 1.2413                 1.2780
 Frc consts  --      1.5488                 1.4912                 1.5361
 IR Inten    --      8.4058                12.2017                 9.2892

                     73                     74                     75
                      A                      A                      A
 Frequencies --   1446.1319              1459.7582              1480.1651
 Red. masses --      1.2797                 2.2054                 2.1470
 Frc consts  --      1.5767                 2.7688                 2.7714
 IR Inten    --      2.1306                80.9541                21.5789

                     76                     77                     78
                      A                      A                      A
 Frequencies --   1506.3348              1512.1086              1514.5626
 Red. masses --      1.4000                 1.0892                 1.0590
 Frc consts  --      1.8716                 1.4673                 1.4313
 IR Inten    --      5.4054                 9.0441                 1.1835

                     79                     80                     81
                      A                      A                      A
 Frequencies --   1520.9615              1522.1099              1524.8987
 Red. masses --      1.0479                 1.0607                 1.0558
 Frc consts  --      1.4282                 1.4479                 1.4465
 IR Inten    --      5.6807                 6.0273                 3.6003

                     82                     83                     84
                      A                      A                      A
 Frequencies --   1530.5875              1535.3539              1536.2600
 Red. masses --      1.0523                 1.0730                 1.0644
 Frc consts  --      1.4525                 1.4903                 1.4800
 IR Inten    --      6.4429                40.1349                17.2059

                     85                     86                     87
                      A                      A                      A
 Frequencies --   1539.7214              1550.7254              1562.2269
 Red. masses --      1.0592                 1.0879                 2.6036
 Frc consts  --      1.4795                 1.5413                 3.7439
 IR Inten    --     14.5901                15.1263                72.9042

                     88                     89                     90
                      A                      A                      A
 Frequencies --   1644.3656              1675.9766              1724.8267
 Red. masses --      7.3326                 6.0452                10.6866
 Frc consts  --     11.6817                10.0046                18.7318
 IR Inten    --      7.2197                86.3963               258.0603

                     91                     92                     93
                      A                      A                      A
 Frequencies --   3023.5680              3033.2759              3042.0530
 Red. masses --      1.0351                 1.0671                 1.0681
 Frc consts  --      5.5752                 5.7848                 5.8235
 IR Inten    --     49.1111                 7.8936                37.3247

                     94                     95                     96
                      A                      A                      A
 Frequencies --   3045.3014              3049.8870              3056.6548
 Red. masses --      1.0376                 1.0403                 1.0383
 Frc consts  --      5.6692                 5.7013                 5.7158
 IR Inten    --     25.5567                33.1342                16.5224

                     97                     98                     99
                      A                      A                      A
 Frequencies --   3061.3672              3079.8090              3081.4139
 Red. masses --      1.0838                 1.0977                 1.1065
 Frc consts  --      5.9844                 6.1346                 6.1903
 IR Inten    --     30.9440                28.6590                43.0329

                    100                    101                    102
                      A                      A                      A
 Frequencies --   3105.2263              3106.4523              3121.1537
 Red. masses --      1.0965                 1.1001                 1.1010
 Frc consts  --      6.2292                 6.2550                 6.3194
 IR Inten    --     44.1078                 9.0605                31.6534

                    103                    104                    105
                      A                      A                      A
 Frequencies --   3131.3040              3132.9978              3145.3554
 Red. masses --      1.1025                 1.1026                 1.0884
 Frc consts  --      6.3688                 6.3765                 6.3444
 IR Inten    --     16.8526                34.1688                21.2914

                    106                    107                    108
                      A                      A                      A
 Frequencies --   3150.6554              3159.5367              3161.8203
 Red. masses --      1.0885                 1.0994                 1.1008
 Frc consts  --      6.3664                 6.4664                 6.4836
 IR Inten    --     12.5905                29.8954                12.7782

                    109                    110                    111
                      A                      A                      A
 Frequencies --   3185.3730              3217.2496              3217.9211
 Red. masses --      1.0889                 1.0893                 1.0930
 Frc consts  --      6.5096                 6.6432                 6.6683
 IR Inten    --     15.1498                 9.3853                 9.9242

 - Thermochemistry -
 -------------------
 Temperature   298.150 Kelvin.  Pressure   1.00000 Atm.
 Atom     1 has atomic number  6 and mass  12.00000

 Molecular mass:   247.15723 amu.
 Principal axes and moments of inertia in atomic units:
                           1         2         3
     Eigenvalues --  3038.332175692.606947729.71744
           X            0.99997   0.00236  -0.00671
           Y           -0.00240   0.99998  -0.00496
           Z            0.00670   0.00498   0.99997
 This molecule is an asymmetric top.
 Rotational symmetry number  1.
 Warning -- assumption of classical behavior for rotation
           may cause significant error
 Rotational temperatures (Kelvin)      0.02851     0.01522     0.01121
 Rotational constants (GHZ):           0.59399     0.31703     0.23348
 Zero-point vibrational energy     893188.5 (Joules/Mol)
                                  213.47717 (Kcal/Mol)
 Warning -- explicit consideration of  28 degrees of freedom as
           vibrations may cause significant error
 Vibrational temperatures:     49.92    57.21    62.89    82.66   129.85
          (Kelvin)            203.04   211.37   270.62   290.82   322.61
                              338.86   357.76   364.58   384.69   408.82
                              453.10   478.08   521.31   540.77   569.39
                              629.53   653.61   666.20   690.48   735.47
                              777.59   801.40   816.06   930.28   938.55
                             1025.75  1069.55  1071.09  1125.08  1162.85
                             1208.04  1224.14  1253.96  1294.32  1338.38
                             1358.03  1373.83  1378.38  1384.40  1404.10
                             1449.06  1509.24  1558.43  1573.65  1580.39
                             1628.90  1649.32  1668.76  1707.70  1722.99
                             1742.57  1752.14  1765.49  1782.53  1796.10
                             1868.41  1887.57  1904.29  1925.33  1938.34
                             1945.96  1985.79  1992.82  2018.13  2035.47
                             2054.40  2055.01  2080.66  2100.27  2129.63
                             2167.28  2175.59  2179.12  2188.32  2189.98
                             2193.99  2202.17  2209.03  2210.34  2215.32
                             2231.15  2247.70  2365.88  2411.36  2481.64
                             4350.24  4364.21  4376.84  4381.51  4388.11
                             4397.84  4404.62  4431.16  4433.47  4467.73
                             4469.49  4490.64  4505.25  4507.69  4525.46
                             4533.09  4545.87  4549.15  4583.04  4628.90
                             4629.87

 Zero-point correction=                           0.340198 (Hartree/Particle)
 Thermal correction to Energy=                    0.357840
 Thermal correction to Enthalpy=                  0.358784
 Thermal correction to Gibbs Free Energy=         0.294394
 Sum of electronic and zero-point Energies=           -789.191379
 Sum of electronic and thermal Energies=              -789.173736
 Sum of electronic and thermal Enthalpies=            -789.172792
 Sum of electronic and thermal Free Energies=         -789.237182

                     E (Thermal)             CV                S
                      KCal/Mol        Cal/Mol-Kelvin    Cal/Mol-Kelvin
 Total                  224.548             68.201            135.521
 Electronic               0.000              0.000              0.000
 Translational            0.889              2.981             42.415
 Rotational               0.889              2.981             33.258
 Vibrational            222.771             62.239             59.848
 Vibration     1          0.594              1.983              5.541
 Vibration     2          0.594              1.981              5.271
 Vibration     3          0.595              1.980              5.083
 Vibration     4          0.596              1.975              4.543
 Vibration     5          0.602              1.956              3.655
 Vibration     6          0.615              1.912              2.789
 Vibration     7          0.617              1.906              2.712
 Vibration     8          0.633              1.856              2.247
 Vibration     9          0.639              1.837              2.114
 Vibration    10          0.649              1.804              1.925
 Vibration    11          0.655              1.786              1.836
 Vibration    12          0.662              1.765              1.740
 Vibration    13          0.665              1.757              1.707
 Vibration    14          0.672              1.733              1.613
 Vibration    15          0.683              1.703              1.509
 Vibration    16          0.702              1.645              1.336
 Vibration    17          0.714              1.611              1.249
 Vibration    18          0.736              1.550              1.112
 Vibration    19          0.747              1.522              1.056
 Vibration    20          0.762              1.479              0.978
 Vibration    21          0.798              1.388              0.834
 Vibration    22          0.813              1.351              0.783
 Vibration    23          0.821              1.332              0.757
 Vibration    24          0.836              1.295              0.710
 Vibration    25          0.866              1.225              0.631
 Vibration    26          0.896              1.161              0.564
 Vibration    27          0.913              1.124              0.530
 Vibration    28          0.923              1.102              0.510

 Optimization completed.
    -- Stationary point found.
 Normal termination of Gaussian 16 at Fri Dec 11 22:32:09 2020.

 ----------------------------------------------------------------------
 # B3LYP/6-311++G(d,p) empiricaldispersion=gd3bj scf=xqc pop=npa geom=c
 heck
 ----------------------------------------------------------------------

 --------------------------------------
 CID_24956774_JID_8764_Energie_neutraal
 --------------------------------------
 Structure from the checkpoint file:  "JID_8764.chk"
 Charge =  0 Multiplicity = 1

 SCF Done:  E(RB3LYP) =  -789.745455334     A.U. after   15 cycles
 Normal termination of Gaussian 16 at Fri Dec 11 22:39:25 2020.

 ----------------------------------------------------------------------
 # B3LYP/6-311++G(d,p) empiricaldispersion=gd3bj scf=xqc pop=npa geom=c
 heck
 ----------------------------------------------------------------------

 ------------------------------------
 CID_24956774_JID_8764_Energie_kation
 ------------------------------------
 Structure from the checkpoint file:  "JID_8764.chk"
 Charge =  1 Multiplicity = 2

 SCF Done:  E(UB3LYP) =  -789.458167839     A.U. after   30 cycles
 Normal termination of Gaussian 16 at Fri Dec 11 22:58:37 2020.
 Gaussian 16:  ES64L-G16RevA.03 25-Dec-2016

 ----------------------------------------------------------------------
 # B3LYP/6-311++G(d,p) empiricaldispersion=gd3bj scf=xqc pop=npa geom=c
 heck
 ----------------------------------------------------------------------

 -----------------------------------
 CID_24956774_JID_8764_Energie_anion
 -----------------------------------
 Structure from the checkpoint file:  "JID_8764.chk"
 Charge = -1 Multiplicity = 2

                         Standard orientation:
 ---------------------------------------------------------------------
 Center     Atomic      Atomic             Coordinates (Angstroms)
 Number     Number       Type             X           Y           Z
 ---------------------------------------------------------------------
      1          6           0        1.267999   -2.584040    1.379855
      2          6           0        1.694968   -2.040308    0.002267
      3          6           0        0.560747   -2.223957   -1.029014
      4          6           0       -0.691601   -1.463583   -0.682245
      5          6           0       -0.653768   -0.065677   -0.709367
      6          6           0        0.625831    0.602195   -1.144655
      7          7           0        1.717833    0.515978   -0.164517
      8          6           0        2.319234   -0.650329    0.247702
      9          8           0        3.356778   -0.629489    0.910545
     10          6           0        2.333097    1.786608    0.271956
     11          6           0        3.076110    2.477769   -0.875547
     12          6           0        1.304710    2.700613    0.946249
     13          6           0       -1.771837    0.689951   -0.346107
     14          6           0       -2.947415    0.046563    0.055008
     15          6           0       -2.994751   -1.352820    0.083213
     16          6           0       -1.875291   -2.091729   -0.280406
     17          8           0       -4.090799    0.689973    0.432601
     18          6           0       -4.083143    2.107044    0.435431
     19          1           0        0.943487   -3.627184    1.290908
     20          1           0        0.431906   -2.004618    1.785140
     21          1           0        2.104284   -2.530229    2.079277
     22          1           0        2.546670   -2.640636   -0.338984
     23          1           0        0.338689   -3.296251   -1.078792
     24          1           0        0.919502   -1.942734   -2.028116
     25          1           0        0.439085    1.661812   -1.318054
     26          1           0        0.956339    0.192459   -2.107420
     27          1           0        3.067661    1.483945    1.017990
     28          1           0        2.396418    2.781116   -1.681384
     29          1           0        3.579506    3.380705   -0.512182
     30          1           0        3.833153    1.808311   -1.295520
     31          1           0        0.766164    2.161870    1.732023
     32          1           0        1.814924    3.557416    1.399664
     33          1           0        0.568125    3.100898    0.239072
     34          1           0       -1.710749    1.771896   -0.376714
     35          1           0       -3.915219   -1.835195    0.395306
     36          1           0       -1.919752   -3.177453   -0.250013
     37          1           0       -3.325196    2.504539    1.123546
     38          1           0       -3.902478    2.511475   -0.569515
     39          1           0       -5.074521    2.412347    0.774168
 ---------------------------------------------------------------------

 SCF Done:  E(UB3LYP) =  -789.735284274     A.U. after   33 cycles
 SCF Done:  E(UB3LYP) =  -789.735284274     a.u. after    1 cycles

 The electronic state is 2-A.
 Alpha  occ. eigenvalues --  -19.06181 -18.98932 -14.24818 -10.17718 -10.14361
 Alpha  occ. eigenvalues --  -10.12533 -10.11929 -10.11318 -10.09928 -10.09193
 Alpha  occ. eigenvalues --  -10.08897 -10.08659 -10.08522 -10.08140 -10.08134
 Alpha  occ. eigenvalues --  -10.07415 -10.06980 -10.06828  -0.97787  -0.94367
 Alpha  occ. eigenvalues --   -0.84361  -0.77497  -0.72355  -0.69395  -0.67897
 Alpha  occ. eigenvalues --   -0.66289  -0.62266  -0.61219  -0.59936  -0.57718
 Alpha  occ. eigenvalues --   -0.55164  -0.51987  -0.50559  -0.48381  -0.45316
 Alpha  occ. eigenvalues --   -0.43072  -0.41182  -0.40179  -0.38941  -0.37849
 Alpha  occ. eigenvalues --   -0.37571  -0.37022  -0.35809  -0.35314  -0.34940
 Alpha  occ. eigenvalues --   -0.33589  -0.32743  -0.32428  -0.31750  -0.30773
 Alpha  occ. eigenvalues --   -0.29704  -0.29599  -0.29044  -0.28752  -0.28264
 Alpha  occ. eigenvalues --   -0.27126  -0.26281  -0.26059  -0.25452  -0.24694
 Alpha  occ. eigenvalues --   -0.24147  -0.23479  -0.22386  -0.16770  -0.16122
 Alpha  occ. eigenvalues --   -0.14987  -0.13043   0.04020
 Alpha virt. eigenvalues --    0.05816   0.06377   0.06960   0.07430   0.07915
 Alpha virt. eigenvalues --    0.08246   0.08560   0.08616   0.09134   0.10040
 Alpha virt. eigenvalues --    0.10230   0.10555   0.10685   0.11453   0.11744

  Beta  occ. eigenvalues --  -19.06171 -18.98927 -14.24819 -10.17716 -10.14362
  Beta  occ. eigenvalues --  -10.12480 -10.11903 -10.11314 -10.09924 -10.09187
  Beta  occ. eigenvalues --  -10.08881 -10.08639 -10.08522 -10.08131 -10.08105
  Beta  occ. eigenvalues --  -10.07410 -10.06954 -10.06797  -0.97765  -0.94361
  Beta  occ. eigenvalues --   -0.84352  -0.77475  -0.72336  -0.69366  -0.67871
  Beta  occ. eigenvalues --   -0.66258  -0.62210  -0.61184  -0.59883  -0.57677
  Beta  occ. eigenvalues --   -0.55136  -0.51932  -0.50524  -0.48353  -0.45282
  Beta  occ. eigenvalues --   -0.43031  -0.41148  -0.40159  -0.38914  -0.37817
  Beta  occ. eigenvalues --   -0.37534  -0.36986  -0.35786  -0.35279  -0.34919
  Beta  occ. eigenvalues --   -0.33558  -0.32717  -0.32394  -0.31723  -0.30741
  Beta  occ. eigenvalues --   -0.29677  -0.29569  -0.29017  -0.28716  -0.28245
  Beta  occ. eigenvalues --   -0.27103  -0.26246  -0.26037  -0.25435  -0.24659
  Beta  occ. eigenvalues --   -0.24113  -0.23458  -0.22343  -0.16687  -0.16110
  Beta  occ. eigenvalues --   -0.14972  -0.13001
  Beta virt. eigenvalues --    0.05973   0.06660   0.06930   0.07210   0.07750
  Beta virt. eigenvalues --    0.08083   0.08647   0.08761   0.09156   0.09290
  Beta virt. eigenvalues --    0.10364   0.10530   0.10682   0.10996   0.11709

 Mulliken charges and spin densities:
               1          2
     1  C   -0.492527  -0.156703
     2  C    0.272524   0.303146
     3  C    0.715911  -1.394878
     4  C   -0.090147   0.625434
     5  C    0.345742   0.201259
     6  C    0.566864  -0.864699
     7  N    0.218518   0.030416
     8  C   -0.205921  -0.331040
     9  O   -0.316236   0.005007
    10  C   -1.602089   1.609321
    11  C    0.638063  -1.106682
    12  C    0.780992  -1.390539
    13  C    0.195993   0.152395
    14  C   -0.932575   0.076899
    15  C   -0.185697  -0.252096
    16  C   -0.328483  -0.065437
    17  O   -0.213394   0.063813
    18  C    0.853441  -1.206200
    19  H    0.073777   0.065514
    20  H    0.143817   0.011909
    21  H    0.164630   0.001363
    22  H    0.130032   0.093958
    23  H   -0.004763   0.182133
    24  H   -0.137977   0.294860
    25  H   -0.224130   0.417934
    26  H   -0.031138   0.231329
    27  H    0.170540   0.039861
    28  H   -0.193416   0.342788
    29  H   -0.113688   0.260297
    30  H    0.040415   0.124101
    31  H    0.060661   0.099065
    32  H   -0.134728   0.281831
    33  H   -0.377502   0.546184
    34  H    0.492599  -0.396876
    35  H    0.060388   0.117742
    36  H   -0.084067   0.225159
    37  H   -0.196071   0.356099
    38  H   -0.560993   0.730279
    39  H   -0.499363   0.675054
 Sum of Mulliken charges =  -1.00000   1.00000

 Dipole moment (field-independent basis, Debye):
    X=              2.1565    Y=             -6.4708    Z=              1.1100  Tot=              6.9104
 Quadrupole moment (field-independent basis, Debye-Ang):
   XX=           -189.8059   YY=           -170.4389   ZZ=           -145.8213
   XY=             14.7643   XZ=             -0.9947   YZ=              1.5031

 Summary of Natural Population Analysis:

                                       Natural Population
                Natural  -----------------------------------------------
    Atom  No    Charge         Core      Valence    Rydberg      Total
 -----------------------------------------------------------------------
      C    1   -0.28246      0.99965     2.27820    0.00461     3.28246
      C    2   -0.14119      0.99957     2.13122    0.01040     3.14119
      C    3   -0.19901      0.99959     2.18944    0.00998     3.19901
      C    4   -0.03072      0.99946     2.01980    0.01146     3.03072
      C    5   -0.00988      0.99946     1.99999    0.01043     3.00988
      C    6   -0.09591      0.99956     2.08411    0.01224     3.09591
      N    7   -0.25532      0.99962     2.74410    0.01159     3.75532
      C    8    0.35397      0.99960     1.62317    0.02326     2.64603
      O    9   -0.33583      0.99988     3.33110    0.00485     4.33583
      C   10   -0.01234      0.99958     2.00139    0.01137     3.01234
      C   11   -0.28995      0.99964     2.28511    0.00520     3.28995
      C   12   -0.28960      0.99964     2.28434    0.00561     3.28960
      C   13   -0.13381      0.99947     2.12576    0.00858     3.13381
      C   14    0.16335      0.99938     1.82362    0.01365     2.83665
      C   15   -0.11755      0.99952     2.10880    0.00922     3.11755
      C   16   -0.08768      0.99951     2.07987    0.00829     3.08768
      O   17   -0.27313      0.99986     3.26354    0.00974     4.27313
      C   18   -0.10104      0.99960     2.09230    0.00914     3.10104
      H   19    0.09507      0.00000     0.40411    0.00082     0.40493
      H   20    0.10233      0.00000     0.39674    0.00093     0.39767
      H   21    0.10889      0.00000     0.39022    0.00088     0.39111
      H   22    0.10649      0.00000     0.39186    0.00166     0.39351
      H   23    0.10325      0.00000     0.39570    0.00106     0.39675
      H   24    0.10576      0.00000     0.39289    0.00135     0.39424
      H   25    0.11002      0.00000     0.38799    0.00199     0.38998
      H   26    0.10161      0.00000     0.39691    0.00148     0.39839
      H   27    0.11541      0.00000     0.38261    0.00197     0.38459
      H   28    0.09882      0.00000     0.39997    0.00120     0.40118
      H   29    0.10088      0.00000     0.39838    0.00075     0.39912
      H   30    0.10296      0.00000     0.39617    0.00088     0.39704
      H   31    0.10381      0.00000     0.39509    0.00110     0.39619
      H   32    0.10223      0.00000     0.39696    0.00081     0.39777
      H   33    0.09895      0.00000     0.39940    0.00164     0.40105
      H   34    0.10997      0.00000     0.38795    0.00208     0.39003
      H   35    0.10477      0.00000     0.39418    0.00105     0.39523
      H   36    0.09851      0.00000     0.40056    0.00094     0.40149
      H   37    0.08639      0.00000     0.41171    0.00190     0.41361
      H   38    0.08794      0.00000     0.40980    0.00226     0.41206
      H   39    0.09404      0.00000     0.40458    0.00138     0.40596
 =======================================================================
   * Total *   -0.00000     17.99259    48.79966    0.20775    67.00000

 Normal termination of Gaussian 16 at Fri Dec 11 23:19:53 2020.
