 Gaussian 16, Revision A.03,

 -----------------------------------------------------------
 # opt freq B3LYP/6-31G(d) empiricaldispersion=gd3bj scf=xqc
 -----------------------------------------------------------

 -------------------------------
 CID_131216287_JID_1278_neutraal
 -------------------------------
 Symbolic Z-matrix:
 Charge =  0 Multiplicity = 1

 SCF Done:  E(RB3LYP) =  -840.835376667     A.U. after   15 cycles
 SCF Done:  E(RB3LYP) =  -840.837322515     A.U. after   12 cycles
 SCF Done:  E(RB3LYP) =  -840.835042430     A.U. after   14 cycles
 SCF Done:  E(RB3LYP) =  -840.837334688     A.U. after   12 cycles
 SCF Done:  E(RB3LYP) =  -840.838156633     A.U. after   12 cycles
 SCF Done:  E(RB3LYP) =  -840.838510654     A.U. after   13 cycles
 SCF Done:  E(RB3LYP) =  -840.838755015     A.U. after   12 cycles
 SCF Done:  E(RB3LYP) =  -840.838837156     A.U. after   12 cycles
 SCF Done:  E(RB3LYP) =  -840.838912349     A.U. after   11 cycles
 SCF Done:  E(RB3LYP) =  -840.838935475     A.U. after   11 cycles
 SCF Done:  E(RB3LYP) =  -840.838938503     A.U. after   10 cycles
 SCF Done:  E(RB3LYP) =  -840.838941040     A.U. after   10 cycles
 SCF Done:  E(RB3LYP) =  -840.838941459     A.U. after    8 cycles
 SCF Done:  E(RB3LYP) =  -840.838941542     A.U. after    8 cycles
 SCF Done:  E(RB3LYP) =  -840.838941583     A.U. after    7 cycles
 Optimization completed.
    -- Stationary point found.
 Normal termination of Gaussian 16 at Tue Dec  8 19:37:47 2020.

 --------------------------------------------------------------------
 #N Geom=AllCheck Guess=TCheck SCRF=Check GenChk RB3LYP/6-31G(d) Freq
 --------------------------------------------------------------------

 Structure from the checkpoint file:  "JID_1278.chk"
 -------------------------------
 CID_131216287_JID_1278_neutraal
 -------------------------------
 Charge =  0 Multiplicity = 1

 SCF Done:  E(RB3LYP) =  -840.838941583     A.U. after    1 cycles

  Exact polarizability: 121.090  -2.229 108.630   7.769  -0.730  86.541
 Approx polarizability: 165.881  -7.611 175.904  14.339   4.058 138.562

                      1                      2                      3
                      A                      A                      A
 Frequencies --     42.1686                52.3072                82.1350
 Red. masses --      4.1854                 4.1558                 2.6172
 Frc consts  --      0.0044                 0.0067                 0.0104
 IR Inten    --      1.9195                 4.6637                 1.6883

                      4                      5                      6
                      A                      A                      A
 Frequencies --    102.3774               130.6313               179.0217
 Red. masses --      2.6484                 4.0453                 4.1223
 Frc consts  --      0.0164                 0.0407                 0.0778
 IR Inten    --      0.2960                 4.8633                 0.4445

                      7                      8                      9
                      A                      A                      A
 Frequencies --    222.1866               251.2624               268.9599
 Red. masses --      1.0707                 1.7237                 2.1329
 Frc consts  --      0.0311                 0.0641                 0.0909
 IR Inten    --      0.0286                 0.1605                 1.0259

                     10                     11                     12
                      A                      A                      A
 Frequencies --    325.5867               336.1804               340.9332
 Red. masses --      2.9706                 2.0835                 3.9124
 Frc consts  --      0.1855                 0.1387                 0.2679
 IR Inten    --      0.3703                 2.4332                 1.2373

                     13                     14                     15
                      A                      A                      A
 Frequencies --    380.1107               462.2378               614.8508
 Red. masses --      3.2661                 2.7648                 5.3515
 Frc consts  --      0.2780                 0.3481                 1.1920
 IR Inten    --      0.5513                 1.8772                 2.9486

                     16                     17                     18
                      A                      A                      A
 Frequencies --    639.8451               662.5069               733.6250
 Red. masses --      5.6807                 3.3652                 4.9616
 Frc consts  --      1.3703                 0.8702                 1.5733
 IR Inten    --      1.8837                 4.6009                 3.4464

                     19                     20                     21
                      A                      A                      A
 Frequencies --    745.3251               801.7965               807.7064
 Red. masses --      4.2756                 1.2487                 1.3081
 Frc consts  --      1.3994                 0.4730                 0.5028
 IR Inten    --      3.0119                 3.2886                28.0802

                     22                     23                     24
                      A                      A                      A
 Frequencies --    856.0348               879.2384               909.4229
 Red. masses --      2.0440                 2.0360                 1.3173
 Frc consts  --      0.8825                 0.9274                 0.6419
 IR Inten    --      1.6032                 3.5494                 3.3090

                     25                     26                     27
                      A                      A                      A
 Frequencies --    927.9005               946.0462               977.3983
 Red. masses --      4.2215                 7.6861                 1.5600
 Frc consts  --      2.1415                 4.0530                 0.8780
 IR Inten    --     16.6882                 8.7708                 4.5408

                     28                     29                     30
                      A                      A                      A
 Frequencies --    997.5030              1020.4464              1041.1547
 Red. masses --      1.3092                 5.3204                 2.2856
 Frc consts  --      0.7675                 3.2642                 1.4598
 IR Inten    --      1.1919                 7.4947                 3.2877

                     31                     32                     33
                      A                      A                      A
 Frequencies --   1062.1851              1094.5196              1151.4394
 Red. masses --      1.4238                 1.5608                 1.9849
 Frc consts  --      0.9464                 1.1017                 1.5505
 IR Inten    --      3.5729                 9.4982                 1.4782

                     34                     35                     36
                      A                      A                      A
 Frequencies --   1161.8261              1197.9457              1222.7783
 Red. masses --      1.4757                 1.8864                 1.5875
 Frc consts  --      1.1737                 1.5950                 1.3984
 IR Inten    --     21.9825                 3.8559                10.2643

                     37                     38                     39
                      A                      A                      A
 Frequencies --   1267.9902              1294.4848              1309.8209
 Red. masses --      1.3929                 1.5408                 1.6900
 Frc consts  --      1.3195                 1.5212                 1.7082
 IR Inten    --      7.3731                13.7686                 8.9054

                     40                     41                     42
                      A                      A                      A
 Frequencies --   1321.3280              1362.5063              1395.2287
 Red. masses --      1.2062                 1.2517                 2.7165
 Frc consts  --      1.2407                 1.3690                 3.1156
 IR Inten    --      2.4880                 2.1906                 4.1665

                     43                     44                     45
                      A                      A                      A
 Frequencies --   1397.1155              1437.5339              1444.2006
 Red. masses --      1.4512                 1.2430                 1.2165
 Frc consts  --      1.6689                 1.5135                 1.4949
 IR Inten    --      0.6130                 1.1537                 3.0208

                     46                     47                     48
                      A                      A                      A
 Frequencies --   1485.9465              1518.2295              1521.6346
 Red. masses --      1.1560                 1.0534                 4.6963
 Frc consts  --      1.5038                 1.4306                 6.4065
 IR Inten    --     11.6006                 5.3818                36.9774

                     49                     50                     51
                      A                      A                      A
 Frequencies --   1525.8637              1534.4196              1536.2732
 Red. masses --      1.0444                 1.0488                 1.0616
 Frc consts  --      1.4327                 1.4549                 1.4762
 IR Inten    --      6.0946                 2.1373                 5.2540

                     52                     53                     54
                      A                      A                      A
 Frequencies --   1541.1880              1646.1570              3041.8871
 Red. masses --      1.0613                 6.4155                 1.0832
 Frc consts  --      1.4852                10.2429                 5.9055
 IR Inten    --      1.6750                26.9478                 6.6566

                     55                     56                     57
                      A                      A                      A
 Frequencies --   3048.9915              3056.0167              3063.4301
 Red. masses --      1.0378                 1.0611                 1.0405
 Frc consts  --      5.6843                 5.8385                 5.7533
 IR Inten    --     23.5784                21.0489                25.3248

                     58                     59                     60
                      A                      A                      A
 Frequencies --   3091.9624              3097.3278              3116.6026
 Red. masses --      1.0671                 1.0929                 1.1015
 Frc consts  --      6.0104                 6.1771                 6.3035
 IR Inten    --      7.0832                 2.9151                33.5243

                     61                     62                     63
                      A                      A                      A
 Frequencies --   3125.8507              3131.7032              3145.6495
 Red. masses --      1.0990                 1.1004                 1.1059
 Frc consts  --      6.3267                 6.3583                 6.4476
 IR Inten    --     40.2662                20.1483                 2.0567

                     64                     65                     66
                      A                      A                      A
 Frequencies --   3158.0382              3258.6431              3297.5666
 Red. masses --      1.1024                 1.0949                 1.1003
 Frc consts  --      6.4778                 6.8499                 7.0492
 IR Inten    --     12.3233                 4.5340                 0.0876

 - Thermochemistry -
 -------------------
 Temperature   298.150 Kelvin.  Pressure   1.00000 Atm.
 Atom     1 has atomic number  6 and mass  12.00000

 Molecular mass:   171.07179 amu.
 Principal axes and moments of inertia in atomic units:
                           1         2         3
     Eigenvalues --  1291.322822657.171993222.73060
           X            0.99822   0.05877   0.01059
           Y           -0.05843   0.99783  -0.03046
           Z           -0.01236   0.02979   0.99948
 This molecule is an asymmetric top.
 Rotational symmetry number  1.
 Warning -- assumption of classical behavior for rotation
           may cause significant error
 Rotational temperatures (Kelvin)      0.06707     0.03260     0.02688
 Rotational constants (GHZ):           1.39759     0.67920     0.56000
 Zero-point vibrational energy     531149.0 (Joules/Mol)
                                  126.94767 (Kcal/Mol)
 Warning -- explicit consideration of  15 degrees of freedom as
           vibrations may cause significant error
 Vibrational temperatures:     60.67    75.26   118.17   147.30   187.95
          (Kelvin)            257.57   319.68   361.51   386.97   468.45
                              483.69   490.53   546.89   665.06   884.63
                              920.59   953.20  1055.52  1072.36  1153.61
                             1162.11  1231.64  1265.03  1308.46  1335.04
                             1361.15  1406.26  1435.18  1468.19  1497.99
                             1528.25  1574.77  1656.66  1671.61  1723.58
                             1759.31  1824.36  1862.47  1884.54  1901.10
                             1960.34  2007.42  2010.14  2068.29  2077.88
                             2137.95  2184.39  2189.29  2195.38  2207.69
                             2210.35  2217.43  2368.45  4376.60  4386.82
                             4396.93  4407.59  4448.64  4456.36  4484.10
                             4497.40  4505.82  4525.89  4543.71  4688.46
                             4744.46

 Zero-point correction=                           0.202304 (Hartree/Particle)
 Thermal correction to Energy=                    0.214204
 Thermal correction to Enthalpy=                  0.215148
 Thermal correction to Gibbs Free Energy=         0.163342
 Sum of electronic and zero-point Energies=           -840.636638
 Sum of electronic and thermal Energies=              -840.624738
 Sum of electronic and thermal Enthalpies=            -840.623793
 Sum of electronic and thermal Free Energies=         -840.675600

                     E (Thermal)             CV                S
                      KCal/Mol        Cal/Mol-Kelvin    Cal/Mol-Kelvin
 Total                  134.415             43.298            109.036
 Electronic               0.000              0.000              0.000
 Translational            0.889              2.981             41.318
 Rotational               0.889              2.981             30.781
 Vibrational            132.638             37.336             36.936
 Vibration     1          0.595              1.980              5.155
 Vibration     2          0.596              1.977              4.728
 Vibration     3          0.600              1.961              3.839
 Vibration     4          0.604              1.947              3.409
 Vibration     5          0.612              1.923              2.937
 Vibration     6          0.629              1.868              2.339
 Vibration     7          0.648              1.807              1.941
 Vibration     8          0.663              1.761              1.722
 Vibration     9          0.673              1.730              1.603
 Vibration    10          0.710              1.624              1.282
 Vibration    11          0.717              1.603              1.230
 Vibration    12          0.720              1.594              1.208
 Vibration    13          0.750              1.513              1.039
 Vibration    14          0.820              1.334              0.760
 Vibration    15          0.974              1.000              0.425

 Optimization completed.
    -- Stationary point found.
 Normal termination of Gaussian 16 at Tue Dec  8 19:42:33 2020.

 ----------------------------------------------------------------------
 # B3LYP/6-311++G(d,p) empiricaldispersion=gd3bj scf=xqc pop=npa geom=c
 heck
 ----------------------------------------------------------------------

 ---------------------------------------
 CID_131216287_JID_1278_Energie_neutraal
 ---------------------------------------
 Structure from the checkpoint file:  "JID_1278.chk"
 Charge =  0 Multiplicity = 1

 SCF Done:  E(RB3LYP) =  -840.987505376     A.U. after   14 cycles
 Normal termination of Gaussian 16 at Tue Dec  8 19:44:20 2020.

 ----------------------------------------------------------------------
 # B3LYP/6-311++G(d,p) empiricaldispersion=gd3bj scf=xqc pop=npa geom=c
 heck
 ----------------------------------------------------------------------

 -------------------------------------
 CID_131216287_JID_1278_Energie_kation
 -------------------------------------
 Structure from the checkpoint file:  "JID_1278.chk"
 Charge =  1 Multiplicity = 2

 SCF Done:  E(UB3LYP) =  -840.678728236     A.U. after   21 cycles
 Normal termination of Gaussian 16 at Tue Dec  8 19:48:41 2020.
 Gaussian 16:  ES64L-G16RevA.03 25-Dec-2016

 ----------------------------------------------------------------------
 # B3LYP/6-311++G(d,p) empiricaldispersion=gd3bj scf=xqc pop=npa geom=c
 heck
 ----------------------------------------------------------------------

 ------------------------------------
 CID_131216287_JID_1278_Energie_anion
 ------------------------------------
 Structure from the checkpoint file:  "JID_1278.chk"
 Charge = -1 Multiplicity = 2

                         Standard orientation:
 ---------------------------------------------------------------------
 Center     Atomic      Atomic             Coordinates (Angstroms)
 Number     Number       Type             X           Y           Z
 ---------------------------------------------------------------------
      1          6           0       -3.112599   -1.661045   -0.397656
      2          6           0       -2.130794   -0.517734   -0.679696
      3          6           0       -1.722613    0.250052    0.585650
      4          6           0       -0.967325   -0.606478    1.607353
      5         16           0       -0.853019    1.842887    0.193796
      6          6           0        0.461885    1.355448   -1.005190
      7          6           0        1.481694    0.416537   -0.467313
      8          6           0        2.514000    0.535043    0.417560
      9          6           0        3.022913   -0.786554    0.520565
     10          7           0        2.367361   -1.641145   -0.232587
     11          8           0        1.382891   -0.871455   -0.869710
     12          1           0       -2.660866   -2.441509    0.222819
     13          1           0       -3.433729   -2.129684   -1.334106
     14          1           0       -4.009235   -1.296070    0.118139
     15          1           0       -1.234259   -0.926424   -1.159568
     16          1           0       -2.585112    0.186158   -1.387173
     17          1           0       -2.633926    0.637011    1.061000
     18          1           0       -0.096586   -1.092403    1.159919
     19          1           0       -0.630035   -0.000085    2.452039
     20          1           0       -1.623437   -1.394024    1.995462
     21          1           0        0.014091    0.935825   -1.908689
     22          1           0        0.930369    2.306573   -1.272997
     23          1           0        2.844221    1.424837    0.930947
     24          1           0        3.849200   -1.148359    1.119630
 ---------------------------------------------------------------------

 SCF Done:  E(UB3LYP) =  -840.973180585     A.U. after   33 cycles
 SCF Done:  E(UB3LYP) =  -840.973180585     a.u. after    1 cycles

 The electronic state is 2-A.
 Alpha  occ. eigenvalues --  -88.73053 -19.08884 -14.24157 -10.12436 -10.10562
 Alpha  occ. eigenvalues --  -10.10030 -10.09632 -10.06610 -10.06426 -10.06049
 Alpha  occ. eigenvalues --  -10.05598  -7.81665  -5.78073  -5.77696  -5.77009
 Alpha  occ. eigenvalues --   -1.02719  -0.76002  -0.72375  -0.69715  -0.64894
 Alpha  occ. eigenvalues --   -0.62252  -0.56466  -0.52706  -0.50550  -0.47276
 Alpha  occ. eigenvalues --   -0.45308  -0.40504  -0.37137  -0.35676  -0.35561
 Alpha  occ. eigenvalues --   -0.34239  -0.32676  -0.31446  -0.30250  -0.28910
 Alpha  occ. eigenvalues --   -0.28698  -0.27821  -0.27212  -0.25499  -0.23278
 Alpha  occ. eigenvalues --   -0.22802  -0.20365  -0.19591  -0.19178  -0.15034
 Alpha  occ. eigenvalues --   -0.11956   0.04820
 Alpha virt. eigenvalues --    0.06568   0.07322   0.07826   0.08442   0.09408
 Alpha virt. eigenvalues --    0.09739   0.10328   0.11447   0.11988   0.12533
 Alpha virt. eigenvalues --    0.13376   0.13559   0.13757   0.14209   0.15176

  Beta  occ. eigenvalues --  -88.73035 -19.08737 -14.24005 -10.12268 -10.10560
  Beta  occ. eigenvalues --  -10.10016 -10.09620 -10.06598 -10.06425 -10.06020
  Beta  occ. eigenvalues --  -10.05587  -7.81645  -5.78038  -5.77684  -5.76994
  Beta  occ. eigenvalues --   -1.02462  -0.75779  -0.72301  -0.69555  -0.64809
  Beta  occ. eigenvalues --   -0.62200  -0.56391  -0.52617  -0.50465  -0.47090
  Beta  occ. eigenvalues --   -0.45205  -0.40367  -0.36934  -0.35525  -0.35248
  Beta  occ. eigenvalues --   -0.34151  -0.32549  -0.31379  -0.30165  -0.28840
  Beta  occ. eigenvalues --   -0.28669  -0.27711  -0.27155  -0.25399  -0.23250
  Beta  occ. eigenvalues --   -0.22706  -0.20207  -0.19341  -0.18799  -0.14436
  Beta  occ. eigenvalues --   -0.11832
  Beta virt. eigenvalues --    0.07092   0.07729   0.08338   0.08512   0.09052
  Beta virt. eigenvalues --    0.09892   0.10293   0.10710   0.11925   0.12175
  Beta virt. eigenvalues --    0.12732   0.13479   0.13776   0.13983   0.14358

 Mulliken charges and spin densities:
               1          2
     1  C    1.230440  -1.952663
     2  C   -1.296860   0.918620
     3  C    0.714642  -0.275084
     4  C   -0.209939  -0.480347
     5  S    0.181125  -0.216153
     6  C    0.727315  -1.234808
     7  C   -0.403821   0.526453
     8  C    0.053287  -0.250868
     9  C    0.167273  -0.314903
    10  N   -0.246081   0.052491
    11  O    0.130150   0.019348
    12  H    0.036710   0.104858
    13  H   -0.266989   0.402934
    14  H   -0.305235   0.440199
    15  H    0.220958  -0.041429
    16  H   -0.188300   0.347418
    17  H   -0.166309   0.412236
    18  H    0.037383   0.081749
    19  H    0.081408   0.042028
    20  H   -0.024460   0.157990
    21  H   -0.048371   0.234915
    22  H   -0.472628   0.744598
    23  H   -0.615420   0.769288
    24  H   -0.336278   0.511134
 Sum of Mulliken charges =  -1.00000   1.00000

 Dipole moment (field-independent basis, Debye):
    X=              0.0407    Y=             -1.0851    Z=              0.6868  Tot=              1.2848
 Quadrupole moment (field-independent basis, Debye-Ang):
   XX=           -140.8728   YY=           -117.8381   ZZ=           -100.5121
   XY=             -4.2522   XZ=             -1.5474   YZ=             -0.4227

 Summary of Natural Population Analysis:

                                       Natural Population
                Natural  -----------------------------------------------
    Atom  No    Charge         Core      Valence    Rydberg      Total
 -----------------------------------------------------------------------
      C    1   -0.28430      0.99966     2.27920    0.00543     3.28430
      C    2   -0.20118      0.99960     2.19207    0.00951     3.20118
      C    3   -0.16348      0.99957     2.14983    0.01408     3.16348
      C    4   -0.29452      0.99962     2.28773    0.00717     3.29452
      S    5    0.09910      4.99962     2.88536    0.01592     7.90090
      C    6   -0.27685      0.99952     2.26507    0.01225     3.27685
      C    7    0.18750      0.99949     1.79665    0.01636     2.81250
      C    8   -0.17753      0.99947     2.16915    0.00891     3.17753
      C    9   -0.00903      0.99965     1.99424    0.01514     3.00903
      N   10   -0.07017      0.99972     2.55803    0.01243     3.57017
      O   11   -0.16201      0.99985     3.15343    0.00873     4.16201
      H   12    0.09684      0.00000     0.40216    0.00099     0.40316
      H   13    0.09961      0.00000     0.39954    0.00085     0.40039
      H   14    0.09648      0.00000     0.40218    0.00134     0.40352
      H   15    0.10153      0.00000     0.39639    0.00209     0.39847
      H   16    0.10030      0.00000     0.39817    0.00153     0.39970
      H   17    0.10224      0.00000     0.39625    0.00151     0.39776
      H   18    0.10615      0.00000     0.39219    0.00167     0.39385
      H   19    0.10273      0.00000     0.39606    0.00121     0.39727
      H   20    0.09798      0.00000     0.40104    0.00099     0.40202
      H   21    0.11215      0.00000     0.38610    0.00175     0.38785
      H   22    0.12120      0.00000     0.37582    0.00298     0.37880
      H   23    0.11481      0.00000     0.38348    0.00172     0.38519
      H   24    0.10044      0.00000     0.39847    0.00109     0.39956
 =======================================================================
   * Total *    0.00000     14.99578    30.85860    0.14562    46.00000

 Normal termination of Gaussian 16 at Tue Dec  8 19:54:32 2020.
