 Gaussian 16, Revision A.03,

 -----------------------------------------------------------
 # opt freq B3LYP/6-31G(d) empiricaldispersion=gd3bj scf=xqc
 -----------------------------------------------------------

 -------------------------------
 CID_81243675_JID_10275_neutraal
 -------------------------------
 Symbolic Z-matrix:
 Charge =  0 Multiplicity = 1

 SCF Done:  E(RB3LYP) =  -917.669697243     A.U. after   16 cycles
 SCF Done:  E(RB3LYP) =  -917.677259968     A.U. after   13 cycles
 SCF Done:  E(RB3LYP) =  -917.678742698     A.U. after   13 cycles
 SCF Done:  E(RB3LYP) =  -917.679704419     A.U. after   12 cycles
 SCF Done:  E(RB3LYP) =  -917.680110287     A.U. after   12 cycles
 SCF Done:  E(RB3LYP) =  -917.680458877     A.U. after   13 cycles
 SCF Done:  E(RB3LYP) =  -917.680543099     A.U. after   11 cycles
 SCF Done:  E(RB3LYP) =  -917.680611354     A.U. after   11 cycles
 SCF Done:  E(RB3LYP) =  -917.680643784     A.U. after   11 cycles
 SCF Done:  E(RB3LYP) =  -917.680664947     A.U. after   11 cycles
 SCF Done:  E(RB3LYP) =  -917.680808918     A.U. after   12 cycles
 SCF Done:  E(RB3LYP) =  -917.680860938     A.U. after    9 cycles
 SCF Done:  E(RB3LYP) =  -917.680860661     A.U. after   10 cycles
 SCF Done:  E(RB3LYP) =  -917.680868743     A.U. after   10 cycles
 SCF Done:  E(RB3LYP) =  -917.680869066     A.U. after    8 cycles
 SCF Done:  E(RB3LYP) =  -917.680869142     A.U. after    8 cycles
 Optimization completed.
    -- Stationary point found.
 Normal termination of Gaussian 16 at Sun Dec 13 16:58:04 2020.

 --------------------------------------------------------------------
 #N Geom=AllCheck Guess=TCheck SCRF=Check GenChk RB3LYP/6-31G(d) Freq
 --------------------------------------------------------------------

 Structure from the checkpoint file:  "JID_10275.chk"
 -------------------------------
 CID_81243675_JID_10275_neutraal
 -------------------------------
 Charge =  0 Multiplicity = 1

 SCF Done:  E(RB3LYP) =  -917.680869143     A.U. after    1 cycles

  Exact polarizability: 201.257  -1.846 219.622  31.132   0.220 114.581
 Approx polarizability: 271.779  -8.270 391.728  62.581   5.502 185.524

                      1                      2                      3
                      A                      A                      A
 Frequencies --     13.6543                31.1259                58.0647
 Red. masses --      4.4996                 5.2684                 4.7745
 Frc consts  --      0.0005                 0.0030                 0.0095
 IR Inten    --      0.0435                 0.6069                 1.9025

                      4                      5                      6
                      A                      A                      A
 Frequencies --     75.2548               108.0118               127.2007
 Red. masses --      4.5527                 4.0322                 3.8591
 Frc consts  --      0.0152                 0.0277                 0.0368
 IR Inten    --      1.6440                 1.4322                 0.0048

                      7                      8                      9
                      A                      A                      A
 Frequencies --    164.9949               177.2108               205.7657
 Red. masses --      4.0844                 2.9916                 3.0169
 Frc consts  --      0.0655                 0.0554                 0.0753
 IR Inten    --      1.1778                 1.9221                 1.3485

                     10                     11                     12
                      A                      A                      A
 Frequencies --    214.5349               237.9811               278.7826
 Red. masses --      3.7384                 1.2956                 3.5588
 Frc consts  --      0.1014                 0.0432                 0.1630
 IR Inten    --      5.0280                 1.7583                25.4020

                     13                     14                     15
                      A                      A                      A
 Frequencies --    302.9453               318.1709               331.0260
 Red. masses --      3.3626                 2.8872                 3.9556
 Frc consts  --      0.1818                 0.1722                 0.2554
 IR Inten    --      2.5146                11.1649                 0.5935

                     16                     17                     18
                      A                      A                      A
 Frequencies --    359.3064               401.6230               417.3666
 Red. masses --      2.9850                 2.6987                 3.8939
 Frc consts  --      0.2271                 0.2565                 0.3996
 IR Inten    --      2.8285                 9.4709                 9.3848

                     19                     20                     21
                      A                      A                      A
 Frequencies --    435.7832               444.6769               455.1585
 Red. masses --      5.8606                 4.7360                 4.1899
 Frc consts  --      0.6557                 0.5518                 0.5114
 IR Inten    --      1.6369                 9.6786                 2.6914

                     22                     23                     24
                      A                      A                      A
 Frequencies --    485.3867               510.1730               543.8835
 Red. masses --      5.5451                 4.6321                 3.3725
 Frc consts  --      0.7697                 0.7103                 0.5878
 IR Inten    --      3.8994                10.1525                 2.9546

                     25                     26                     27
                      A                      A                      A
 Frequencies --    553.6813               572.7580               632.5108
 Red. masses --      2.4262                 4.4953                 3.3626
 Frc consts  --      0.4382                 0.8689                 0.7926
 IR Inten    --     11.7478                 3.8856                 9.2467

                     28                     29                     30
                      A                      A                      A
 Frequencies --    672.2655               685.9381               711.2721
 Red. masses --      3.5916                 4.2361                 3.4821
 Frc consts  --      0.9564                 1.1743                 1.0379
 IR Inten    --      5.8224                11.7167                23.8981

                     31                     32                     33
                      A                      A                      A
 Frequencies --    727.9613               728.3198               759.4847
 Red. masses --      3.2786                 5.4501                 2.2865
 Frc consts  --      1.0237                 1.7033                 0.7771
 IR Inten    --      1.5167                 4.1027                26.2353

                     34                     35                     36
                      A                      A                      A
 Frequencies --    775.0209               783.2150               819.9183
 Red. masses --      1.8156                 2.4203                 4.1367
 Frc consts  --      0.6425                 0.8748                 1.6385
 IR Inten    --     22.5993                33.5159                 1.1812

                     37                     38                     39
                      A                      A                      A
 Frequencies --    841.9430               859.2296               865.0421
 Red. masses --      2.2401                 1.7602                 1.5251
 Frc consts  --      0.9356                 0.7656                 0.6724
 IR Inten    --      6.5879                55.4815                11.0059

                     40                     41                     42
                      A                      A                      A
 Frequencies --    884.7332               907.8367               925.3008
 Red. masses --      2.5887                 2.4717                 2.0595
 Frc consts  --      1.1939                 1.2002                 1.0389
 IR Inten    --     19.1805                42.6885                 9.6405

                     43                     44                     45
                      A                      A                      A
 Frequencies --    944.6840               947.8643               964.1540
 Red. masses --      1.4934                 2.4485                 1.8687
 Frc consts  --      0.7852                 1.2961                 1.0235
 IR Inten    --      4.0273                18.2762                12.5960

                     46                     47                     48
                      A                      A                      A
 Frequencies --    978.4322              1041.9723              1082.8938
 Red. masses --      1.2646                 2.4604                 2.6243
 Frc consts  --      0.7133                 1.5738                 1.8132
 IR Inten    --      0.4081                 4.0900                13.2556

                     49                     50                     51
                      A                      A                      A
 Frequencies --   1089.5727              1093.3743              1100.7041
 Red. masses --      2.9691                 2.5181                 4.2023
 Frc consts  --      2.0768                 1.7736                 2.9997
 IR Inten    --      8.4969                 4.4618                17.7179

                     52                     53                     54
                      A                      A                      A
 Frequencies --   1126.4697              1141.3383              1153.3054
 Red. masses --      2.5358                 2.3982                 2.6809
 Frc consts  --      1.8958                 1.8406                 2.1010
 IR Inten    --     15.0366                 9.1847                58.6355

                     55                     56                     57
                      A                      A                      A
 Frequencies --   1159.9399              1164.9185              1167.6357
 Red. masses --      5.4329                 1.2937                 2.5447
 Frc consts  --      4.3068                 1.0344                 2.0441
 IR Inten    --     97.3489                 0.3861                13.7550

                     58                     59                     60
                      A                      A                      A
 Frequencies --   1189.3249              1202.3901              1208.1492
 Red. masses --      1.8044                 1.1618                 2.0854
 Frc consts  --      1.5038                 0.9896                 1.7934
 IR Inten    --      6.5630                 5.3514                 3.1069

                     61                     62                     63
                      A                      A                      A
 Frequencies --   1267.6202              1272.1909              1286.8041
 Red. masses --      1.4075                 1.1251                 1.4676
 Frc consts  --      1.3325                 1.0729                 1.4318
 IR Inten    --     44.2497                 9.2163                65.8051

                     64                     65                     66
                      A                      A                      A
 Frequencies --   1297.4675              1307.8278              1332.8138
 Red. masses --      1.9155                 1.1947                 1.2879
 Frc consts  --      1.8999                 1.2039                 1.3479
 IR Inten    --     16.7684                11.0806                29.5107

                     67                     68                     69
                      A                      A                      A
 Frequencies --   1344.9781              1350.9481              1362.3260
 Red. masses --      2.2092                 1.4369                 3.3311
 Frc consts  --      2.3546                 1.5451                 3.6425
 IR Inten    --     47.2007                14.9965                52.6413

                     70                     71                     72
                      A                      A                      A
 Frequencies --   1385.5151              1392.1843              1397.8339
 Red. masses --      1.2242                 4.0440                 1.3867
 Frc consts  --      1.3846                 4.6180                 1.5964
 IR Inten    --      0.5668                 3.1249                 6.5388

                     73                     74                     75
                      A                      A                      A
 Frequencies --   1411.5993              1433.1745              1438.4157
 Red. masses --      1.3748                 1.6772                 1.5821
 Frc consts  --      1.6141                 2.0298                 1.9287
 IR Inten    --     40.5082                60.8512                53.4062

                     76                     77                     78
                      A                      A                      A
 Frequencies --   1443.6192              1461.6065              1503.4472
 Red. masses --      1.7301                 1.2913                 2.5994
 Frc consts  --      2.1243                 1.6254                 3.4618
 IR Inten    --     32.8509                32.1359                19.5758

                     79                     80                     81
                      A                      A                      A
 Frequencies --   1509.0975              1521.0126              1523.8992
 Red. masses --      1.0840                 1.1195                 1.3067
 Frc consts  --      1.4545                 1.5259                 1.7879
 IR Inten    --      0.5426                10.8816                16.9143

                     82                     83                     84
                      A                      A                      A
 Frequencies --   1527.0347              1540.2046              1543.8115
 Red. masses --      1.1849                 1.0689                 1.2757
 Frc consts  --      1.6279                 1.4940                 1.7914
 IR Inten    --     34.0688                11.2061                11.6345

                     85                     86                     87
                      A                      A                      A
 Frequencies --   1554.6462              1571.3645              1619.0841
 Red. masses --      1.2218                 1.6306                 4.5262
 Frc consts  --      1.7399                 2.3722                 6.9907
 IR Inten    --     41.5644                11.0053                39.9964

                     88                     89                     90
                      A                      A                      A
 Frequencies --   1655.8369              1685.4853              1754.3461
 Red. masses --      5.1430                 5.1304                10.0700
 Frc consts  --      8.3080                 8.5873                18.2604
 IR Inten    --     56.0373               134.3995               611.8819

                     91                     92                     93
                      A                      A                      A
 Frequencies --   3003.7469              3011.8406              3042.6041
 Red. masses --      1.0701                 1.0692                 1.0647
 Frc consts  --      5.6883                 5.7145                 5.8074
 IR Inten    --     32.6136                82.8502                43.7973

                     94                     95                     96
                      A                      A                      A
 Frequencies --   3048.3920              3054.8753              3075.5664
 Red. masses --      1.0661                 1.0376                 1.0868
 Frc consts  --      5.8373                 5.7050                 6.0568
 IR Inten    --     23.0862                44.9132                20.3628

                     97                     98                     99
                      A                      A                      A
 Frequencies --   3098.1841              3109.8818              3112.2233
 Red. masses --      1.0981                 1.0959                 1.1058
 Frc consts  --      6.2100                 6.2447                 6.3103
 IR Inten    --     32.0493                33.1432                25.7004

                    100                    101                    102
                      A                      A                      A
 Frequencies --   3119.1333              3122.1339              3192.9736
 Red. masses --      1.0938                 1.1025                 1.0871
 Frc consts  --      6.2698                 6.3321                 6.5297
 IR Inten    --     25.8698                28.3094                 5.4673

                    103                    104                    105
                      A                      A                      A
 Frequencies --   3198.2628              3210.8139              3214.2971
 Red. masses --      1.0974                 1.0930                 1.0911
 Frc consts  --      6.6138                 6.6389                 6.6418
 IR Inten    --      2.2242                22.0096                 5.4912

                    106                    107                    108
                      A                      A                      A
 Frequencies --   3243.6494              3247.1753              3520.2975
 Red. masses --      1.0908                 1.0916                 1.0735
 Frc consts  --      6.7620                 6.7814                 7.8384
 IR Inten    --     13.1655                 5.5583                41.2944

 - Thermochemistry -
 -------------------
 Temperature   298.150 Kelvin.  Pressure   1.00000 Atm.
 Atom     1 has atomic number  6 and mass  12.00000

 Molecular mass:   274.13174 amu.
 Principal axes and moments of inertia in atomic units:
                           1         2         3
     Eigenvalues --  3316.439988184.52625**********
           X            0.99998   0.00258   0.00619
           Y           -0.00247   0.99985  -0.01717
           Z           -0.00623   0.01715   0.99983
 This molecule is an asymmetric top.
 Rotational symmetry number  1.
 Warning -- assumption of classical behavior for rotation
           may cause significant error
 Rotational temperatures (Kelvin)      0.02612     0.01058     0.00863
 Rotational constants (GHZ):           0.54418     0.22051     0.17985
 Zero-point vibrational energy     840280.2 (Joules/Mol)
                                  200.83179 (Kcal/Mol)
 Warning -- explicit consideration of  26 degrees of freedom as
           vibrations may cause significant error
 Vibrational temperatures:     19.65    44.78    83.54   108.27   155.40
          (Kelvin)            183.01   237.39   254.97   296.05   308.67
                              342.40   401.11   435.87   457.78   476.27
                              516.96   577.85   600.50   626.99   639.79
                              654.87   698.36   734.03   782.53   796.62
                              824.07   910.04   967.24   986.91  1023.36
                             1047.37  1047.89  1092.73  1115.08  1126.87
                             1179.68  1211.37  1236.24  1244.60  1272.93
                             1306.17  1331.30  1359.19  1363.77  1387.20
                             1407.75  1499.17  1558.04  1567.65  1573.12
                             1583.67  1620.74  1642.13  1659.35  1668.89
                             1676.06  1679.97  1711.17  1729.97  1738.26
                             1823.82  1830.40  1851.42  1866.77  1881.67
                             1917.62  1935.12  1943.71  1960.08  1993.45
                             2003.04  2011.17  2030.98  2062.02  2069.56
                             2077.05  2102.93  2163.13  2171.25  2188.40
                             2192.55  2197.06  2216.01  2221.20  2236.79
                             2260.84  2329.50  2382.38  2425.04  2524.11
                             4321.72  4333.37  4377.63  4385.96  4395.28
                             4425.05  4457.60  4474.43  4477.80  4487.74
                             4492.05  4593.98  4601.59  4619.65  4624.66
                             4666.89  4671.96  5064.92

 Zero-point correction=                           0.320046 (Hartree/Particle)
 Thermal correction to Energy=                    0.336948
 Thermal correction to Enthalpy=                  0.337892
 Thermal correction to Gibbs Free Energy=         0.273914
 Sum of electronic and zero-point Energies=           -917.360823
 Sum of electronic and thermal Energies=              -917.343921
 Sum of electronic and thermal Enthalpies=            -917.342977
 Sum of electronic and thermal Free Energies=         -917.406955

                     E (Thermal)             CV                S
                      KCal/Mol        Cal/Mol-Kelvin    Cal/Mol-Kelvin
 Total                  211.438             67.024            134.654
 Electronic               0.000              0.000              0.000
 Translational            0.889              2.981             42.724
 Rotational               0.889              2.981             33.965
 Vibrational            209.661             61.062             57.965
 Vibration     1          0.593              1.986              7.392
 Vibration     2          0.594              1.983              5.756
 Vibration     3          0.596              1.974              4.522
 Vibration     4          0.599              1.966              4.011
 Vibration     5          0.606              1.943              3.304
 Vibration     6          0.611              1.926              2.988
 Vibration     7          0.623              1.885              2.492
 Vibration     8          0.628              1.870              2.358
 Vibration     9          0.640              1.832              2.081
 Vibration    10          0.644              1.819              2.005
 Vibration    11          0.656              1.782              1.818
 Vibration    12          0.679              1.713              1.541
 Vibration    13          0.694              1.668              1.401
 Vibration    14          0.705              1.639              1.319
 Vibration    15          0.713              1.614              1.255
 Vibration    16          0.734              1.556              1.125
 Vibration    17          0.767              1.467              0.957
 Vibration    18          0.780              1.433              0.901
 Vibration    19          0.796              1.392              0.840
 Vibration    20          0.804              1.373              0.812
 Vibration    21          0.813              1.349              0.780
 Vibration    22          0.841              1.282              0.696
 Vibration    23          0.865              1.227              0.633
 Vibration    24          0.899              1.153              0.557
 Vibration    25          0.909              1.132              0.537
 Vibration    26          0.929              1.090              0.499

 Optimization completed.
    -- Stationary point found.
 Normal termination of Gaussian 16 at Sun Dec 13 17:17:52 2020.

 ----------------------------------------------------------------------
 # B3LYP/6-311++G(d,p) empiricaldispersion=gd3bj scf=xqc pop=npa geom=c
 heck
 ----------------------------------------------------------------------

 ---------------------------------------
 CID_81243675_JID_10275_Energie_neutraal
 ---------------------------------------
 Structure from the checkpoint file:  "JID_10275.chk"
 Charge =  0 Multiplicity = 1

 SCF Done:  E(RB3LYP) =  -917.933178306     A.U. after   16 cycles
 Normal termination of Gaussian 16 at Sun Dec 13 17:27:14 2020.

 ----------------------------------------------------------------------
 # B3LYP/6-311++G(d,p) empiricaldispersion=gd3bj scf=xqc pop=npa geom=c
 heck
 ----------------------------------------------------------------------

 -------------------------------------
 CID_81243675_JID_10275_Energie_kation
 -------------------------------------
 Structure from the checkpoint file:  "JID_10275.chk"
 Charge =  1 Multiplicity = 2

 SCF Done:  E(UB3LYP) =  -917.651686645     A.U. after   31 cycles
 Normal termination of Gaussian 16 at Sun Dec 13 17:52:46 2020.
 Gaussian 16:  ES64L-G16RevA.03 25-Dec-2016

 ----------------------------------------------------------------------
 # B3LYP/6-311++G(d,p) empiricaldispersion=gd3bj scf=xqc pop=npa geom=c
 heck
 ----------------------------------------------------------------------

 ------------------------------------
 CID_81243675_JID_10275_Energie_anion
 ------------------------------------
 Structure from the checkpoint file:  "JID_10275.chk"
 Charge = -1 Multiplicity = 2

                         Standard orientation:
 ---------------------------------------------------------------------
 Center     Atomic      Atomic             Coordinates (Angstroms)
 Number     Number       Type             X           Y           Z
 ---------------------------------------------------------------------
      1          6           0        3.981441   -1.588263    0.887045
      2          7           0        2.771325   -1.080019    0.251336
      3          6           0        2.527189    0.283593    0.201970
      4          6           0        3.449624    1.202084    0.742480
      5          6           0        3.233726    2.568235    0.634386
      6          6           0        2.104549    3.063227   -0.027444
      7          6           0        1.180759    2.170710   -0.547190
      8          6           0        1.347733    0.780674   -0.418017
      9          6           0        0.387081   -0.175682   -0.939708
     10          6           0        0.693984   -1.505622   -0.910659
     11          6           0        1.908400   -2.035378   -0.334696
     12          8           0        2.178452   -3.235683   -0.298636
     13          7           0       -0.812520    0.270313   -1.499477
     14          6           0       -1.732139    1.071142   -0.677530
     15          6           0       -3.165538    0.524407   -0.808214
     16          6           0       -4.073585    1.078821    0.289834
     17          8           0       -3.701526    0.559743    1.559302
     18          6           0       -3.792517   -0.862506    1.559851
     19          6           0       -2.882373   -1.454858    0.493625
     20          8           0       -3.198897   -0.907157   -0.791579
     21          1           0        4.875743   -1.204774    0.384128
     22          1           0        4.013057   -1.300973    1.943305
     23          1           0        3.949232   -2.672457    0.799973
     24          1           0        4.343835    0.844698    1.235977
     25          1           0        3.963036    3.254171    1.055819
     26          1           0        1.955734    4.132383   -0.140280
     27          1           0        0.320452    2.541889   -1.089022
     28          1           0        0.002752   -2.249694   -1.292308
     29          1           0       -1.325275   -0.525253   -1.870754
     30          1           0       -1.426149    1.062277    0.373819
     31          1           0       -1.752873    2.119761   -0.999558
     32          1           0       -3.566858    0.792546   -1.791961
     33          1           0       -5.118862    0.816104    0.063821
     34          1           0       -3.990271    2.168008    0.358248
     35          1           0       -3.496853   -1.196486    2.558606
     36          1           0       -4.834122   -1.170060    1.373574
     37          1           0       -3.029216   -2.534962    0.403920
     38          1           0       -1.829235   -1.267956    0.742595
 ---------------------------------------------------------------------

 SCF Done:  E(UB3LYP) =  -917.937884202     A.U. after   31 cycles

 The electronic state is 2-A.
 Alpha  occ. eigenvalues --  -19.04758 -19.04360 -18.94268 -14.22677 -14.19850
 Alpha  occ. eigenvalues --  -10.13744 -10.13616 -10.13536 -10.13048 -10.12843
 Alpha  occ. eigenvalues --  -10.09697 -10.09456 -10.08472 -10.07560 -10.04874
 Alpha  occ. eigenvalues --  -10.04470 -10.04214 -10.04157 -10.03810 -10.01965
 Alpha  occ. eigenvalues --   -0.97677  -0.93871  -0.90083  -0.82691  -0.81277
 Alpha  occ. eigenvalues --   -0.72344  -0.70728  -0.66893  -0.63012  -0.62300
 Alpha  occ. eigenvalues --   -0.60970  -0.59631  -0.57838  -0.55234  -0.51000
 Alpha  occ. eigenvalues --   -0.49168  -0.47372  -0.46860  -0.43062  -0.41707
 Alpha  occ. eigenvalues --   -0.40603  -0.40376  -0.40145  -0.38889  -0.38258
 Alpha  occ. eigenvalues --   -0.35822  -0.35210  -0.34868  -0.33935  -0.32915
 Alpha  occ. eigenvalues --   -0.31936  -0.31151  -0.30455  -0.30121  -0.29153
 Alpha  occ. eigenvalues --   -0.28785  -0.28060  -0.27782  -0.27291  -0.26792
 Alpha  occ. eigenvalues --   -0.26639  -0.24615  -0.23218  -0.22090  -0.21396
 Alpha  occ. eigenvalues --   -0.20391  -0.20017  -0.17913  -0.16356  -0.13525
 Alpha  occ. eigenvalues --   -0.12507  -0.10052  -0.08968   0.04041
 Alpha virt. eigenvalues --    0.05703   0.07234   0.07841   0.08550   0.08757
 Alpha virt. eigenvalues --    0.09170   0.10288   0.10660   0.10970   0.11112
 Alpha virt. eigenvalues --    0.11516   0.11766   0.12363   0.12877   0.13052

  Beta  occ. eigenvalues --  -19.04755 -19.04359 -18.94161 -14.22599 -14.19841
  Beta  occ. eigenvalues --  -10.13736 -10.13605 -10.13521 -10.13049 -10.12792
  Beta  occ. eigenvalues --  -10.09671 -10.09440 -10.08474 -10.07292 -10.04852
  Beta  occ. eigenvalues --  -10.04558 -10.04114 -10.03945 -10.03562 -10.01821
  Beta  occ. eigenvalues --   -0.97669  -0.93865  -0.89900  -0.82520  -0.81120
  Beta  occ. eigenvalues --   -0.72097  -0.70659  -0.66594  -0.62965  -0.62034
  Beta  occ. eigenvalues --   -0.60662  -0.59549  -0.57754  -0.55155  -0.50678
  Beta  occ. eigenvalues --   -0.48848  -0.47334  -0.46681  -0.43023  -0.41560
  Beta  occ. eigenvalues --   -0.40580  -0.40216  -0.40106  -0.38788  -0.38179
  Beta  occ. eigenvalues --   -0.35696  -0.35143  -0.34648  -0.33842  -0.32833
  Beta  occ. eigenvalues --   -0.31856  -0.31069  -0.30348  -0.30009  -0.29049
  Beta  occ. eigenvalues --   -0.28667  -0.28019  -0.27684  -0.27000  -0.26710
  Beta  occ. eigenvalues --   -0.26489  -0.23929  -0.23112  -0.22005  -0.21302
  Beta  occ. eigenvalues --   -0.20354  -0.19201  -0.17315  -0.16335  -0.12840
  Beta  occ. eigenvalues --   -0.12138  -0.09295  -0.08040
  Beta virt. eigenvalues --    0.06102   0.07369   0.07804   0.08610   0.08664
  Beta virt. eigenvalues --    0.08992   0.09163   0.10278   0.10644   0.10919
  Beta virt. eigenvalues --    0.11185   0.11630   0.11933   0.12421   0.12836

 Mulliken charges and spin densities:
               1          2
     1  C   -0.233821  -0.020031
     2  N    0.066436   0.027626
     3  C    0.072791   0.013190
     4  C   -0.134453   0.062833
     5  C   -0.450014   0.166023
     6  C   -0.512050  -0.115936
     7  C   -0.078550   0.140153
     8  C    0.053931   0.007011
     9  C    0.066831   0.027965
    10  C    0.040997   0.125909
    11  C   -0.333450   0.055966
    12  O   -0.407188   0.034981
    13  N    0.075783   0.045271
    14  C    0.533947  -0.726651
    15  C   -1.088712   0.925816
    16  C    0.324882  -0.880399
    17  O   -0.111469   0.014453
    18  C   -0.088072  -0.249548
    19  C   -0.269094   0.040260
    20  O   -0.086243  -0.006200
    21  H    0.113521   0.021973
    22  H    0.120830   0.005890
    23  H    0.206773  -0.000586
    24  H    0.120565  -0.001178
    25  H    0.115810  -0.013829
    26  H    0.099838   0.020852
    27  H    0.056415   0.059481
    28  H    0.118431  -0.002487
    29  H    0.272573   0.051667
    30  H    0.154472   0.015021
    31  H    0.118966   0.003183
    32  H   -0.280791   0.488029
    33  H   -0.239836   0.384680
    34  H    0.064665   0.114688
    35  H    0.136023   0.021476
    36  H    0.008272   0.141419
    37  H    0.116228   0.025932
    38  H    0.254764  -0.024903
 Sum of Mulliken charges =  -1.00000   1.00000

 Dipole moment (field-independent basis, Debye):
    X=             -2.0602    Y=              1.3899    Z=              2.6353  Tot=              3.6223
 Quadrupole moment (field-independent basis, Debye-Ang):
   XX=           -172.3390   YY=           -158.0692   ZZ=           -139.8790
   XY=              8.5889   XZ=              1.8903   YZ=             -5.4058

 Summary of Natural Population Analysis:

                                       Natural Population
                Natural  -----------------------------------------------
    Atom  No    Charge         Core      Valence    Rydberg      Total
 -----------------------------------------------------------------------
      C    1   -0.18533      0.99965     2.17894    0.00674     3.18533
      N    2   -0.22474      0.99961     2.71731    0.00783     3.72474
      C    3    0.11353      0.99949     1.87806    0.00892     2.88647
      C    4   -0.12455      0.99955     2.11698    0.00803     3.12455
      C    5   -0.05117      0.99958     2.04226    0.00933     3.05117
      C    6   -0.14114      0.99957     2.13238    0.00919     3.14114
      C    7   -0.04081      0.99955     2.03305    0.00822     3.04081
      C    8   -0.05881      0.99946     2.05041    0.00893     3.05881
      C    9    0.15823      0.99945     1.83050    0.01182     2.84177
      C   10   -0.15293      0.99947     2.14463    0.00883     3.15293
      C   11    0.32966      0.99961     1.65029    0.02044     2.67034
      O   12   -0.33908      0.99988     3.33322    0.00598     4.33908
      N   13   -0.32320      0.99968     2.81245    0.01107     3.82320
      C   14   -0.10068      0.99959     2.08963    0.01147     3.10068
      C   15    0.04677      0.99954     1.93845    0.01523     2.95323
      C   16   -0.02313      0.99955     2.00941    0.01417     3.02313
      O   17   -0.29778      0.99989     3.28883    0.00905     4.29778
      C   18   -0.02566      0.99959     2.01364    0.01244     3.02566
      C   19   -0.03269      0.99958     2.02104    0.01208     3.03269
      O   20   -0.30480      0.99989     3.29560    0.00931     4.30480
      H   21    0.09061      0.00000     0.40805    0.00134     0.40939
      H   22    0.08992      0.00000     0.40876    0.00132     0.41008
      H   23    0.11801      0.00000     0.38077    0.00122     0.38199
      H   24    0.09641      0.00000     0.40260    0.00099     0.40359
      H   25    0.08826      0.00000     0.41074    0.00100     0.41174
      H   26    0.09292      0.00000     0.40591    0.00118     0.40708
      H   27    0.09520      0.00000     0.40304    0.00176     0.40480
      H   28    0.09661      0.00000     0.40117    0.00221     0.40339
      H   29    0.18473      0.00000     0.31225    0.00302     0.31527
      H   30    0.09951      0.00000     0.39889    0.00160     0.40049
      H   31    0.09189      0.00000     0.40682    0.00128     0.40811
      H   32    0.09588      0.00000     0.40270    0.00143     0.40412
      H   33    0.08352      0.00000     0.41470    0.00178     0.41648
      H   34    0.09498      0.00000     0.40387    0.00114     0.40502
      H   35    0.09314      0.00000     0.40597    0.00089     0.40686
      H   36    0.07883      0.00000     0.41967    0.00150     0.42117
      H   37    0.09347      0.00000     0.40560    0.00093     0.40653
      H   38    0.09443      0.00000     0.40415    0.00142     0.40557
 =======================================================================
   * Total *    0.00000     19.99218    52.77272    0.23510    73.00000

 Normal termination of Gaussian 16 at Sun Dec 13 18:17:51 2020.
