 Gaussian 16, Revision A.03,

 -----------------------------------------------------------
 # opt freq B3LYP/6-31G(d) empiricaldispersion=gd3bj scf=xqc
 -----------------------------------------------------------

 -------------------------------
 CID_142216493_JID_1319_neutraal
 -------------------------------
 Symbolic Z-matrix:
 Charge =  0 Multiplicity = 1

 SCF Done:  E(RB3LYP) =  -1145.37685311     A.U. after   15 cycles
 SCF Done:  E(RB3LYP) =  -1145.38082346     A.U. after   12 cycles
 SCF Done:  E(RB3LYP) =  -1145.38151626     A.U. after   12 cycles
 SCF Done:  E(RB3LYP) =  -1145.38167469     A.U. after   11 cycles
 SCF Done:  E(RB3LYP) =  -1145.38170727     A.U. after   10 cycles
 SCF Done:  E(RB3LYP) =  -1145.38171483     A.U. after    9 cycles
 SCF Done:  E(RB3LYP) =  -1145.38171746     A.U. after    9 cycles
 SCF Done:  E(RB3LYP) =  -1145.38171838     A.U. after    8 cycles
 SCF Done:  E(RB3LYP) =  -1145.38171883     A.U. after    8 cycles
 SCF Done:  E(RB3LYP) =  -1145.38171896     A.U. after    7 cycles
 SCF Done:  E(RB3LYP) =  -1145.38171902     A.U. after    7 cycles
 Optimization completed.
    -- Stationary point found.

 1\1\GINC-NODE312\FOpt\RB3LYP\6-31G(d)\C9H10S2\VSC10255\08-Dec-2020\0\\
 # opt freq B3LYP/6-31G(d) empiricaldispersion=gd3bj scf=xqc\\CID_14221
 6493_JID_1319_neutraal\\0,1\C,1.1711652355,-0.1771184089,0.0638955985\
 C,0.2372701309,-0.090632361,1.2876481538\C,0.2799051371,-1.3895383822,
 2.124962032\C,1.500228063,-1.4405956929,3.0055584241\C,2.0281630203,-0
 .2656245695,3.4919004049\C,1.4947800527,1.0359775558,3.1315587607\C,0.
 614458632,1.1207077564,2.1184822694\S,3.3808721704,-0.5526456856,4.550
 5153092\C,3.2284054243,-2.2729381583,4.3409731924\C,2.1921327357,-2.59

 Normal termination of Gaussian 16 at Tue Dec  8 19:41:12 2020.

 --------------------------------------------------------------------
 #N Geom=AllCheck Guess=TCheck SCRF=Check GenChk RB3LYP/6-31G(d) Freq
 --------------------------------------------------------------------

 Structure from the checkpoint file:  "JID_1319.chk"
 -------------------------------
 CID_142216493_JID_1319_neutraal
 -------------------------------
 Charge =  0 Multiplicity = 1

 SCF Done:  E(RB3LYP) =  -1145.38171902     A.U. after    1 cycles

  Exact polarizability: 159.351  -1.270 139.499  -8.245   4.807  70.971
 Approx polarizability: 252.618  -7.847 236.944 -21.307  14.876 110.601

                      1                      2                      3
                      A                      A                      A
 Frequencies --     81.4470                92.8718               124.0402
 Red. masses --      3.1230                 4.1281                 1.1258
 Frc consts  --      0.0122                 0.0210                 0.0102
 IR Inten    --      1.1044                 0.0229                20.9323

                      4                      5                      6
                      A                      A                      A
 Frequencies --    172.3575               203.8460               246.3926
 Red. masses --      5.3452                 4.6421                 3.5522
 Frc consts  --      0.0936                 0.1137                 0.1271
 IR Inten    --      1.9435                 0.1380                 1.4269

                      7                      8                      9
                      A                      A                      A
 Frequencies --    253.8517               297.5814               346.4804
 Red. masses --      1.1788                 2.8515                 2.0530
 Frc consts  --      0.0448                 0.1488                 0.1452
 IR Inten    --      0.2980                 0.9380                 0.2419

                     10                     11                     12
                      A                      A                      A
 Frequencies --    366.6135               413.5629               465.5007
 Red. masses --      5.4954                 9.7274                 3.6886
 Frc consts  --      0.4352                 0.9802                 0.4709
 IR Inten    --      0.0652                 0.2877                 0.6054

                     13                     14                     15
                      A                      A                      A
 Frequencies --    497.0131               524.9356               573.6329
 Red. masses --      4.6442                 7.1298                 3.4689
 Frc consts  --      0.6759                 1.1576                 0.6725
 IR Inten    --      0.8173                 0.8950                 0.5899

                     16                     17                     18
                      A                      A                      A
 Frequencies --    641.1159               687.0112               691.7729
 Red. masses --      4.2646                 1.3196                 4.9560
 Frc consts  --      1.0328                 0.3670                 1.3974
 IR Inten    --      6.0200                43.7559                 2.7705

                     19                     20                     21
                      A                      A                      A
 Frequencies --    716.3698               758.8120               813.3770
 Red. masses --      3.7395                 1.5988                 2.7837
 Frc consts  --      1.1307                 0.5424                 1.0851
 IR Inten    --      5.7952                13.6967                 5.0460

                     22                     23                     24
                      A                      A                      A
 Frequencies --    845.6815               883.9150               926.1483
 Red. masses --      5.1916                 2.2465                 1.5303
 Frc consts  --      2.1876                 1.0341                 0.7734
 IR Inten    --     23.4964                 2.8854                13.2062

                     25                     26                     27
                      A                      A                      A
 Frequencies --    957.8282               972.7269               985.7912
 Red. masses --      1.7082                 1.3537                 1.7920
 Frc consts  --      0.9234                 0.7547                 1.0260
 IR Inten    --      1.8883                 4.2963                 2.0140

                     28                     29                     30
                      A                      A                      A
 Frequencies --   1011.2787              1076.2561              1108.6619
 Red. masses --      2.4243                 2.6668                 2.0577
 Frc consts  --      1.4608                 1.8200                 1.4902
 IR Inten    --      8.9967                16.9750                 7.5781

                     31                     32                     33
                      A                      A                      A
 Frequencies --   1133.2454              1182.4813              1198.0657
 Red. masses --      1.6328                 1.7302                 1.1338
 Frc consts  --      1.2355                 1.4254                 0.9588
 IR Inten    --      1.1344                14.0768                 0.7181

                     34                     35                     36
                      A                      A                      A
 Frequencies --   1232.9763              1253.3743              1328.9629
 Red. masses --      2.1224                 1.1788                 1.7243
 Frc consts  --      1.9010                 1.0911                 1.7942
 IR Inten    --     10.5802                 0.7524                 8.7585

                     37                     38                     39
                      A                      A                      A
 Frequencies --   1354.9164              1378.6430              1423.7877
 Red. masses --      1.3835                 1.6501                 1.3976
 Frc consts  --      1.4964                 1.8478                 1.6692
 IR Inten    --      3.9077                14.4568                 3.1887

                     40                     41                     42
                      A                      A                      A
 Frequencies --   1440.5302              1443.6365              1475.4306
 Red. masses --      2.2300                 2.0675                 5.3149
 Frc consts  --      2.7265                 2.5387                 6.8168
 IR Inten    --      4.2332                 8.5493                 5.0773

                     43                     44                     45
                      A                      A                      A
 Frequencies --   1502.2666              1525.8228              1528.3344
 Red. masses --      1.1254                 1.0478                 1.0588
 Frc consts  --      1.4964                 1.4373                 1.4571
 IR Inten    --      1.4487                 5.2339                 2.9390

                     46                     47                     48
                      A                      A                      A
 Frequencies --   1584.7524              1682.1711              2698.4488
 Red. masses --      7.7916                 6.2970                 1.0385
 Frc consts  --     11.5293                10.4984                 4.4555
 IR Inten    --      5.2965                 2.1530                13.7559

                     49                     50                     51
                      A                      A                      A
 Frequencies --   3014.4487              3046.9972              3052.3219
 Red. masses --      1.0681                 1.0378                 1.0817
 Frc consts  --      5.7187                 5.6767                 5.9377
 IR Inten    --     23.0903                26.1550                40.4705

                     52                     53                     54
                      A                      A                      A
 Frequencies --   3072.0829              3114.7392              3128.4523
 Red. masses --      1.0941                 1.1020                 1.1027
 Frc consts  --      6.0838                 6.2992                 6.3585
 IR Inten    --     16.8474                25.8825                28.7896

                     55                     56                     57
                      A                      A                      A
 Frequencies --   3179.5657              3201.5097              3270.8834
 Red. masses --      1.0856                 1.0969                 1.0937
 Frc consts  --      6.4662                 6.6244                 6.8943
 IR Inten    --      3.4178                27.3846                 0.9250

 - Thermochemistry -
 -------------------
 Temperature   298.150 Kelvin.  Pressure   1.00000 Atm.
 Atom     1 has atomic number  6 and mass  12.00000

 Molecular mass:   182.02239 amu.
 Principal axes and moments of inertia in atomic units:
                           1         2         3
     Eigenvalues --  1596.252632391.907903650.15760
           X            0.99892  -0.04637   0.00429
           Y            0.04641   0.99886  -0.01093
           Z           -0.00378   0.01112   0.99993
 This molecule is an asymmetric top.
 Rotational symmetry number  1.
 Warning -- assumption of classical behavior for rotation
           may cause significant error
 Rotational temperatures (Kelvin)      0.05426     0.03621     0.02373
 Rotational constants (GHZ):           1.13061     0.75452     0.49443
 Zero-point vibrational energy     431766.5 (Joules/Mol)
                                  103.19467 (Kcal/Mol)
 Warning -- explicit consideration of  15 degrees of freedom as
           vibrations may cause significant error
 Vibrational temperatures:    117.18   133.62   178.47   247.98   293.29
          (Kelvin)            354.50   365.24   428.15   498.51   527.48
                              595.02   669.75   715.09   755.27   825.33
                              922.42   988.46   995.31  1030.70  1091.76
                             1170.27  1216.75  1271.76  1332.52  1378.10
                             1399.54  1418.33  1455.00  1548.49  1595.12
                             1630.49  1701.33  1723.75  1773.98  1803.33
                             1912.08  1949.42  1983.56  2048.51  2072.60
                             2077.07  2122.82  2161.43  2195.32  2198.93
                             2280.11  2420.27  3882.47  4337.12  4383.95
                             4391.61  4420.04  4481.42  4501.15  4574.69
                             4606.26  4706.07

 Zero-point correction=                           0.164451 (Hartree/Particle)
 Thermal correction to Energy=                    0.175095
 Thermal correction to Enthalpy=                  0.176039
 Thermal correction to Gibbs Free Energy=         0.127948
 Sum of electronic and zero-point Energies=          -1145.217268
 Sum of electronic and thermal Energies=             -1145.206624
 Sum of electronic and thermal Enthalpies=           -1145.205680
 Sum of electronic and thermal Free Energies=        -1145.253771

                     E (Thermal)             CV                S
                      KCal/Mol        Cal/Mol-Kelvin    Cal/Mol-Kelvin
 Total                  109.874             40.749            101.216
 Electronic               0.000              0.000              0.000
 Translational            0.889              2.981             41.503
 Rotational               0.889              2.981             31.011
 Vibrational            108.096             34.788             28.702
 Vibration     1          0.600              1.962              3.856
 Vibration     2          0.602              1.954              3.599
 Vibration     3          0.610              1.929              3.036
 Vibration     4          0.626              1.876              2.410
 Vibration     5          0.640              1.834              2.098
 Vibration     6          0.661              1.769              1.756
 Vibration     7          0.665              1.756              1.704
 Vibration     8          0.691              1.678              1.430
 Vibration     9          0.724              1.582              1.182
 Vibration    10          0.740              1.541              1.094
 Vibration    11          0.777              1.441              0.914
 Vibration    12          0.823              1.327              0.750
 Vibration    13          0.853              1.257              0.666
 Vibration    14          0.880              1.195              0.599
 Vibration    15          0.930              1.088              0.497

 Optimization completed.
    -- Stationary point found.

 1\1\GINC-NODE312\Freq\RB3LYP\6-31G(d)\C9H10S2\VSC10255\08-Dec-2020\0\\
 #N Geom=AllCheck Guess=TCheck SCRF=Check GenChk RB3LYP/6-31G(d) Freq\\
 CID_142216493_JID_1319_neutraal\\0,1\C,1.1711652355,-0.1771184089,0.06
 38955985\C,0.2372701309,-0.090632361,1.2876481538\C,0.2799051371,-1.38
 95383822,2.124962032\C,1.500228063,-1.4405956929,3.0055584241\C,2.0281
 630203,-0.2656245695,3.4919004049\C,1.4947800527,1.0359775558,3.131558
 7607\C,0.614458632,1.1207077564,2.1184822694\S,3.3808721704,-0.5526456
 856,4.5505153092\C,3.2284054243,-2.2729381583,4.3409731924\C,2.1921327

 Normal termination of Gaussian 16 at Tue Dec  8 19:45:29 2020.

 ----------------------------------------------------------------------
 # B3LYP/6-311++G(d,p) empiricaldispersion=gd3bj scf=xqc pop=npa geom=c
 heck
 ----------------------------------------------------------------------

 ---------------------------------------
 CID_142216493_JID_1319_Energie_neutraal
 ---------------------------------------
 Structure from the checkpoint file:  "JID_1319.chk"
 Charge =  0 Multiplicity = 1

 SCF Done:  E(RB3LYP) =  -1145.52739811     A.U. after   15 cycles
 Normal termination of Gaussian 16 at Tue Dec  8 19:47:50 2020.

 ----------------------------------------------------------------------
 # B3LYP/6-311++G(d,p) empiricaldispersion=gd3bj scf=xqc pop=npa geom=c
 heck
 ----------------------------------------------------------------------

 -------------------------------------
 CID_142216493_JID_1319_Energie_kation
 -------------------------------------
 Structure from the checkpoint file:  "JID_1319.chk"
 Charge =  1 Multiplicity = 2

 SCF Done:  E(UB3LYP) =  -1145.25480383     A.U. after   23 cycles
 Normal termination of Gaussian 16 at Tue Dec  8 19:51:58 2020.
 Gaussian 16:  ES64L-G16RevA.03 25-Dec-2016

 ------------------------------------
 CID_142216493_JID_1319_Energie_anion
 ------------------------------------
 Structure from the checkpoint file:  "JID_1319.chk"
 Charge = -1 Multiplicity = 2

                         Standard orientation:
 ---------------------------------------------------------------------
 Center     Atomic      Atomic             Coordinates (Angstroms)
 Number     Number       Type             X           Y           Z
 ---------------------------------------------------------------------
      1          6           0        2.444816   -1.395822    1.270703
      2          6           0        2.262909   -1.052717   -0.221409
      3          6           0        0.808542   -1.297388   -0.685114
      4          6           0       -0.101336   -0.171475   -0.270764
      5          6           0        0.407720    1.104332   -0.176006
      6          6           0        1.812615    1.400527   -0.392920
      7          6           0        2.689517    0.383094   -0.458801
      8         16           0       -0.824234    2.264262    0.235965
      9          6           0       -2.037947    1.018451    0.273604
     10          6           0       -1.507477   -0.214216   -0.014169
     11         16           0       -2.396486   -1.755561   -0.096504
     12          1           0        3.475250   -1.213545    1.594332
     13          1           0        2.208480   -2.450133    1.457603
     14          1           0        1.782039   -0.779746    1.887337
     15          1           0        2.913492   -1.717323   -0.802912
     16          1           0        0.782675   -1.387326   -1.781660
     17          1           0        0.454865   -2.255884   -0.285893
     18          1           0        2.132701    2.434102   -0.490365
     19          1           0        3.749573    0.583290   -0.594332
     20          1           0       -3.063615    1.267033    0.506820
     21          1           0       -3.580095   -1.268399    0.326935
 ---------------------------------------------------------------------

 SCF Done:  E(UB3LYP) =  -1145.51913528     A.U. after   33 cycles
 SCF Done:  E(UB3LYP) =  -1145.51913528     a.u. after    1 cycles

 The electronic state is 2-A.
 Alpha  occ. eigenvalues --  -88.74132 -88.72856 -10.07353 -10.04946 -10.04595
 Alpha  occ. eigenvalues --  -10.04497 -10.04148 -10.02922 -10.02652 -10.02575
 Alpha  occ. eigenvalues --  -10.01437  -7.82792  -7.81504  -5.79179  -5.78801
 Alpha  occ. eigenvalues --   -5.78185  -5.77804  -5.77461  -5.77094  -0.75165
 Alpha  occ. eigenvalues --   -0.69010  -0.66067  -0.61260  -0.60334  -0.55144
 Alpha  occ. eigenvalues --   -0.53753  -0.47324  -0.44257  -0.41712  -0.35953
 Alpha  occ. eigenvalues --   -0.33929  -0.33611  -0.31064  -0.29975  -0.28236
 Alpha  occ. eigenvalues --   -0.27233  -0.25574  -0.25155  -0.24797  -0.22792
 Alpha  occ. eigenvalues --   -0.21877  -0.20740  -0.19068  -0.18548  -0.18026
 Alpha  occ. eigenvalues --   -0.14552  -0.09439  -0.06953   0.05595
 Alpha virt. eigenvalues --    0.07911   0.08386   0.09905   0.10310   0.10604
 Alpha virt. eigenvalues --    0.11134   0.11937   0.12418   0.13081   0.13579
 Alpha virt. eigenvalues --    0.14075   0.14349   0.15106   0.15611   0.16002

  Beta  occ. eigenvalues --  -88.74133 -88.72806 -10.07400 -10.04702 -10.04514
  Beta  occ. eigenvalues --  -10.04413 -10.04150 -10.02794 -10.02585 -10.02533
  Beta  occ. eigenvalues --  -10.01090  -7.82792  -7.81459  -5.79179  -5.78801
  Beta  occ. eigenvalues --   -5.78189  -5.77783  -5.77438  -5.76929  -0.74908
  Beta  occ. eigenvalues --   -0.68758  -0.65954  -0.60993  -0.60025  -0.54842
  Beta  occ. eigenvalues --   -0.53561  -0.47012  -0.43874  -0.41523  -0.35810
  Beta  occ. eigenvalues --   -0.33781  -0.33402  -0.30840  -0.29854  -0.28059
  Beta  occ. eigenvalues --   -0.27132  -0.25441  -0.24725  -0.24491  -0.22681
  Beta  occ. eigenvalues --   -0.21565  -0.20580  -0.18934  -0.18350  -0.17637
  Beta  occ. eigenvalues --   -0.13506  -0.08872  -0.05474
  Beta virt. eigenvalues --    0.07843   0.08660   0.09849   0.10269   0.10791
  Beta virt. eigenvalues --    0.10955   0.11310   0.11967   0.12551   0.13247
  Beta virt. eigenvalues --    0.13739   0.14297   0.14593   0.15130   0.15650

 Mulliken charges and spin densities:
               1          2
     1  C    0.784052  -1.541402
     2  C   -0.186041   0.573281
     3  C   -0.428877  -0.465837
     4  C   -0.379917   0.429096
     5  C    0.480099   0.129943
     6  C   -0.050482   0.022294
     7  C   -0.265460   0.161640
     8  S   -0.716123   0.040831
     9  C    0.384697   0.195540
    10  C    0.344845  -0.150636
    11  S   -0.579149  -0.072217
    12  H   -0.263663   0.386621
    13  H   -0.244787   0.363730
    14  H   -0.015026   0.166774
    15  H   -0.234277   0.424833
    16  H    0.063432   0.071653
    17  H    0.021007   0.072615
    18  H    0.110480  -0.000110
    19  H   -0.043446   0.157990
    20  H    0.175887   0.003867
    21  H    0.042748   0.029494
 Sum of Mulliken charges =  -1.00000   1.00000

 Dipole moment (field-independent basis, Debye):
    X=             -4.5970    Y=              1.6863    Z=             -0.5992  Tot=              4.9330
 Quadrupole moment (field-independent basis, Debye-Ang):
   XX=           -116.7772   YY=           -109.9097   ZZ=           -100.9532
   XY=              8.2514   XZ=             -6.6136   YZ=              2.4801

 Summary of Natural Population Analysis:

                                       Natural Population
                Natural  -----------------------------------------------
    Atom  No    Charge         Core      Valence    Rydberg      Total
 -----------------------------------------------------------------------
      C    1   -0.27811      0.99964     2.27244    0.00603     3.27811
      C    2   -0.12703      0.99961     2.11610    0.01132     3.12703
      C    3   -0.18950      0.99959     2.18030    0.00960     3.18950
      C    4   -0.03283      0.99938     2.02264    0.01082     3.03283
      C    5   -0.07212      0.99937     2.06146    0.01128     3.07212
      C    6   -0.12417      0.99949     2.11478    0.00990     3.12417
      C    7   -0.01640      0.99954     2.00446    0.01239     3.01640
      S    8    0.20529      4.99943     2.77268    0.02260     7.79471
      C    9   -0.17714      0.99943     2.16440    0.01331     3.17714
      C   10   -0.11525      0.99929     2.10602    0.00994     3.11525
      S   11    0.00407      4.99956     2.97913    0.01723     7.99593
      H   12    0.09653      0.00000     0.40234    0.00113     0.40347
      H   13    0.09432      0.00000     0.40408    0.00160     0.40568
      H   14    0.10013      0.00000     0.39844    0.00142     0.39987
      H   15    0.09652      0.00000     0.40105    0.00242     0.40348
      H   16    0.10169      0.00000     0.39716    0.00115     0.39831
      H   17    0.10158      0.00000     0.39738    0.00104     0.39842
      H   18    0.09307      0.00000     0.40540    0.00152     0.40693
      H   19    0.08715      0.00000     0.41192    0.00093     0.41285
      H   20    0.09730      0.00000     0.40137    0.00133     0.40270
      H   21    0.05489      0.00000     0.44224    0.00288     0.44511
 =======================================================================
   * Total *    0.00000     18.99434    28.85582    0.14984    48.00000

 Normal termination of Gaussian 16 at Tue Dec  8 19:57:09 2020.
