 Gaussian 16, Revision A.03,

 -----------------------------------------------------------
 # opt freq B3LYP/6-31G(d) empiricaldispersion=gd3bj scf=xqc
 -----------------------------------------------------------

 -------------------------------
 CID_106552762_JID_1993_neutraal
 -------------------------------
 Symbolic Z-matrix:
 Charge =  0 Multiplicity = 1

 SCF Done:  E(RB3LYP) =  -494.187168071     A.U. after   14 cycles
 SCF Done:  E(RB3LYP) =  -494.191292648     A.U. after   12 cycles
 SCF Done:  E(RB3LYP) =  -494.191159197     A.U. after   12 cycles
 SCF Done:  E(RB3LYP) =  -494.192093615     A.U. after   11 cycles
 SCF Done:  E(RB3LYP) =  -494.192248075     A.U. after   11 cycles
 SCF Done:  E(RB3LYP) =  -494.192416945     A.U. after   12 cycles
 SCF Done:  E(RB3LYP) =  -494.192460452     A.U. after   12 cycles
 SCF Done:  E(RB3LYP) =  -494.192523203     A.U. after    8 cycles
 SCF Done:  E(RB3LYP) =  -494.192670566     A.U. after   11 cycles
 SCF Done:  E(RB3LYP) =  -494.192650662     A.U. after   13 cycles
 SCF Done:  E(RB3LYP) =  -494.192808167     A.U. after   12 cycles
 SCF Done:  E(RB3LYP) =  -494.192806996     A.U. after   10 cycles
 SCF Done:  E(RB3LYP) =  -494.192813383     A.U. after   10 cycles
 SCF Done:  E(RB3LYP) =  -494.192815035     A.U. after    9 cycles
 SCF Done:  E(RB3LYP) =  -494.192816242     A.U. after    9 cycles
 SCF Done:  E(RB3LYP) =  -494.192816642     A.U. after    8 cycles
 Optimization completed.
    -- Stationary point found.

 1\1\GINC-NODE112\FOpt\RB3LYP\6-31G(d)\C7H14N4\VSC10255\08-Dec-2020\0\\
 # opt freq B3LYP/6-31G(d) empiricaldispersion=gd3bj scf=xqc\\CID_10655
 2762_JID_1993_neutraal\\0,1\C,0.9577219886,-0.2386970723,0.3806166305\
 N,-0.1699554944,-0.7627145033,1.1554026466\C,-1.3316462833,-1.11524719
 98,0.3519663795\C,-1.1334313285,-2.2771097233,-0.6370419207\N,-0.72693
 17131,-3.5040497411,0.0554783703\C,-1.7770297785,-4.344239871,0.593104
 5321\C,0.4591125246,-4.097603074,-0.3299814915\N,1.4469544459,-3.50001
 48877,-0.9737103473\C,2.4366072075,-4.4595341484,-1.1009985232\C,2.053

 Normal termination of Gaussian 16 at Tue Dec  8 21:53:58 2020.

 --------------------------------------------------------------------
 #N Geom=AllCheck Guess=TCheck SCRF=Check GenChk RB3LYP/6-31G(d) Freq
 --------------------------------------------------------------------

 Structure from the checkpoint file:  "JID_1993.chk"
 -------------------------------
 CID_106552762_JID_1993_neutraal
 -------------------------------
 Charge =  0 Multiplicity = 1

 SCF Done:  E(RB3LYP) =  -494.192816642     A.U. after    1 cycles

  Exact polarizability: 116.318  -7.203 105.365 -10.334  -4.027  69.230
 Approx polarizability: 155.870  -7.111 153.729 -18.226 -13.659 106.642

                      1                      2                      3
                      A                      A                      A
 Frequencies --     35.8607                49.4179                92.0411
 Red. masses --      3.7316                 4.2391                 3.0674
 Frc consts  --      0.0028                 0.0061                 0.0153
 IR Inten    --      1.7948                 5.1346                 2.7537

                      4                      5                      6
                      A                      A                      A
 Frequencies --    120.4527               156.9271               183.3375
 Red. masses --      2.3911                 2.1544                 1.2483
 Frc consts  --      0.0204                 0.0313                 0.0247
 IR Inten    --      6.3452                 4.7951                 0.8680

                      7                      8                      9
                      A                      A                      A
 Frequencies --    208.0985               246.0955               276.7012
 Red. masses --      2.5807                 1.8679                 1.8736
 Frc consts  --      0.0658                 0.0667                 0.0845
 IR Inten    --      5.2016                 4.1197                 3.0786

                     10                     11                     12
                      A                      A                      A
 Frequencies --    299.3836               384.2174               396.8426
 Red. masses --      3.2340                 2.0396                 1.5940
 Frc consts  --      0.1708                 0.1774                 0.1479
 IR Inten    --      7.9258                14.5345                50.9839

                     13                     14                     15
                      A                      A                      A
 Frequencies --    409.3489               490.7836               524.9921
 Red. masses --      1.8433                 3.1820                 2.5931
 Frc consts  --      0.1820                 0.4516                 0.4211
 IR Inten    --      7.2559                 7.4932                 2.9898

                     16                     17                     18
                      A                      A                      A
 Frequencies --    619.4683               652.0058               654.9132
 Red. masses --      4.0344                 1.9171                 1.6786
 Frc consts  --      0.9122                 0.4802                 0.4242
 IR Inten    --     18.2837                 6.2778                49.9122

                     19                     20                     21
                      A                      A                      A
 Frequencies --    731.8992               781.6743               838.0023
 Red. masses --      5.3236                 1.5620                 2.0559
 Frc consts  --      1.6802                 0.5623                 0.8506
 IR Inten    --      3.6537               110.3374                11.5684

                     22                     23                     24
                      A                      A                      A
 Frequencies --    840.6485               892.9809               936.1841
 Red. masses --      1.2674                 2.4989                 5.5740
 Frc consts  --      0.5277                 1.1740                 2.8783
 IR Inten    --      9.8594                40.7588                 2.7744

                     25                     26                     27
                      A                      A                      A
 Frequencies --    969.1215              1010.5939              1026.0236
 Red. masses --      3.0730                 1.9085                 1.7832
 Frc consts  --      1.7005                 1.1484                 1.1060
 IR Inten    --      2.1488                23.8044                18.0799

                     28                     29                     30
                      A                      A                      A
 Frequencies --   1072.7952              1095.5821              1125.7320
 Red. masses --      1.8522                 1.6582                 1.7450
 Frc consts  --      1.2559                 1.1727                 1.3029
 IR Inten    --     13.2620                19.8874                43.7801

                     31                     32                     33
                      A                      A                      A
 Frequencies --   1145.9591              1157.1778              1180.2531
 Red. masses --      1.9111                 1.4080                 1.4467
 Frc consts  --      1.4787                 1.1109                 1.1873
 IR Inten    --      4.6305                17.6201                 7.5456

                     34                     35                     36
                      A                      A                      A
 Frequencies --   1190.3610              1206.8502              1226.8506
 Red. masses --      2.8083                 1.9377                 1.7556
 Frc consts  --      2.3445                 1.6628                 1.5569
 IR Inten    --      5.1862                11.0265                 1.8454

                     37                     38                     39
                      A                      A                      A
 Frequencies --   1246.6141              1312.9658              1333.6584
 Red. masses --      2.5386                 1.7869                 1.3443
 Frc consts  --      2.3244                 1.8149                 1.4088
 IR Inten    --      3.0956                38.0097                 8.8736

                     40                     41                     42
                      A                      A                      A
 Frequencies --   1352.5345              1394.2061              1401.7660
 Red. masses --      2.2148                 2.0860                 1.2972
 Frc consts  --      2.3872                 2.3891                 1.5018
 IR Inten    --     30.0337                 7.3135                21.6131

                     43                     44                     45
                      A                      A                      A
 Frequencies --   1425.0623              1477.7798              1483.6287
 Red. masses --      1.3121                 1.2042                 1.6112
 Frc consts  --      1.5699                 1.5494                 2.0896
 IR Inten    --      5.2095                 6.7532                49.1359

                     46                     47                     48
                      A                      A                      A
 Frequencies --   1494.1583              1504.1743              1509.2775
 Red. masses --      1.9532                 1.0988                 1.1376
 Frc consts  --      2.5692                 1.4648                 1.5268
 IR Inten    --     18.5806                12.1651                 9.6050

                     49                     50                     51
                      A                      A                      A
 Frequencies --   1518.3615              1523.5130              1529.9732
 Red. masses --      1.1729                 1.0593                 1.0853
 Frc consts  --      1.5932                 1.4487                 1.4967
 IR Inten    --      9.4577                 6.5606                 6.7132

                     52                     53                     54
                      A                      A                      A
 Frequencies --   1542.7032              1564.1349              1574.9027
 Red. masses --      1.1232                 1.0471                 3.4642
 Frc consts  --      1.5750                 1.5093                 5.0624
 IR Inten    --     10.4146                 3.6459                10.5277

                     55                     56                     57
                      A                      A                      A
 Frequencies --   1643.7903              2976.1543              3005.2919
 Red. masses --      5.0173                 1.0566                 1.0721
 Frc consts  --      7.9876                 5.5143                 5.7052
 IR Inten    --    382.5502                80.2046                56.6035

                     58                     59                     60
                      A                      A                      A
 Frequencies --   3014.8854              3028.3146              3067.7151
 Red. masses --      1.0409                 1.0630                 1.0867
 Frc consts  --      5.5742                 5.7436                 6.0253
 IR Inten    --     52.1185                66.1787                16.4181

                     61                     62                     63
                      A                      A                      A
 Frequencies --   3068.4653              3079.9268              3108.9348
 Red. masses --      1.0999                 1.0971                 1.1019
 Frc consts  --      6.1017                 6.1318                 6.2753
 IR Inten    --     58.9501                40.8870                37.3529

                     64                     65                     66
                      A                      A                      A
 Frequencies --   3145.5639              3156.8652              3262.1307
 Red. masses --      1.0955                 1.0910                 1.0924
 Frc consts  --      6.3864                 6.4059                 6.8492
 IR Inten    --     14.3486                 4.8242                10.2818

                     67                     68                     69
                      A                      A                      A
 Frequencies --   3298.1667              3484.6288              3674.5737
 Red. masses --      1.1032                 1.0730                 1.0799
 Frc consts  --      7.0705                 7.6763                 8.5911
 IR Inten    --      4.9218                 0.8595                33.3066

 - Thermochemistry -
 -------------------
 Temperature   298.150 Kelvin.  Pressure   1.00000 Atm.
 Atom     1 has atomic number  6 and mass  12.00000

 Molecular mass:   154.12185 amu.
 Principal axes and moments of inertia in atomic units:
                           1         2         3
     Eigenvalues --  1029.817582292.747103001.83629
           X            0.99984   0.01552  -0.00943
           Y           -0.01555   0.99987  -0.00352
           Z            0.00937   0.00366   0.99995
 This molecule is an asymmetric top.
 Rotational symmetry number  1.
 Warning -- assumption of classical behavior for rotation
           may cause significant error
 Rotational temperatures (Kelvin)      0.08411     0.03778     0.02885
 Rotational constants (GHZ):           1.75249     0.78715     0.60121
 Zero-point vibrational energy     576805.8 (Joules/Mol)
                                  137.85989 (Kcal/Mol)
 Warning -- explicit consideration of  16 degrees of freedom as
           vibrations may cause significant error
 Vibrational temperatures:     51.60    71.10   132.43   173.30   225.78
          (Kelvin)            263.78   299.41   354.08   398.11   430.75
                              552.80   570.97   588.96   706.13   755.35
                              891.28   938.09   942.27  1053.04  1124.65
                             1205.70  1209.51  1284.80  1346.96  1394.35
                             1454.02  1476.22  1543.51  1576.30  1619.68
                             1648.78  1664.92  1698.12  1712.66  1736.39
                             1765.16  1793.60  1889.07  1918.84  1946.00
                             2005.95  2016.83  2050.35  2126.20  2134.61
                             2149.76  2164.17  2171.51  2184.58  2192.00
                             2201.29  2219.61  2250.44  2265.93  2365.05
                             4282.02  4323.94  4337.75  4357.07  4413.76
                             4414.84  4431.33  4473.06  4525.76  4542.02
                             4693.48  4745.33  5013.60  5286.89

 Zero-point correction=                           0.219694 (Hartree/Particle)
 Thermal correction to Energy=                    0.231427
 Thermal correction to Enthalpy=                  0.232371
 Thermal correction to Gibbs Free Energy=         0.181279
 Sum of electronic and zero-point Energies=           -493.973123
 Sum of electronic and thermal Energies=              -493.961389
 Sum of electronic and thermal Enthalpies=            -493.960445
 Sum of electronic and thermal Free Energies=         -494.011538

                     E (Thermal)             CV                S
                      KCal/Mol        Cal/Mol-Kelvin    Cal/Mol-Kelvin
 Total                  145.223             42.845            107.534
 Electronic               0.000              0.000              0.000
 Translational            0.889              2.981             41.007
 Rotational               0.889              2.981             30.339
 Vibrational            143.445             36.884             36.187
 Vibration     1          0.594              1.982              5.476
 Vibration     2          0.595              1.978              4.841
 Vibration     3          0.602              1.955              3.616
 Vibration     4          0.609              1.932              3.093
 Vibration     5          0.621              1.895              2.587
 Vibration     6          0.631              1.863              2.294
 Vibration     7          0.641              1.828              2.060
 Vibration     8          0.661              1.769              1.758
 Vibration     9          0.678              1.717              1.554
 Vibration    10          0.692              1.675              1.420
 Vibration    11          0.753              1.504              1.023
 Vibration    12          0.763              1.477              0.974
 Vibration    13          0.774              1.450              0.929
 Vibration    14          0.847              1.270              0.682
 Vibration    15          0.880              1.195              0.598
 Vibration    16          0.979              0.991              0.417

                           ! Non-Optimized Parameters !

 1\1\GINC-NODE112\Freq\RB3LYP\6-31G(d)\C7H14N4\VSC10255\08-Dec-2020\0\\
 #N Geom=AllCheck Guess=TCheck SCRF=Check GenChk RB3LYP/6-31G(d) Freq\\
 CID_106552762_JID_1993_neutraal\\0,1\C,0.9577219886,-0.2386970723,0.38
 06166305\N,-0.1699554944,-0.7627145033,1.1554026466\C,-1.3316462833,-1
 .1152471998,0.3519663795\C,-1.1334313285,-2.2771097233,-0.6370419207\N
 ,-0.7269317131,-3.5040497411,0.0554783703\C,-1.7770297785,-4.344239871
 ,0.5931045321\C,0.4591125246,-4.097603074,-0.3299814915\N,1.4469544459
 ,-3.5000148877,-0.9737103473\C,2.4366072075,-4.4595341484,-1.100998523

 Normal termination of Gaussian 16 at Tue Dec  8 21:59:13 2020.

 ----------------------------------------------------------------------
 # B3LYP/6-311++G(d,p) empiricaldispersion=gd3bj scf=xqc pop=npa geom=c
 heck
 ----------------------------------------------------------------------

 ---------------------------------------
 CID_106552762_JID_1993_Energie_neutraal
 ---------------------------------------
 Structure from the checkpoint file:  "JID_1993.chk"
 Charge =  0 Multiplicity = 1

 SCF Done:  E(RB3LYP) =  -494.337581580     A.U. after   14 cycles
 Normal termination of Gaussian 16 at Tue Dec  8 22:01:27 2020.

 ----------------------------------------------------------------------
 # B3LYP/6-311++G(d,p) empiricaldispersion=gd3bj scf=xqc pop=npa geom=c
 heck
 ----------------------------------------------------------------------

 -------------------------------------
 CID_106552762_JID_1993_Energie_kation
 -------------------------------------
 Structure from the checkpoint file:  "JID_1993.chk"
 Charge =  1 Multiplicity = 2

 SCF Done:  E(UB3LYP) =  -494.074959776     A.U. after   21 cycles
 Normal termination of Gaussian 16 at Tue Dec  8 22:06:09 2020.
 Gaussian 16:  ES64L-G16RevA.03 25-Dec-2016

 ------------------------------------
 CID_106552762_JID_1993_Energie_anion
 ------------------------------------
 Structure from the checkpoint file:  "JID_1993.chk"
 Charge = -1 Multiplicity = 2

                         Standard orientation:
 ---------------------------------------------------------------------
 Center     Atomic      Atomic             Coordinates (Angstroms)
 Number     Number       Type             X           Y           Z
 ---------------------------------------------------------------------
      1          6           0       -2.341816   -1.899373   -0.302448
      2          7           0       -2.509762   -0.539636   -0.821537
      3          6           0       -2.515726    0.492890    0.204703
      4          6           0       -1.199634    0.671783    0.981395
      5          7           0       -0.088402    0.995673    0.081135
      6          6           0        0.105017    2.389097   -0.263285
      7          6           0        1.011733    0.160689    0.090710
      8          7           0        1.029009   -1.087089    0.526694
      9          6           0        2.317323   -1.538877    0.297728
     10          6           0        3.084726   -0.568220   -0.278322
     11          7           0        2.233982    0.531798   -0.410825
     12          1           0       -3.166500   -2.118520    0.386993
     13          1           0       -1.389035   -2.079350    0.217611
     14          1           0       -2.414296   -2.605510   -1.136871
     15          1           0       -1.741492   -0.338481   -1.460417
     16          1           0       -2.785509    1.443990   -0.275748
     17          1           0       -3.316560    0.267978    0.921993
     18          1           0       -1.308545    1.465973    1.736297
     19          1           0       -0.933907   -0.247527    1.504094
     20          1           0        0.722743    2.935947    0.470374
     21          1           0        0.568495    2.484449   -1.252988
     22          1           0       -0.869738    2.878058   -0.318936
     23          1           0        2.605772   -2.546431    0.563637
     24          1           0        4.112030   -0.533584   -0.605549
     25          1           0        2.493016    1.439855   -0.761652
 ---------------------------------------------------------------------

 SCF Done:  E(UB3LYP) =  -494.328307074     A.U. after   29 cycles

 The electronic state is 2-A.
 Alpha  occ. eigenvalues --  -14.24718 -14.22852 -14.19537 -14.17498 -10.15046
 Alpha  occ. eigenvalues --  -10.09546 -10.09234 -10.09033 -10.08334 -10.08260
 Alpha  occ. eigenvalues --  -10.07450  -0.91233  -0.83430  -0.79784  -0.75866
 Alpha  occ. eigenvalues --   -0.65046  -0.62987  -0.58786  -0.55947  -0.51024
 Alpha  occ. eigenvalues --   -0.49363  -0.47473  -0.43893  -0.39369  -0.37595
 Alpha  occ. eigenvalues --   -0.36551  -0.35386  -0.34033  -0.32874  -0.31802
 Alpha  occ. eigenvalues --   -0.31114  -0.30587  -0.29027  -0.28918  -0.27651
 Alpha  occ. eigenvalues --   -0.26220  -0.24937  -0.18514  -0.16934  -0.16774
 Alpha  occ. eigenvalues --   -0.12609  -0.08554   0.04493
 Alpha virt. eigenvalues --    0.07116   0.07734   0.08663   0.09270   0.09452
 Alpha virt. eigenvalues --    0.10532   0.10915   0.11719   0.12197   0.12602
 Alpha virt. eigenvalues --    0.13564   0.13786   0.14730   0.15271   0.16035

  Beta  occ. eigenvalues --  -14.24662 -14.22849 -14.19534 -14.17495 -10.15045
  Beta  occ. eigenvalues --  -10.09534 -10.09221 -10.08951 -10.08316 -10.08255
  Beta  occ. eigenvalues --  -10.07450  -0.91198  -0.83408  -0.79772  -0.75807
  Beta  occ. eigenvalues --   -0.65023  -0.62926  -0.58727  -0.55901  -0.50985
  Beta  occ. eigenvalues --   -0.49283  -0.47415  -0.43823  -0.39347  -0.37549
  Beta  occ. eigenvalues --   -0.36517  -0.35332  -0.34001  -0.32828  -0.31776
  Beta  occ. eigenvalues --   -0.31079  -0.30545  -0.28985  -0.28901  -0.27604
  Beta  occ. eigenvalues --   -0.26200  -0.24914  -0.18477  -0.16922  -0.16746
  Beta  occ. eigenvalues --   -0.12601  -0.08531
  Beta virt. eigenvalues --    0.07056   0.07963   0.08279   0.08973   0.09872
  Beta virt. eigenvalues --    0.09958   0.11037   0.11352   0.12348   0.12685
  Beta virt. eigenvalues --    0.13032   0.13591   0.13957   0.14857   0.15798

 Mulliken charges and spin densities:
               1          2
     1  C   -0.253085  -0.162689
     2  N   -0.185114   0.028791
     3  C    0.233648  -0.673964
     4  C   -0.022902  -0.104498
     5  N   -0.034375   0.121965
     6  C    2.160310  -2.553019
     7  C    0.302388  -0.753359
     8  N   -0.183242   0.009275
     9  C    0.699699  -0.641262
    10  C   -0.763813   0.538676
    11  N   -0.379889   0.211279
    12  H    0.075477   0.052928
    13  H    0.146472   0.004729
    14  H    0.085952   0.040097
    15  H    0.210947   0.040458
    16  H   -0.082679   0.257339
    17  H    0.034637   0.081184
    18  H   -0.221908   0.385121
    19  H    0.181128   0.016858
    20  H   -0.677949   0.857997
    21  H   -0.713946   0.873915
    22  H   -0.282686   0.421209
    23  H    0.072742   0.068015
    24  H   -0.961338   1.116776
    25  H   -0.440474   0.762181
 Sum of Mulliken charges =  -1.00000   1.00000

 Dipole moment (field-independent basis, Debye):
    X=             -5.0302    Y=             -6.7918    Z=              2.5280  Tot=              8.8217
 Quadrupole moment (field-independent basis, Debye-Ang):
   XX=           -126.0279   YY=           -118.9854   ZZ=            -97.6386
   XY=             -8.9262   XZ=              3.1348   YZ=              4.7991

 Summary of Natural Population Analysis:

                                       Natural Population
                Natural  -----------------------------------------------
    Atom  No    Charge         Core      Valence    Rydberg      Total
 -----------------------------------------------------------------------
      C    1   -0.18643      0.99966     2.17961    0.00716     3.18643
      N    2   -0.34037      0.99976     2.82937    0.01125     3.84037
      C    3   -0.09120      0.99962     2.07896    0.01261     3.09120
      C    4   -0.09435      0.99960     2.08397    0.01079     3.09435
      N    5   -0.26761      0.99965     2.75458    0.01338     3.76761
      C    6   -0.17971      0.99964     2.17080    0.00927     3.17971
      C    7    0.29044      0.99958     1.69193    0.01804     2.70956
      N    8   -0.29639      0.99968     2.78753    0.00917     3.79639
      C    9   -0.03559      0.99957     2.02202    0.01400     3.03559
      C   10   -0.05130      0.99956     2.03740    0.01434     3.05130
      N   11   -0.28705      0.99966     2.77711    0.01027     3.78705
      H   12    0.08400      0.00000     0.41500    0.00099     0.41600
      H   13    0.09693      0.00000     0.40141    0.00165     0.40307
      H   14    0.09007      0.00000     0.40909    0.00084     0.40993
      H   15    0.17450      0.00000     0.32234    0.00316     0.32550
      H   16    0.09361      0.00000     0.40502    0.00138     0.40639
      H   17    0.08800      0.00000     0.41106    0.00094     0.41200
      H   18    0.09125      0.00000     0.40746    0.00128     0.40875
      H   19    0.11101      0.00000     0.38692    0.00207     0.38899
      H   20    0.09293      0.00000     0.40351    0.00355     0.40707
      H   21    0.10246      0.00000     0.39365    0.00389     0.39754
      H   22    0.10180      0.00000     0.39599    0.00221     0.39820
      H   23    0.09265      0.00000     0.40649    0.00087     0.40735
      H   24    0.10395      0.00000     0.39457    0.00148     0.39605
      H   25    0.21640      0.00000     0.26788    0.01572     0.28360
 =======================================================================
   * Total *    0.00000     10.99600    30.83368    0.17031    42.00000

 Normal termination of Gaussian 16 at Tue Dec  8 22:12:33 2020.
