 Gaussian 16, Revision A.03,

 -----------------------------------------------------------
 # opt freq B3LYP/6-31G(d) empiricaldispersion=gd3bj scf=xqc
 -----------------------------------------------------------

 -------------------------------
 CID_133672563_JID_3184_neutraal
 -------------------------------
 Symbolic Z-matrix:
 Charge =  0 Multiplicity = 1

 SCF Done:  E(RB3LYP) =  -664.447320004     A.U. after   15 cycles
 SCF Done:  E(RB3LYP) =  -664.454528923     A.U. after   13 cycles
 SCF Done:  E(RB3LYP) =  -664.451916936     A.U. after   13 cycles
 SCF Done:  E(RB3LYP) =  -664.454513276     A.U. after   12 cycles
 SCF Done:  E(RB3LYP) =  -664.455475338     A.U. after   10 cycles
 SCF Done:  E(RB3LYP) =  -664.455309458     A.U. after   12 cycles
 SCF Done:  E(RB3LYP) =  -664.456201849     A.U. after   12 cycles
 SCF Done:  E(RB3LYP) =  -664.456378575     A.U. after   12 cycles
 SCF Done:  E(RB3LYP) =  -664.456467153     A.U. after   11 cycles
 SCF Done:  E(RB3LYP) =  -664.456504376     A.U. after    9 cycles
 SCF Done:  E(RB3LYP) =  -664.456514771     A.U. after   10 cycles
 SCF Done:  E(RB3LYP) =  -664.456518761     A.U. after    9 cycles
 SCF Done:  E(RB3LYP) =  -664.456520380     A.U. after    9 cycles
 SCF Done:  E(RB3LYP) =  -664.456521133     A.U. after    8 cycles
 SCF Done:  E(RB3LYP) =  -664.456521337     A.U. after    7 cycles
 Optimization completed.
    -- Stationary point found.
 Normal termination of Gaussian 16 at Wed Dec  9 22:30:20 2020.

 --------------------------------------------------------------------
 #N Geom=AllCheck Guess=TCheck SCRF=Check GenChk RB3LYP/6-31G(d) Freq
 --------------------------------------------------------------------

 Structure from the checkpoint file:  "JID_3184.chk"
 -------------------------------
 CID_133672563_JID_3184_neutraal
 -------------------------------
 Charge =  0 Multiplicity = 1

 SCF Done:  E(RB3LYP) =  -664.456521337     A.U. after    1 cycles

  Exact polarizability: 117.068   6.651 101.291   1.449  -0.133  83.112
 Approx polarizability: 156.418  13.601 150.634   3.000   2.852 135.004

                      1                      2                      3
                      A                      A                      A
 Frequencies --     47.8904                75.7272                91.6316
 Red. masses --      4.1339                 4.5982                 6.4087
 Frc consts  --      0.0056                 0.0155                 0.0317
 IR Inten    --      1.1701                 1.9779                 1.6292

                      4                      5                      6
                      A                      A                      A
 Frequencies --    113.9688               163.4897               167.1655
 Red. masses --      6.0729                 4.2769                 2.1490
 Frc consts  --      0.0465                 0.0674                 0.0354
 IR Inten    --      2.3977                 0.7892                 0.1361

                      7                      8                      9
                      A                      A                      A
 Frequencies --    201.9737               215.3500               239.8503
 Red. masses --      2.4641                 1.6752                 1.3095
 Frc consts  --      0.0592                 0.0458                 0.0444
 IR Inten    --      4.0671                16.2867                76.5199

                     10                     11                     12
                      A                      A                      A
 Frequencies --    255.5544               282.3283               340.3535
 Red. masses --      3.9134                 3.2895                 5.1951
 Frc consts  --      0.1506                 0.1545                 0.3546
 IR Inten    --      7.0095                 3.9765                23.7767

                     13                     14                     15
                      A                      A                      A
 Frequencies --    350.5921               366.8764               412.5851
 Red. masses --      3.5758                 3.3580                 2.5708
 Frc consts  --      0.2590                 0.2663                 0.2578
 IR Inten    --     13.1036                10.7719                 5.2115

                     16                     17                     18
                      A                      A                      A
 Frequencies --    433.1150               447.9572               476.0404
 Red. masses --      1.3707                 2.2074                 3.7062
 Frc consts  --      0.1515                 0.2610                 0.4948
 IR Inten    --     57.6673                 7.6089                 6.0032

                     19                     20                     21
                      A                      A                      A
 Frequencies --    529.2366               581.2021               623.1074
 Red. masses --      1.4469                 3.2629                 1.1142
 Frc consts  --      0.2388                 0.6494                 0.2549
 IR Inten    --    186.5133                35.3847               119.8119

                     22                     23                     24
                      A                      A                      A
 Frequencies --    648.3575               677.2571               714.7353
 Red. masses --      4.2134                 3.3346                 4.6389
 Frc consts  --      1.0435                 0.9012                 1.3962
 IR Inten    --     17.7158                14.4983                18.1280

                     25                     26                     27
                      A                      A                      A
 Frequencies --    764.4676               829.3756               863.4053
 Red. masses --      6.2708                 1.7400                 2.6298
 Frc consts  --      2.1592                 0.7052                 1.1551
 IR Inten    --      5.2603                 1.3698                 2.2497

                     28                     29                     30
                      A                      A                      A
 Frequencies --    868.3190               904.7212               967.0545
 Red. masses --      3.0065                 2.9796                 3.2011
 Frc consts  --      1.3356                 1.4369                 1.7638
 IR Inten    --     17.4404                 8.6815                39.3926

                     31                     32                     33
                      A                      A                      A
 Frequencies --    976.2062              1020.7606              1029.2501
 Red. masses --      3.3695                 1.8951                 2.0727
 Frc consts  --      1.8919                 1.1634                 1.2937
 IR Inten    --     26.6761                31.1683                18.5765

                     34                     35                     36
                      A                      A                      A
 Frequencies --   1067.9833              1105.0094              1116.8241
 Red. masses --      2.6237                 2.5298                 1.8004
 Frc consts  --      1.7632                 1.8200                 1.3231
 IR Inten    --      0.9591                 8.3082                16.9992

                     37                     38                     39
                      A                      A                      A
 Frequencies --   1119.7639              1132.8855              1159.0335
 Red. masses --      1.8212                 1.5808                 1.7146
 Frc consts  --      1.3455                 1.1953                 1.3571
 IR Inten    --     13.2182                54.6923                15.3670

                     40                     41                     42
                      A                      A                      A
 Frequencies --   1178.6384              1217.6970              1256.7253
 Red. masses --      1.9581                 1.4838                 1.6387
 Frc consts  --      1.6027                 1.2963                 1.5249
 IR Inten    --     38.5729                29.6467                 1.1225

                     43                     44                     45
                      A                      A                      A
 Frequencies --   1282.8820              1307.5546              1328.4209
 Red. masses --      1.3307                 1.5202                 1.4684
 Frc consts  --      1.2903                 1.5314                 1.5268
 IR Inten    --      0.2438                40.3998                 2.2807

                     46                     47                     48
                      A                      A                      A
 Frequencies --   1340.4229              1370.1287              1385.8898
 Red. masses --      1.3658                 1.4284                 1.5984
 Frc consts  --      1.4458                 1.5799                 1.8088
 IR Inten    --      4.3997                 4.0406                81.1895

                     49                     50                     51
                      A                      A                      A
 Frequencies --   1431.7783              1435.4373              1461.1220
 Red. masses --      1.4506                 3.1800                 2.0149
 Frc consts  --      1.7521                 3.8605                 2.5345
 IR Inten    --     18.7517               172.2298                57.4564

                     52                     53                     54
                      A                      A                      A
 Frequencies --   1511.8095              1522.3527              1523.5374
 Red. masses --      1.0939                 1.1738                 1.0555
 Frc consts  --      1.4730                 1.6027                 1.4435
 IR Inten    --      6.6611                38.8993                15.3096

                     55                     56                     57
                      A                      A                      A
 Frequencies --   1531.8873              1536.6542              1654.9183
 Red. masses --      1.0980                 1.0942                 1.2137
 Frc consts  --      1.5181                 1.5223                 1.9585
 IR Inten    --      2.0473                14.8815                68.2591

                     58                     59                     60
                      A                      A                      A
 Frequencies --   1735.1688              1764.8422              3057.2013
 Red. masses --      5.6380                10.4307                 1.0833
 Frc consts  --     10.0014                19.1414                 5.9655
 IR Inten    --    187.5758               288.0278                10.2225

                     61                     62                     63
                      A                      A                      A
 Frequencies --   3067.3809              3072.6830              3074.2179
 Red. masses --      1.0641                 1.0385                 1.0636
 Frc consts  --      5.8988                 5.7771                 5.9224
 IR Inten    --     34.6334                26.1154                41.4098

                     64                     65                     66
                      A                      A                      A
 Frequencies --   3122.6878              3137.7910              3151.7494
 Red. masses --      1.0891                 1.1032                 1.1043
 Frc consts  --      6.2571                 6.3996                 6.4628
 IR Inten    --     81.4854                20.2683                11.9937

                     67                     68                     69
                      A                      A                      A
 Frequencies --   3159.0197              3170.1106              3546.9863
 Red. masses --      1.1013                 1.0997                 1.0667
 Frc consts  --      6.4752                 6.5114                 7.9066
 IR Inten    --     17.0356                 8.9962               307.5591

                     70                     71                     72
                      A                      A                      A
 Frequencies --   3576.0257              3686.0517              3773.5072
 Red. masses --      1.0460                 1.1013                 1.0682
 Frc consts  --      7.8809                 8.8162                 8.9616
 IR Inten    --     30.1087                32.0981                70.4384

 - Thermochemistry -
 -------------------
 Temperature   298.150 Kelvin.  Pressure   1.00000 Atm.
 Atom     1 has atomic number  6 and mass  12.00000

 Molecular mass:   187.09569 amu.
 Principal axes and moments of inertia in atomic units:
                           1         2         3
     Eigenvalues --  1712.691792603.085983380.93780
           X            0.99966   0.02616  -0.00130
           Y           -0.02619   0.99882  -0.04094
           Z            0.00023   0.04096   0.99916
 This molecule is an asymmetric top.
 Rotational symmetry number  1.
 Warning -- assumption of classical behavior for rotation
           may cause significant error
 Rotational temperatures (Kelvin)      0.05057     0.03327     0.02562
 Rotational constants (GHZ):           1.05375     0.69331     0.53380
 Zero-point vibrational energy     566758.9 (Joules/Mol)
                                  135.45862 (Kcal/Mol)
 Warning -- explicit consideration of  20 degrees of freedom as
           vibrations may cause significant error
 Vibrational temperatures:     68.90   108.95   131.84   163.98   235.23
          (Kelvin)            240.51   290.60   309.84   345.09   367.69
                              406.21   489.69   504.42   527.85   593.62
                              623.16   644.51   684.92   761.45   836.22
                              896.51   932.84   974.42  1028.34  1099.90
                             1193.29  1242.25  1249.32  1301.69  1391.38
                             1404.54  1468.65  1480.86  1536.59  1589.86
                             1606.86  1611.09  1629.97  1667.59  1695.80
                             1751.99  1808.15  1845.78  1881.28  1911.30
                             1928.57  1971.31  1993.99  2060.01  2065.27
                             2102.23  2175.16  2190.33  2192.03  2204.04
                             2210.90  2381.06  2496.52  2539.21  4398.63
                             4413.28  4420.91  4423.11  4492.85  4514.58
                             4534.66  4545.12  4561.08  5103.32  5145.10
                             5303.41  5429.24

 Zero-point correction=                           0.215867 (Hartree/Particle)
 Thermal correction to Energy=                    0.229355
 Thermal correction to Enthalpy=                  0.230299
 Thermal correction to Gibbs Free Energy=         0.176266
 Sum of electronic and zero-point Energies=           -664.240654
 Sum of electronic and thermal Energies=              -664.227167
 Sum of electronic and thermal Enthalpies=            -664.226222
 Sum of electronic and thermal Free Energies=         -664.280256

                     E (Thermal)             CV                S
                      KCal/Mol        Cal/Mol-Kelvin    Cal/Mol-Kelvin
 Total                  143.922             50.652            113.723
 Electronic               0.000              0.000              0.000
 Translational            0.889              2.981             41.585
 Rotational               0.889              2.981             31.089
 Vibrational            142.145             44.690             41.048
 Vibration     1          0.595              1.978              4.903
 Vibration     2          0.599              1.965              3.999
 Vibration     3          0.602              1.955              3.625
 Vibration     4          0.607              1.938              3.200
 Vibration     5          0.623              1.887              2.509
 Vibration     6          0.624              1.883              2.467
 Vibration     7          0.639              1.837              2.115
 Vibration     8          0.645              1.818              1.998
 Vibration     9          0.657              1.779              1.804
 Vibration    10          0.666              1.753              1.692
 Vibration    11          0.681              1.706              1.520
 Vibration    12          0.720              1.595              1.210
 Vibration    13          0.727              1.574              1.164
 Vibration    14          0.740              1.540              1.093
 Vibration    15          0.776              1.443              0.918
 Vibration    16          0.794              1.398              0.849
 Vibration    17          0.807              1.365              0.802
 Vibration    18          0.833              1.303              0.721
 Vibration    19          0.884              1.185              0.589
 Vibration    20          0.938              1.072              0.483

                           ! Non-Optimized Parameters !
 Normal termination of Gaussian 16 at Wed Dec  9 22:37:56 2020.

 ----------------------------------------------------------------------
 # B3LYP/6-311++G(d,p) empiricaldispersion=gd3bj scf=xqc pop=npa geom=c
 heck
 ----------------------------------------------------------------------

 ---------------------------------------
 CID_133672563_JID_3184_Energie_neutraal
 ---------------------------------------
 Structure from the checkpoint file:  "JID_3184.chk"
 Charge =  0 Multiplicity = 1

 SCF Done:  E(RB3LYP) =  -664.674821630     A.U. after   14 cycles
 Normal termination of Gaussian 16 at Wed Dec  9 22:41:02 2020.

 ----------------------------------------------------------------------
 # B3LYP/6-311++G(d,p) empiricaldispersion=gd3bj scf=xqc pop=npa geom=c
 heck
 ----------------------------------------------------------------------

 -------------------------------------
 CID_133672563_JID_3184_Energie_kation
 -------------------------------------
 Structure from the checkpoint file:  "JID_3184.chk"
 Charge =  1 Multiplicity = 2

 SCF Done:  E(UB3LYP) =  -664.360124361     A.U. after   31 cycles
 Normal termination of Gaussian 16 at Wed Dec  9 22:50:51 2020.
 Gaussian 16:  ES64L-G16RevA.03 25-Dec-2016

 ----------------------------------------------------------------------
 # B3LYP/6-311++G(d,p) empiricaldispersion=gd3bj scf=xqc pop=npa geom=c
 heck
 ----------------------------------------------------------------------

 ------------------------------------
 CID_133672563_JID_3184_Energie_anion
 ------------------------------------
 Structure from the checkpoint file:  "JID_3184.chk"
 Charge = -1 Multiplicity = 2

                         Standard orientation:
 ---------------------------------------------------------------------
 Center     Atomic      Atomic             Coordinates (Angstroms)
 Number     Number       Type             X           Y           Z
 ---------------------------------------------------------------------
      1          6           0       -1.249507   -1.909729    1.295118
      2          6           0       -1.126954   -1.236490   -0.085992
      3          6           0       -1.732801    0.154598   -0.105201
      4          7           0       -0.973885    1.185425   -0.285311
      5          8           0       -1.762001    2.373564   -0.264668
      6          7           0       -3.080874    0.241433    0.131859
      7          6           0        0.286137   -1.243721   -0.686895
      8          8           0        0.449412   -1.543672   -1.863660
      9          7           0        1.338087   -0.934862    0.126653
     10          6           0        1.409760   -0.047543    1.317696
     11          6           0        2.447098    0.819543    0.553702
     12          6           0        2.584108   -0.368438   -0.440272
     13          8           0        1.878175    1.972001   -0.016837
     14          1           0       -0.739740   -1.342369    2.076276
     15          1           0       -0.813343   -2.912416    1.259521
     16          1           0       -2.300233   -2.000996    1.586079
     17          1           0       -1.702872   -1.831246   -0.805567
     18          1           0       -1.102380    3.064813   -0.425219
     19          1           0       -3.640903   -0.563141   -0.111967
     20          1           0       -3.497112    1.139338   -0.079147
     21          1           0        1.811288   -0.586391    2.183067
     22          1           0        0.489316    0.471823    1.582929
     23          1           0        3.345825    1.124100    1.094885
     24          1           0        2.500706   -0.119331   -1.500272
     25          1           0        3.447425   -1.020901   -0.270071
     26          1           0        0.986991    1.708276   -0.330533
 ---------------------------------------------------------------------

 SCF Done:  E(UB3LYP) =  -664.666475930     A.U. after   30 cycles

 The electronic state is 2-A.
 Alpha  occ. eigenvalues --  -19.06326 -19.02294 -18.98961 -14.24728 -14.24315
 Alpha  occ. eigenvalues --  -14.22457 -10.17375 -10.14929 -10.13764 -10.11337
 Alpha  occ. eigenvalues --  -10.11010 -10.10026 -10.07014  -0.97996  -0.94632
 Alpha  occ. eigenvalues --   -0.93156  -0.85191  -0.83849  -0.73870  -0.69406
 Alpha  occ. eigenvalues --   -0.65276  -0.60297  -0.56546  -0.52578  -0.48652
 Alpha  occ. eigenvalues --   -0.45122  -0.44532  -0.43186  -0.41231  -0.39442
 Alpha  occ. eigenvalues --   -0.37607  -0.36506  -0.35766  -0.34243  -0.33673
 Alpha  occ. eigenvalues --   -0.32687  -0.31595  -0.30643  -0.29088  -0.28238
 Alpha  occ. eigenvalues --   -0.28025  -0.26713  -0.25296  -0.24906  -0.21950
 Alpha  occ. eigenvalues --   -0.19898  -0.17720  -0.16012  -0.15258  -0.13240
 Alpha  occ. eigenvalues --    0.04216
 Alpha virt. eigenvalues --    0.06047   0.07290   0.08255   0.08909   0.09662
 Alpha virt. eigenvalues --    0.10170   0.10574   0.11257   0.11740   0.12237
 Alpha virt. eigenvalues --    0.12251   0.13324   0.14066   0.14646   0.15510

  Beta  occ. eigenvalues --  -19.06292 -19.02289 -18.98953 -14.24700 -14.24313
  Beta  occ. eigenvalues --  -14.22365 -10.17371 -10.14918 -10.13755 -10.11318
  Beta  occ. eigenvalues --  -10.11004 -10.10014 -10.06967  -0.97930  -0.94619
  Beta  occ. eigenvalues --   -0.93143  -0.85179  -0.83752  -0.73761  -0.69362
  Beta  occ. eigenvalues --   -0.65245  -0.60269  -0.56472  -0.52550  -0.48568
  Beta  occ. eigenvalues --   -0.45083  -0.44422  -0.43119  -0.41200  -0.39414
  Beta  occ. eigenvalues --   -0.37572  -0.36457  -0.35717  -0.34213  -0.33623
  Beta  occ. eigenvalues --   -0.32645  -0.31548  -0.30612  -0.29055  -0.28193
  Beta  occ. eigenvalues --   -0.27985  -0.26699  -0.25263  -0.24878  -0.21871
  Beta  occ. eigenvalues --   -0.19847  -0.17706  -0.16000  -0.15237  -0.13129
  Beta virt. eigenvalues --    0.06566   0.07348   0.08016   0.08902   0.09465
  Beta virt. eigenvalues --    0.10124   0.10550   0.10928   0.11461   0.12322
  Beta virt. eigenvalues --    0.12457   0.12551   0.13715   0.14514   0.14760

 Mulliken charges and spin densities:
               1          2
     1  C    0.699040  -1.197100
     2  C   -0.044244   0.445254
     3  C    0.270833  -0.484546
     4  N   -0.369145  -0.183999
     5  O   -0.027828   0.058768
     6  N   -0.237348  -0.023185
     7  C    0.373770  -0.872243
     8  O   -0.344575   0.022917
     9  N    0.014375   0.094037
    10  C    0.421470  -0.625635
    11  C   -0.317651  -0.033485
    12  C    0.189059  -0.380860
    13  O   -0.192205  -0.049344
    14  H   -0.246940   0.410235
    15  H   -0.067422   0.227968
    16  H   -0.471705   0.637036
    17  H   -0.138350   0.372996
    18  H    0.095045   0.172817
    19  H   -0.570239   0.854712
    20  H   -0.111305   0.397174
    21  H   -0.438737   0.615621
    22  H    0.148831   0.012959
    23  H   -0.217324   0.421256
    24  H    0.180396   0.015958
    25  H   -0.010668   0.148748
    26  H    0.412866  -0.058058
 Sum of Mulliken charges =  -1.00000   1.00000

 Dipole moment (field-independent basis, Debye):
    X=              5.5593    Y=              2.1363    Z=             -0.6189  Tot=              5.9877
 Quadrupole moment (field-independent basis, Debye-Ang):
   XX=           -142.6397   YY=           -115.9356   ZZ=           -113.9424
   XY=             -6.5569   XZ=             -0.9727   YZ=             -0.1493

 Summary of Natural Population Analysis:

                                       Natural Population
                Natural  -----------------------------------------------
    Atom  No    Charge         Core      Valence    Rydberg      Total
 -----------------------------------------------------------------------
      C    1   -0.28026      0.99964     2.27457    0.00605     3.28026
      C    2   -0.16592      0.99952     2.15386    0.01254     3.16592
      C    3    0.22012      0.99961     1.76134    0.01892     2.77988
      N    4   -0.15757      0.99957     2.64352    0.01447     3.65757
      O    5   -0.29783      0.99990     3.29133    0.00659     4.29783
      N    6   -0.39470      0.99969     2.88524    0.00976     3.89470
      C    7    0.35586      0.99961     1.61941    0.02512     2.64414
      O    8   -0.31961      0.99988     3.31428    0.00545     4.31961
      N    9   -0.26316      0.99964     2.75109    0.01244     3.76316
      C   10   -0.09602      0.99963     2.08619    0.01020     3.09602
      C   11    0.05937      0.99958     1.92519    0.01586     2.94063
      C   12   -0.09089      0.99964     2.08080    0.01045     3.09089
      O   13   -0.38084      0.99989     3.37387    0.00707     4.38084
      H   14    0.10007      0.00000     0.39849    0.00144     0.39993
      H   15    0.10323      0.00000     0.39533    0.00143     0.39677
      H   16    0.10903      0.00000     0.38907    0.00190     0.39097
      H   17    0.11827      0.00000     0.37966    0.00208     0.38173
      H   18    0.23623      0.00000     0.26045    0.00332     0.26377
      H   19    0.20007      0.00000     0.28494    0.01499     0.29993
      H   20    0.20360      0.00000     0.29273    0.00367     0.29640
      H   21    0.09944      0.00000     0.39889    0.00167     0.40056
      H   22    0.10895      0.00000     0.38930    0.00176     0.39105
      H   23    0.08622      0.00000     0.41255    0.00123     0.41378
      H   24    0.10828      0.00000     0.39059    0.00113     0.39172
      H   25    0.09525      0.00000     0.40367    0.00108     0.40475
      H   26    0.24279      0.00000     0.25278    0.00442     0.25721
 =======================================================================
   * Total *   -0.00000     12.99580    36.80915    0.19505    50.00000

 Normal termination of Gaussian 16 at Wed Dec  9 23:00:53 2020.
