 Gaussian 16, Revision A.03,

 -----------------------------------------------------------
 # opt freq B3LYP/6-31G(d) empiricaldispersion=gd3bj scf=xqc
 -----------------------------------------------------------

 ------------------------------
 CID_81643125_JID_6378_neutraal
 ------------------------------
 Symbolic Z-matrix:
 Charge =  0 Multiplicity = 1

 SCF Done:  E(RB3LYP) =  -692.127269943     A.U. after   15 cycles
 SCF Done:  E(RB3LYP) =  -692.136352256     A.U. after   12 cycles
 SCF Done:  E(RB3LYP) =  -692.131772133     A.U. after   13 cycles
 SCF Done:  E(RB3LYP) =  -692.136574484     A.U. after   12 cycles
 SCF Done:  E(RB3LYP) =  -692.137414737     A.U. after   14 cycles
 SCF Done:  E(RB3LYP) =  -692.140689866     A.U. after   12 cycles
 SCF Done:  E(RB3LYP) =  -692.141249082     A.U. after   11 cycles
 SCF Done:  E(RB3LYP) =  -692.141413019     A.U. after   11 cycles
 SCF Done:  E(RB3LYP) =  -692.141579718     A.U. after   11 cycles
 SCF Done:  E(RB3LYP) =  -692.141611385     A.U. after   11 cycles
 SCF Done:  E(RB3LYP) =  -692.141637699     A.U. after    9 cycles
 SCF Done:  E(RB3LYP) =  -692.141642409     A.U. after    9 cycles
 SCF Done:  E(RB3LYP) =  -692.141645983     A.U. after    8 cycles
 SCF Done:  E(RB3LYP) =  -692.141648469     A.U. after    8 cycles
 SCF Done:  E(RB3LYP) =  -692.141649373     A.U. after    8 cycles
 SCF Done:  E(RB3LYP) =  -692.141649581     A.U. after    7 cycles
 Optimization completed.
    -- Stationary point found.
 Normal termination of Gaussian 16 at Thu Dec 10 22:36:16 2020.

 --------------------------------------------------------------------
 #N Geom=AllCheck Guess=TCheck SCRF=Check GenChk RB3LYP/6-31G(d) Freq
 --------------------------------------------------------------------

 Structure from the checkpoint file:  "JID_6378.chk"
 ------------------------------
 CID_81643125_JID_6378_neutraal
 ------------------------------
 Charge =  0 Multiplicity = 1

 SCF Done:  E(RB3LYP) =  -692.141649580     A.U. after    1 cycles

  Exact polarizability: 170.140   3.840 148.635  -8.035   4.228 112.391
 Approx polarizability: 236.173   9.892 219.007 -19.756  12.044 177.583

                      1                      2                      3
                      A                      A                      A
 Frequencies --     36.7442                74.5304                95.3265
 Red. masses --      3.5367                 2.8152                 3.7661
 Frc consts  --      0.0028                 0.0092                 0.0202
 IR Inten    --      0.0746                 0.2086                 1.6578

                      4                      5                      6
                      A                      A                      A
 Frequencies --    102.5706               117.1759               153.0991
 Red. masses --      4.3716                 3.6947                 3.1166
 Frc consts  --      0.0271                 0.0299                 0.0430
 IR Inten    --      1.7666                 0.5994                 2.0229

                      7                      8                      9
                      A                      A                      A
 Frequencies --    189.1983               205.8249               217.2884
 Red. masses --      2.9188                 2.3459                 2.2368
 Frc consts  --      0.0616                 0.0586                 0.0622
 IR Inten    --      1.9882                 0.4457                 5.4122

                     10                     11                     12
                      A                      A                      A
 Frequencies --    233.1379               241.0915               264.3305
 Red. masses --      1.1632                 1.1217                 2.7468
 Frc consts  --      0.0373                 0.0384                 0.1131
 IR Inten    --     19.4317                 2.6483                 0.4460

                     13                     14                     15
                      A                      A                      A
 Frequencies --    300.8632               322.2838               342.2676
 Red. masses --      1.2318                 3.2543                 2.2487
 Frc consts  --      0.0657                 0.1992                 0.1552
 IR Inten    --      1.1629                 1.0635                 1.7549

                     16                     17                     18
                      A                      A                      A
 Frequencies --    350.1504               423.4352               434.3966
 Red. masses --      3.3442                 2.4482                 2.8978
 Frc consts  --      0.2416                 0.2586                 0.3222
 IR Inten    --      3.2131                 0.1368                 3.0579

                     19                     20                     21
                      A                      A                      A
 Frequencies --    442.2628               479.4717               501.6903
 Red. masses --      2.6169                 3.4400                 4.0862
 Frc consts  --      0.3016                 0.4659                 0.6060
 IR Inten    --      3.0150                 0.9084                 3.2989

                     22                     23                     24
                      A                      A                      A
 Frequencies --    595.7407               626.8182               664.0866
 Red. masses --      2.0583                 2.0834                 2.7948
 Frc consts  --      0.4304                 0.4823                 0.7262
 IR Inten    --      8.5759               182.7987                42.9464

                     25                     26                     27
                      A                      A                      A
 Frequencies --    684.4166               699.4957               719.7311
 Red. masses --      5.5966                 3.6672                 3.0589
 Frc consts  --      1.5446                 1.0572                 0.9336
 IR Inten    --     12.6131                27.9485                49.6257

                     28                     29                     30
                      A                      A                      A
 Frequencies --    745.0701               769.2910               798.3805
 Red. masses --      3.7907                 3.3860                 4.6079
 Frc consts  --      1.2398                 1.1807                 1.7305
 IR Inten    --     23.4723                 4.3527                 8.8941

                     31                     32                     33
                      A                      A                      A
 Frequencies --    830.8201               843.8217               865.1348
 Red. masses --      2.7744                 1.6146                 2.6698
 Frc consts  --      1.1283                 0.6773                 1.1773
 IR Inten    --      2.2985                 0.3974                 0.9638

                     34                     35                     36
                      A                      A                      A
 Frequencies --    881.6417               888.4611               895.3846
 Red. masses --      1.4291                 1.8684                 3.4972
 Frc consts  --      0.6545                 0.8689                 1.6519
 IR Inten    --      2.0793                 2.8476                 8.6055

                     37                     38                     39
                      A                      A                      A
 Frequencies --    926.8031               941.5290               957.5112
 Red. masses --      3.6629                 1.2909                 1.9409
 Frc consts  --      1.8537                 0.6742                 1.0484
 IR Inten    --     28.7485                 3.4556                 4.1212

                     40                     41                     42
                      A                      A                      A
 Frequencies --    972.2563               980.1087               994.8656
 Red. masses --      2.5507                 1.4944                 1.9570
 Frc consts  --      1.4206                 0.8458                 1.1412
 IR Inten    --      4.7492                 0.1719                 0.3494

                     43                     44                     45
                      A                      A                      A
 Frequencies --   1018.9932              1034.5280              1045.9594
 Red. masses --      1.8159                 2.5123                 1.8611
 Frc consts  --      1.1109                 1.5842                 1.1996
 IR Inten    --      4.3385                 1.3082                 2.9651

                     46                     47                     48
                      A                      A                      A
 Frequencies --   1096.5887              1099.5945              1111.4234
 Red. masses --      1.8070                 1.6249                 1.8105
 Frc consts  --      1.2803                 1.1576                 1.3177
 IR Inten    --      5.0528                 2.6266                 2.4449

                     49                     50                     51
                      A                      A                      A
 Frequencies --   1132.4875              1151.4712              1162.9667
 Red. masses --      1.2349                 2.2865                 1.9375
 Frc consts  --      0.9331                 1.7862                 1.5439
 IR Inten    --      0.2376                 3.9420                10.8391

                     52                     53                     54
                      A                      A                      A
 Frequencies --   1204.7196              1205.5698              1222.0355
 Red. masses --      1.7112                 1.3419                 1.7556
 Frc consts  --      1.4633                 1.1491                 1.5447
 IR Inten    --      9.3298                 1.5608                 2.1158

                     55                     56                     57
                      A                      A                      A
 Frequencies --   1232.4608              1267.2308              1282.4416
 Red. masses --      1.4056                 1.2797                 1.9089
 Frc consts  --      1.2579                 1.2108                 1.8497
 IR Inten    --      0.2930                 2.0117                 6.8581

                     58                     59                     60
                      A                      A                      A
 Frequencies --   1297.3313              1325.3096              1335.5592
 Red. masses --      1.4238                 1.3094                 1.4012
 Frc consts  --      1.4118                 1.3550                 1.4725
 IR Inten    --     11.0257                 0.2341                 1.3756

                     61                     62                     63
                      A                      A                      A
 Frequencies --   1342.4344              1353.1266              1375.7685
 Red. masses --      1.4236                 1.3434                 2.1203
 Frc consts  --      1.5115                 1.4492                 2.3645
 IR Inten    --      0.5961                 0.2660                 1.3022

                     64                     65                     66
                      A                      A                      A
 Frequencies --   1385.2852              1392.3113              1394.7017
 Red. masses --      1.7832                 1.3346                 1.5427
 Frc consts  --      2.0162                 1.5243                 1.7681
 IR Inten    --      0.8899                 1.1469                 3.2958

                     67                     68                     69
                      A                      A                      A
 Frequencies --   1405.0284              1419.3011              1426.9449
 Red. masses --      2.0445                 2.3295                 1.3506
 Frc consts  --      2.3780                 2.7647                 1.6203
 IR Inten    --      9.4946                 2.8404                 3.6177

                     70                     71                     72
                      A                      A                      A
 Frequencies --   1445.6214              1495.3111              1515.1841
 Red. masses --      1.2354                 4.8867                 1.1162
 Frc consts  --      1.5212                 6.4376                 1.5098
 IR Inten    --      4.7262                92.0586                 0.5367

                     73                     74                     75
                      A                      A                      A
 Frequencies --   1520.9985              1522.3522              1525.7574
 Red. masses --      1.1719                 1.2095                 1.1025
 Frc consts  --      1.5973                 1.6516                 1.5122
 IR Inten    --     12.5533                22.5768                 6.3584

                     76                     77                     78
                      A                      A                      A
 Frequencies --   1531.9117              1536.0377              1537.5625
 Red. masses --      1.5051                 1.0705                 1.1976
 Frc consts  --      2.0810                 1.4882                 1.6681
 IR Inten    --     27.0867                 2.5879                 2.4310

                     79                     80                     81
                      A                      A                      A
 Frequencies --   1547.0358              1553.0043              1659.9336
 Red. masses --      1.0963                 1.1600                 1.9917
 Frc consts  --      1.5460                 1.6483                 3.2334
 IR Inten    --     16.4513                 8.5946                26.0833

                     82                     83                     84
                      A                      A                      A
 Frequencies --   1692.4396              3014.9589              3022.3396
 Red. masses --      2.1009                 1.0750                 1.0492
 Frc consts  --      3.5456                 5.7571                 5.6469
 IR Inten    --    226.1417                11.2316                16.5003

                     85                     86                     87
                      A                      A                      A
 Frequencies --   3036.4699              3042.0890              3051.9299
 Red. masses --      1.0572                 1.0567                 1.0623
 Frc consts  --      5.7430                 5.7617                 5.8297
 IR Inten    --     16.5189                52.3323                29.5647

                     88                     89                     90
                      A                      A                      A
 Frequencies --   3063.4545              3081.1298              3088.7655
 Red. masses --      1.0664                 1.0754                 1.0977
 Frc consts  --      5.8964                 6.0151                 6.1703
 IR Inten    --     24.8446                33.9524                31.5497

                     91                     92                     93
                      A                      A                      A
 Frequencies --   3096.1171              3103.8074              3108.2584
 Red. masses --      1.0930                 1.0992                 1.1030
 Frc consts  --      6.1729                 6.2389                 6.2785
 IR Inten    --     16.1777                52.8598                47.2920

                     94                     95                     96
                      A                      A                      A
 Frequencies --   3113.2634              3122.8972              3151.9659
 Red. masses --      1.1023                 1.1015                 1.0859
 Frc consts  --      6.2949                 6.3293                 6.3564
 IR Inten    --     34.6430                31.6723                14.2006

                     97                     98                     99
                      A                      A                      A
 Frequencies --   3152.7393              3161.8878              3167.3841
 Red. masses --      1.0861                 1.0868                 1.0893
 Frc consts  --      6.3603                 6.4016                 6.4385
 IR Inten    --     13.0211                12.4644                18.5439

                    100                    101                    102
                      A                      A                      A
 Frequencies --   3180.8426              3558.4753              3660.4062
 Red. masses --      1.0923                 1.0479                 1.0978
 Frc consts  --      6.5112                 7.8183                 8.6661
 IR Inten    --     36.3176                30.5817                34.1243

 - Thermochemistry -
 -------------------
 Temperature   298.150 Kelvin.  Pressure   1.00000 Atm.
 Atom     1 has atomic number  6 and mass  12.00000

 Molecular mass:   220.15756 amu.
 Principal axes and moments of inertia in atomic units:
                           1         2         3
     Eigenvalues --  2767.434463775.307055617.87947
           X            0.99821  -0.05954   0.00636
           Y            0.05957   0.99822  -0.00393
           Z           -0.00612   0.00430   0.99997
 This molecule is an asymmetric top.
 Rotational symmetry number  1.
 Warning -- assumption of classical behavior for rotation
           may cause significant error
 Rotational temperatures (Kelvin)      0.03130     0.02294     0.01542
 Rotational constants (GHZ):           0.65214     0.47804     0.32125
 Zero-point vibrational energy     834948.0 (Joules/Mol)
                                  199.55737 (Kcal/Mol)
 Warning -- explicit consideration of  22 degrees of freedom as
           vibrations may cause significant error
 Vibrational temperatures:     52.87   107.23   137.15   147.58   168.59
          (Kelvin)            220.28   272.21   296.14   312.63   335.43
                              346.88   380.31   432.88   463.69   492.45
                              503.79   609.23   625.00   636.32   689.85
                              721.82   857.14   901.85   955.47   984.72
                             1006.42  1035.53  1071.99  1106.84  1148.69
                             1195.36  1214.07  1244.74  1268.49  1278.30
                             1288.26  1333.46  1354.65  1377.65  1398.86
                             1410.16  1431.39  1466.10  1488.46  1504.90
                             1577.75  1582.07  1599.09  1629.40  1656.71
                             1673.25  1733.32  1734.55  1758.24  1773.24
                             1823.26  1845.15  1866.57  1906.82  1921.57
                             1931.46  1946.85  1979.42  1993.12  2003.23
                             2006.66  2021.52  2042.06  2053.06  2079.93
                             2151.42  2180.01  2188.38  2190.33  2195.22
                             2204.08  2210.02  2212.21  2225.84  2234.43
                             2388.27  2435.04  4337.85  4348.47  4368.80
                             4376.89  4391.05  4407.63  4433.06  4444.04
                             4454.62  4465.69  4472.09  4479.29  4493.15
                             4534.98  4536.09  4549.25  4557.16  4576.52
                             5119.85  5266.51

 Zero-point correction=                           0.318015 (Hartree/Particle)
 Thermal correction to Energy=                    0.333426
 Thermal correction to Enthalpy=                  0.334370
 Thermal correction to Gibbs Free Energy=         0.275983
 Sum of electronic and zero-point Energies=           -691.823635
 Sum of electronic and thermal Energies=              -691.808224
 Sum of electronic and thermal Enthalpies=            -691.807280
 Sum of electronic and thermal Free Energies=         -691.865667

                     E (Thermal)             CV                S
                      KCal/Mol        Cal/Mol-Kelvin    Cal/Mol-Kelvin
 Total                  209.228             60.907            122.887
 Electronic               0.000              0.000              0.000
 Translational            0.889              2.981             42.070
 Rotational               0.889              2.981             32.440
 Vibrational            207.450             54.945             48.376
 Vibration     1          0.594              1.982              5.427
 Vibration     2          0.599              1.966              4.030
 Vibration     3          0.603              1.953              3.548
 Vibration     4          0.605              1.947              3.405
 Vibration     5          0.608              1.935              3.146
 Vibration     6          0.619              1.899              2.633
 Vibration     7          0.633              1.855              2.236
 Vibration     8          0.640              1.832              2.080
 Vibration     9          0.646              1.815              1.982
 Vibration    10          0.654              1.790              1.855
 Vibration    11          0.658              1.777              1.795
 Vibration    12          0.671              1.738              1.633
 Vibration    13          0.693              1.672              1.412
 Vibration    14          0.707              1.631              1.298
 Vibration    15          0.721              1.591              1.202
 Vibration    16          0.727              1.575              1.166
 Vibration    17          0.786              1.419              0.880
 Vibration    18          0.795              1.395              0.844
 Vibration    19          0.802              1.378              0.820
 Vibration    20          0.836              1.296              0.711
 Vibration    21          0.857              1.246              0.654
 Vibration    22          0.954              1.041              0.457

                           ! Non-Optimized Parameters !
 Normal termination of Gaussian 16 at Thu Dec 10 22:49:59 2020.

 ----------------------------------------------------------------------
 # B3LYP/6-311++G(d,p) empiricaldispersion=gd3bj scf=xqc pop=npa geom=c
 heck
 ----------------------------------------------------------------------

 --------------------------------------
 CID_81643125_JID_6378_Energie_neutraal
 --------------------------------------
 Structure from the checkpoint file:  "JID_6378.chk"
 Charge =  0 Multiplicity = 1

 SCF Done:  E(RB3LYP) =  -692.331548583     A.U. after   16 cycles
 Normal termination of Gaussian 16 at Thu Dec 10 22:58:32 2020.

 ----------------------------------------------------------------------
 # B3LYP/6-311++G(d,p) empiricaldispersion=gd3bj scf=xqc pop=npa geom=c
 heck
 ----------------------------------------------------------------------

 ------------------------------------
 CID_81643125_JID_6378_Energie_kation
 ------------------------------------
 Structure from the checkpoint file:  "JID_6378.chk"
 Charge =  1 Multiplicity = 2

 SCF Done:  E(UB3LYP) =  -692.045529957     A.U. after   23 cycles
 Normal termination of Gaussian 16 at Thu Dec 10 23:12:58 2020.
 Gaussian 16:  ES64L-G16RevA.03 25-Dec-2016

 ----------------------------------------------------------------------
 # B3LYP/6-311++G(d,p) empiricaldispersion=gd3bj scf=xqc pop=npa geom=c
 heck
 ----------------------------------------------------------------------

 -----------------------------------
 CID_81643125_JID_6378_Energie_anion
 -----------------------------------
 Structure from the checkpoint file:  "JID_6378.chk"
 Charge = -1 Multiplicity = 2

                         Standard orientation:
 ---------------------------------------------------------------------
 Center     Atomic      Atomic             Coordinates (Angstroms)
 Number     Number       Type             X           Y           Z
 ---------------------------------------------------------------------
      1          6           0       -2.703873    1.759474   -0.861298
      2          6           0       -1.239121    1.937223   -0.448161
      3          6           0       -0.973459    3.370744    0.023958
      4          6           0       -0.815169    0.929004    0.647469
      5          6           0       -0.834425   -0.514144    0.233467
      6          6           0       -1.934283   -1.328392    0.374921
      7          8           0       -1.704250   -2.552931   -0.112123
      8          7           0       -0.380635   -2.593887   -0.606371
      9          6           0        0.123952   -1.387074   -0.394004
     10          6           0        1.554913   -1.316474   -0.813498
     11          6           0        2.526591   -0.181644   -1.087693
     12          6           0        2.741490   -1.087471    0.107253
     13          6           0        2.538368   -0.249045    1.369691
     14          6           0        2.729699    1.216963    0.908289
     15          6           0        2.333902    1.249798   -0.590611
     16          7           0       -3.162117   -1.125562    0.971449
     17          1           0       -3.374694    1.957707   -0.012461
     18          1           0       -2.894646    0.747374   -1.232711
     19          1           0       -2.976560    2.461034   -1.657444
     20          1           0       -0.624502    1.742575   -1.337601
     21          1           0       -1.553302    3.595547    0.928610
     22          1           0        0.085790    3.522041    0.262176
     23          1           0       -1.254793    4.101965   -0.742279
     24          1           0        0.171123    1.206509    1.020603
     25          1           0       -1.491890    1.055279    1.506263
     26          1           0        1.729910   -2.152211   -1.487394
     27          1           0        3.122478   -0.312863   -1.987231
     28          1           0        3.515961   -1.849357    0.113574
     29          1           0        1.541556   -0.411830    1.795750
     30          1           0        3.259143   -0.525709    2.145257
     31          1           0        2.173321    1.938011    1.518299
     32          1           0        3.790501    1.479288    0.997583
     33          1           0        1.314568    1.605428   -0.742605
     34          1           0        2.981973    1.928653   -1.154809
     35          1           0       -3.845413   -1.834244    0.731019
     36          1           0       -3.528767   -0.189374    0.858113
 ---------------------------------------------------------------------

 SCF Done:  E(UB3LYP) =  -692.321370616     A.U. after   32 cycles

 The electronic state is 2-A.
 Alpha  occ. eigenvalues --  -19.10161 -14.24539 -14.23850 -10.17132 -10.11847
 Alpha  occ. eigenvalues --  -10.09544 -10.08911 -10.08606 -10.08362 -10.08141
 Alpha  occ. eigenvalues --  -10.07756 -10.07735 -10.07594 -10.07562 -10.06617
 Alpha  occ. eigenvalues --  -10.06367  -1.04073  -0.83758  -0.79874  -0.76203
 Alpha  occ. eigenvalues --   -0.72434  -0.67771  -0.67656  -0.61997  -0.59719
 Alpha  occ. eigenvalues --   -0.59336  -0.55784  -0.50648  -0.49575  -0.47753
 Alpha  occ. eigenvalues --   -0.46019  -0.45936  -0.42747  -0.41702  -0.40607
 Alpha  occ. eigenvalues --   -0.38555  -0.37999  -0.36613  -0.34612  -0.34189
 Alpha  occ. eigenvalues --   -0.33588  -0.32232  -0.31502  -0.30811  -0.29597
 Alpha  occ. eigenvalues --   -0.29283  -0.27326  -0.26477  -0.25483  -0.25174
 Alpha  occ. eigenvalues --   -0.24888  -0.24743  -0.24178  -0.24007  -0.23159
 Alpha  occ. eigenvalues --   -0.22106  -0.20535  -0.18536  -0.16362  -0.12072
 Alpha  occ. eigenvalues --    0.03951
 Alpha virt. eigenvalues --    0.05386   0.06819   0.07327   0.07949   0.08498
 Alpha virt. eigenvalues --    0.09071   0.09258   0.09495   0.10005   0.10743
 Alpha virt. eigenvalues --    0.11280   0.11659   0.11872   0.12060   0.12848

  Beta  occ. eigenvalues --  -19.10158 -14.24533 -14.23786 -10.17126 -10.11845
  Beta  occ. eigenvalues --  -10.09544 -10.08902 -10.08599 -10.08356 -10.08127
  Beta  occ. eigenvalues --  -10.07754 -10.07727 -10.07576 -10.07549 -10.06593
  Beta  occ. eigenvalues --  -10.06322  -1.04064  -0.83681  -0.79853  -0.76184
  Beta  occ. eigenvalues --   -0.72407  -0.67746  -0.67622  -0.61970  -0.59676
  Beta  occ. eigenvalues --   -0.59273  -0.55763  -0.50607  -0.49517  -0.47691
  Beta  occ. eigenvalues --   -0.45993  -0.45895  -0.42695  -0.41656  -0.40578
  Beta  occ. eigenvalues --   -0.38516  -0.37978  -0.36588  -0.34585  -0.34161
  Beta  occ. eigenvalues --   -0.33553  -0.32213  -0.31476  -0.30778  -0.29563
  Beta  occ. eigenvalues --   -0.29250  -0.27300  -0.26457  -0.25454  -0.25147
  Beta  occ. eigenvalues --   -0.24855  -0.24712  -0.24144  -0.23977  -0.23122
  Beta  occ. eigenvalues --   -0.22082  -0.20516  -0.18520  -0.16355  -0.12046
  Beta virt. eigenvalues --    0.05980   0.06736   0.07549   0.07705   0.08513
  Beta virt. eigenvalues --    0.08946   0.09312   0.09530   0.09826   0.10291
  Beta virt. eigenvalues --    0.11116   0.11612   0.11970   0.12069   0.12225

 Mulliken charges and spin densities:
               1          2
     1  C    1.036130  -1.775761
     2  C   -2.183266   2.517388
     3  C    0.207668  -0.906101
     4  C    0.364893  -1.132726
     5  C    0.585252   0.379416
     6  C    0.333568  -0.547426
     7  O    0.173210  -0.010446
     8  N   -0.438742   0.019926
     9  C    0.685105  -0.616887
    10  C   -0.358115  -0.121543
    11  C   -0.173293  -0.229586
    12  C   -0.180876   0.259355
    13  C    0.074135  -0.533618
    14  C   -0.110991  -0.313158
    15  C    0.183101  -0.438159
    16  N   -0.320846   0.020503
    17  H   -0.228109   0.383189
    18  H   -0.096929   0.270293
    19  H   -0.250713   0.392949
    20  H    0.103510   0.059348
    21  H   -0.065830   0.209400
    22  H   -0.050499   0.165277
    23  H   -0.166923   0.314921
    24  H    0.547743  -0.440025
    25  H   -0.083714   0.313262
    26  H    0.232157   0.005184
    27  H   -0.163581   0.399275
    28  H   -0.056616   0.288916
    29  H    0.123862   0.022227
    30  H   -0.018691   0.188344
    31  H   -0.061834   0.213584
    32  H   -0.273655   0.431515
    33  H    0.266498  -0.166318
    34  H   -0.212526   0.398031
    35  H   -0.281170   0.570169
    36  H   -0.139911   0.409280
 Sum of Mulliken charges =  -1.00000   1.00000

 Dipole moment (field-independent basis, Debye):
    X=              3.2503    Y=             -0.9561    Z=             -0.0663  Tot=              3.3887
 Quadrupole moment (field-independent basis, Debye-Ang):
   XX=           -182.0024   YY=           -154.3937   ZZ=           -129.9431
   XY=             -2.8186   XZ=              2.9055   YZ=             -0.0087

 Summary of Natural Population Analysis:

                                       Natural Population
                Natural  -----------------------------------------------
    Atom  No    Charge         Core      Valence    Rydberg      Total
 -----------------------------------------------------------------------
      C    1   -0.28715      0.99964     2.28099    0.00652     3.28715
      C    2   -0.11088      0.99961     2.10305    0.00822     3.11088
      C    3   -0.28486      0.99965     2.27943    0.00578     3.28486
      C    4   -0.20127      0.99958     2.19215    0.00953     3.20127
      C    5   -0.10872      0.99941     2.09966    0.00965     3.10872
      C    6    0.26961      0.99944     1.71426    0.01669     2.73039
      O    7   -0.17896      0.99984     3.17083    0.00828     4.17896
      N    8   -0.10245      0.99968     2.59154    0.01123     3.60245
      C    9    0.09537      0.99954     1.89156    0.01352     2.90463
      C   10   -0.12391      0.99952     2.11176    0.01263     3.12391
      C   11   -0.09853      0.99958     2.08908    0.00988     3.09853
      C   12   -0.09926      0.99957     2.08997    0.00972     3.09926
      C   13   -0.19851      0.99963     2.19082    0.00806     3.19851
      C   14   -0.19023      0.99964     2.18276    0.00782     3.19023
      C   15   -0.19975      0.99961     2.19185    0.00829     3.19975
      N   16   -0.39959      0.99970     2.88982    0.01006     3.89959
      H   17    0.09554      0.00000     0.40248    0.00198     0.40446
      H   18    0.10145      0.00000     0.39702    0.00153     0.39855
      H   19    0.10168      0.00000     0.39739    0.00093     0.39832
      H   20    0.09251      0.00000     0.40549    0.00200     0.40749
      H   21    0.09778      0.00000     0.40124    0.00098     0.40222
      H   22    0.09905      0.00000     0.39993    0.00102     0.40095
      H   23    0.09977      0.00000     0.39942    0.00081     0.40023
      H   24    0.10752      0.00000     0.39013    0.00235     0.39248
      H   25    0.10254      0.00000     0.39608    0.00138     0.39746
      H   26    0.11459      0.00000     0.38353    0.00188     0.38541
      H   27    0.10547      0.00000     0.39357    0.00096     0.39453
      H   28    0.10349      0.00000     0.39553    0.00098     0.39651
      H   29    0.10031      0.00000     0.39827    0.00142     0.39969
      H   30    0.10290      0.00000     0.39624    0.00086     0.39710
      H   31    0.09763      0.00000     0.40141    0.00096     0.40237
      H   32    0.09869      0.00000     0.39972    0.00159     0.40131
      H   33    0.10003      0.00000     0.39768    0.00229     0.39997
      H   34    0.10350      0.00000     0.39525    0.00125     0.39650
      H   35    0.19521      0.00000     0.30143    0.00337     0.30479
      H   36    0.19941      0.00000     0.29650    0.00409     0.30059
 =======================================================================
   * Total *   -0.00000     15.99366    43.81782    0.18852    60.00000

 Normal termination of Gaussian 16 at Thu Dec 10 23:29:49 2020.
