 Gaussian 16, Revision A.03,

 -----------------------------------------------------------
 # opt freq B3LYP/6-31G(d) empiricaldispersion=gd3bj scf=xqc
 -----------------------------------------------------------

 -------------------------------
 CID_130011685_JID_4297_neutraal
 -------------------------------
 Symbolic Z-matrix:
 Charge =  0 Multiplicity = 1

 SCF Done:  E(RB3LYP) =  -614.764921776     A.U. after   14 cycles
 SCF Done:  E(RB3LYP) =  -614.770027638     A.U. after   12 cycles
 SCF Done:  E(RB3LYP) =  -614.770501805     A.U. after   12 cycles
 SCF Done:  E(RB3LYP) =  -614.771179179     A.U. after   11 cycles
 SCF Done:  E(RB3LYP) =  -614.771326769     A.U. after   11 cycles
 SCF Done:  E(RB3LYP) =  -614.771398737     A.U. after   11 cycles
 SCF Done:  E(RB3LYP) =  -614.771426009     A.U. after   10 cycles
 SCF Done:  E(RB3LYP) =  -614.771474462     A.U. after   10 cycles
 SCF Done:  E(RB3LYP) =  -614.771496698     A.U. after   10 cycles
 SCF Done:  E(RB3LYP) =  -614.771513112     A.U. after   10 cycles
 SCF Done:  E(RB3LYP) =  -614.771537311     A.U. after    7 cycles
 SCF Done:  E(RB3LYP) =  -614.771537300     A.U. after    7 cycles
 SCF Done:  E(RB3LYP) =  -614.771537282     A.U. after    7 cycles
 SCF Done:  E(RB3LYP) =  -614.771537263     A.U. after    7 cycles
 SCF Done:  E(RB3LYP) =  -614.771537252     A.U. after    6 cycles
 Optimization completed.
    -- Stationary point found.
 Normal termination of Gaussian 16 at Thu Dec 10 09:31:57 2020.

 --------------------------------------------------------------------
 #N Geom=AllCheck Guess=TCheck SCRF=Check GenChk RB3LYP/6-31G(d) Freq
 --------------------------------------------------------------------

 Structure from the checkpoint file:  "JID_4297.chk"
 -------------------------------
 CID_130011685_JID_4297_neutraal
 -------------------------------
 Charge =  0 Multiplicity = 1

 SCF Done:  E(RB3LYP) =  -614.771537252     A.U. after    1 cycles

  Exact polarizability: 145.917   1.833 115.849  -4.403   0.838 106.971
 Approx polarizability: 186.651   2.185 179.293  -1.479   5.016 166.638

                      1                      2                      3
                      A                      A                      A
 Frequencies --     12.8710                52.0134                76.9664
 Red. masses --      3.8567                 3.4297                 4.6323
 Frc consts  --      0.0004                 0.0055                 0.0162
 IR Inten    --      0.4661                 0.0918                 4.1072

                      4                      5                      6
                      A                      A                      A
 Frequencies --     94.7147               123.0979               165.4925
 Red. masses --      1.8140                 2.5082                 1.5452
 Frc consts  --      0.0096                 0.0224                 0.0249
 IR Inten    --      1.7134                 2.1814                 0.7649

                      7                      8                      9
                      A                      A                      A
 Frequencies --    175.3568               201.9920               243.4605
 Red. masses --      3.0727                 1.9188                 1.6441
 Frc consts  --      0.0557                 0.0461                 0.0574
 IR Inten    --      2.2022                 0.8671                 4.6376

                     10                     11                     12
                      A                      A                      A
 Frequencies --    267.1086               304.8833               338.4774
 Red. masses --      2.3102                 2.3302                 2.7368
 Frc consts  --      0.0971                 0.1276                 0.1847
 IR Inten    --      2.5091                 0.6412                 3.0081

                     13                     14                     15
                      A                      A                      A
 Frequencies --    378.6809               400.5317               414.6235
 Red. masses --      2.3441                 2.4083                 3.4292
 Frc consts  --      0.1981                 0.2276                 0.3473
 IR Inten    --      0.8868                 3.7115                 3.4480

                     16                     17                     18
                      A                      A                      A
 Frequencies --    485.0414               500.0928               542.8231
 Red. masses --      1.8877                 2.7237                 3.3294
 Frc consts  --      0.2617                 0.4013                 0.5780
 IR Inten    --      0.3179                 2.3803                28.9427

                     19                     20                     21
                      A                      A                      A
 Frequencies --    596.9629               648.8974               676.3215
 Red. masses --      4.6653                 3.0398                 4.1148
 Frc consts  --      0.9795                 0.7541                 1.1089
 IR Inten    --     20.8592                 7.4971                 2.8512

                     22                     23                     24
                      A                      A                      A
 Frequencies --    741.9900               756.1353               766.4324
 Red. masses --      1.4574                 5.1427                 2.6404
 Frc consts  --      0.4727                 1.7324                 0.9138
 IR Inten    --     33.7563                 0.0094                11.1802

                     25                     26                     27
                      A                      A                      A
 Frequencies --    787.2362               806.7010               826.7037
 Red. masses --      3.5973                 3.5153                 2.3617
 Frc consts  --      1.3135                 1.3478                 0.9510
 IR Inten    --      2.7760                27.6783                67.3821

                     28                     29                     30
                      A                      A                      A
 Frequencies --    837.1603               880.3315               894.4889
 Red. masses --      1.6353                 2.3222                 2.4389
 Frc consts  --      0.6753                 1.0603                 1.1497
 IR Inten    --      5.3680                 3.4458                 0.8340

                     31                     32                     33
                      A                      A                      A
 Frequencies --    936.0915               945.7845               957.2191
 Red. masses --      2.0218                 1.8979                 1.4692
 Frc consts  --      1.0438                 1.0003                 0.7931
 IR Inten    --      8.5615                 2.5186                 0.8075

                     34                     35                     36
                      A                      A                      A
 Frequencies --    967.7709               998.5421              1025.6325
 Red. masses --      2.6289                 2.0699                 2.0624
 Frc consts  --      1.4507                 1.2160                 1.2782
 IR Inten    --      1.7757                 2.3479                 4.2683

                     37                     38                     39
                      A                      A                      A
 Frequencies --   1038.3708              1081.3190              1094.0342
 Red. masses --      1.8067                 1.6212                 1.4722
 Frc consts  --      1.1477                 1.1168                 1.0382
 IR Inten    --     25.3664                18.3776                23.5604

                     40                     41                     42
                      A                      A                      A
 Frequencies --   1095.6705              1132.2890              1144.2857
 Red. masses --      1.3773                 1.6011                 1.9513
 Frc consts  --      0.9742                 1.2094                 1.5053
 IR Inten    --     12.9100                 4.8215                27.6218

                     43                     44                     45
                      A                      A                      A
 Frequencies --   1145.5675              1164.0953              1182.8961
 Red. masses --      1.2212                 1.5174                 1.3883
 Frc consts  --      0.9442                 1.2115                 1.1445
 IR Inten    --      0.4272                21.5715                 6.7694

                     46                     47                     48
                      A                      A                      A
 Frequencies --   1184.5121              1196.9983              1247.2921
 Red. masses --      1.5623                 1.6095                 1.4973
 Frc consts  --      1.2915                 1.3587                 1.3725
 IR Inten    --     11.0805                50.8217                 1.0244

                     49                     50                     51
                      A                      A                      A
 Frequencies --   1252.6258              1274.1379              1278.7836
 Red. masses --      2.0830                 1.6286                 1.4972
 Frc consts  --      1.9257                 1.5578                 1.4425
 IR Inten    --     71.5672                 1.8098                11.4739

                     52                     53                     54
                      A                      A                      A
 Frequencies --   1298.6213              1310.7312              1318.8301
 Red. masses --      3.7526                 1.4601                 1.4973
 Frc consts  --      3.7286                 1.4780                 1.5344
 IR Inten    --     63.6431                 6.7647                 0.8337

                     55                     56                     57
                      A                      A                      A
 Frequencies --   1339.5521              1347.3900              1389.2485
 Red. masses --      1.4913                 1.5656                 1.7899
 Frc consts  --      1.5766                 1.6747                 2.0354
 IR Inten    --      0.5395                 1.6590                 7.4045

                     58                     59                     60
                      A                      A                      A
 Frequencies --   1401.9341              1441.1600              1461.4448
 Red. masses --      1.4527                 2.1974                 1.1490
 Frc consts  --      1.6822                 2.6890                 1.4459
 IR Inten    --     45.6689               238.6542                 6.8834

                     61                     62                     63
                      A                      A                      A
 Frequencies --   1490.5713              1495.7643              1516.2352
 Red. masses --      1.3282                 1.2740                 1.0704
 Frc consts  --      1.7387                 1.6794                 1.4499
 IR Inten    --     15.9360                51.2137                 9.0906

                     64                     65                     66
                      A                      A                      A
 Frequencies --   1517.1226              1518.2714              1520.4616
 Red. masses --      1.0933                 1.0956                 1.0899
 Frc consts  --      1.4826                 1.4880                 1.4846
 IR Inten    --      3.0359                 1.0894                 3.0002

                     67                     68                     69
                      A                      A                      A
 Frequencies --   1530.8219              1536.3031              1542.8258
 Red. masses --      1.0683                 1.0496                 1.1090
 Frc consts  --      1.4750                 1.4595                 1.5554
 IR Inten    --     22.1233                11.4241                 0.6251

                     70                     71                     72
                      A                      A                      A
 Frequencies --   1563.4894              1659.1408              1769.6979
 Red. masses --      1.2437                 5.9271                 7.1217
 Frc consts  --      1.7913                 9.6130                13.1412
 IR Inten    --     64.6026                 1.5018               325.1827

                     73                     74                     75
                      A                      A                      A
 Frequencies --   3020.0472              3026.7465              3041.0961
 Red. masses --      1.0426                 1.0456                 1.0710
 Frc consts  --      5.6025                 5.6437                 5.8360
 IR Inten    --     35.4514               106.3275                28.6603

                     76                     77                     78
                      A                      A                      A
 Frequencies --   3049.4344              3056.2885              3065.5590
 Red. masses --      1.0639                 1.0616                 1.1039
 Frc consts  --      5.8291                 5.8426                 6.1125
 IR Inten    --     28.8685                50.4329                47.7406

                     79                     80                     81
                      A                      A                      A
 Frequencies --   3071.2277              3086.2829              3103.8674
 Red. masses --      1.0631                 1.0947                 1.1011
 Frc consts  --      5.9079                 6.1437                 6.2499
 IR Inten    --     50.0435                32.2630                 7.5602

                     82                     83                     84
                      A                      A                      A
 Frequencies --   3115.1481              3122.8567              3124.1033
 Red. masses --      1.1032                 1.0889                 1.1043
 Frc consts  --      6.3078                 6.2564                 6.3501
 IR Inten    --     28.0163                49.0766                44.9959

                     85                     86                     87
                      A                      A                      A
 Frequencies --   3135.3784              3177.4761              3187.5866
 Red. masses --      1.0928                 1.0956                 1.0965
 Frc consts  --      6.3295                 6.5170                 6.5645
 IR Inten    --     20.9937                 5.5844                 3.7528

                     88                     89                     90
                      A                      A                      A
 Frequencies --   3208.5775              3237.7989              3562.6068
 Red. masses --      1.0882                 1.1029                 1.0740
 Frc consts  --      6.6007                 6.8121                 8.0317
 IR Inten    --     10.8533                 8.7570                11.6222

 - Thermochemistry -
 -------------------
 Temperature   298.150 Kelvin.  Pressure   1.00000 Atm.
 Atom     1 has atomic number  6 and mass  12.00000

 Molecular mass:   194.14191 amu.
 Principal axes and moments of inertia in atomic units:
                           1         2         3
     Eigenvalues --  1222.373484580.656054666.52895
           X            0.99984  -0.00203  -0.01793
           Y            0.00118   0.99888  -0.04739
           Z            0.01801   0.04736   0.99872
 This molecule is an asymmetric top.
 Rotational symmetry number  1.
 Warning -- assumption of classical behavior for rotation
           may cause significant error
 Rotational temperatures (Kelvin)      0.07086     0.01891     0.01856
 Rotational constants (GHZ):           1.47642     0.39399     0.38674
 Zero-point vibrational energy     745890.8 (Joules/Mol)
                                  178.27218 (Kcal/Mol)
 Warning -- explicit consideration of  19 degrees of freedom as
           vibrations may cause significant error
 Vibrational temperatures:     18.52    74.84   110.74   136.27   177.11
          (Kelvin)            238.11   252.30   290.62   350.29   384.31
                              438.66   486.99   544.84   576.28   596.55
                              697.87   719.52   781.00   858.90   933.62
                              973.08  1067.56  1087.91  1102.73  1132.66
                             1160.66  1189.44  1204.49  1266.60  1286.97
                             1346.83  1360.77  1377.22  1392.41  1436.68
                             1475.66  1493.98  1555.78  1574.07  1576.43
                             1629.11  1646.37  1648.22  1674.87  1701.92
                             1704.25  1722.21  1794.58  1802.25  1833.20
                             1839.88  1868.43  1885.85  1897.50  1927.32
                             1938.59  1998.82  2017.07  2073.51  2102.69
                             2144.60  2152.07  2181.52  2182.80  2184.45
                             2187.61  2202.51  2210.40  2219.78  2249.51
                             2387.13  2546.20  4345.17  4354.81  4375.46
                             4387.46  4397.32  4410.66  4418.81  4440.47
                             4465.77  4482.00  4493.09  4494.89  4511.11
                             4571.68  4586.23  4616.43  4658.47  5125.80

 Zero-point correction=                           0.284095 (Hartree/Particle)
 Thermal correction to Energy=                    0.297780
 Thermal correction to Enthalpy=                  0.298724
 Thermal correction to Gibbs Free Energy=         0.242359
 Sum of electronic and zero-point Energies=           -614.487442
 Sum of electronic and thermal Energies=              -614.473757
 Sum of electronic and thermal Enthalpies=            -614.472813
 Sum of electronic and thermal Free Energies=         -614.529179

                     E (Thermal)             CV                S
                      KCal/Mol        Cal/Mol-Kelvin    Cal/Mol-Kelvin
 Total                  186.860             52.609            118.631
 Electronic               0.000              0.000              0.000
 Translational            0.889              2.981             41.696
 Rotational               0.889              2.981             31.636
 Vibrational            185.082             46.648             45.300
 Vibration     1          0.593              1.987              7.510
 Vibration     2          0.596              1.977              4.739
 Vibration     3          0.599              1.965              3.967
 Vibration     4          0.603              1.953              3.560
 Vibration     5          0.610              1.930              3.051
 Vibration     6          0.624              1.885              2.486
 Vibration     7          0.627              1.873              2.377
 Vibration     8          0.639              1.837              2.115
 Vibration     9          0.659              1.774              1.777
 Vibration    10          0.672              1.733              1.615
 Vibration    11          0.696              1.664              1.390
 Vibration    12          0.719              1.599              1.219
 Vibration    13          0.749              1.516              1.044
 Vibration    14          0.766              1.469              0.961
 Vibration    15          0.778              1.438              0.910
 Vibration    16          0.841              1.283              0.697
 Vibration    17          0.856              1.250              0.658
 Vibration    18          0.898              1.155              0.559
 Vibration    19          0.955              1.038              0.455

 Optimization completed.
    -- Stationary point found.
 Normal termination of Gaussian 16 at Thu Dec 10 09:42:25 2020.

 ----------------------------------------------------------------------
 # B3LYP/6-311++G(d,p) empiricaldispersion=gd3bj scf=xqc pop=npa geom=c
 heck
 ----------------------------------------------------------------------

 ---------------------------------------
 CID_130011685_JID_4297_Energie_neutraal
 ---------------------------------------
 Structure from the checkpoint file:  "JID_4297.chk"
 Charge =  0 Multiplicity = 1

 SCF Done:  E(RB3LYP) =  -614.944921056     A.U. after   15 cycles
 Normal termination of Gaussian 16 at Thu Dec 10 09:47:31 2020.

 ----------------------------------------------------------------------
 # B3LYP/6-311++G(d,p) empiricaldispersion=gd3bj scf=xqc pop=npa geom=c
 heck
 ----------------------------------------------------------------------

 -------------------------------------
 CID_130011685_JID_4297_Energie_kation
 -------------------------------------
 Structure from the checkpoint file:  "JID_4297.chk"
 Charge =  1 Multiplicity = 2

 SCF Done:  E(UB3LYP) =  -614.642578957     A.U. after   26 cycles
 Normal termination of Gaussian 16 at Thu Dec 10 10:00:02 2020.
 Gaussian 16:  ES64L-G16RevA.03 25-Dec-2016

 ----------------------------------------------------------------------
 # B3LYP/6-311++G(d,p) empiricaldispersion=gd3bj scf=xqc pop=npa geom=c
 heck
 ----------------------------------------------------------------------

 ------------------------------------
 CID_130011685_JID_4297_Energie_anion
 ------------------------------------
 Structure from the checkpoint file:  "JID_4297.chk"
 Charge = -1 Multiplicity = 2

                         Standard orientation:
 ---------------------------------------------------------------------
 Center     Atomic      Atomic             Coordinates (Angstroms)
 Number     Number       Type             X           Y           Z
 ---------------------------------------------------------------------
      1          6           0       -3.594911   -1.084288    0.763344
      2          7           0       -2.727009   -0.002039    0.331907
      3          6           0       -3.119766    1.329586    0.766239
      4          6           0       -1.919643   -0.230038   -0.763497
      5          8           0       -1.987581   -1.255419   -1.437874
      6          7           0       -1.010644    0.793495   -1.065458
      7          6           0       -0.058288    1.269663   -0.049277
      8          6           0        1.205462    0.425756    0.047200
      9          6           0        2.129215    0.447423   -1.223863
     10          6           0        3.495955   -0.066678   -0.679497
     11          6           0        3.189229   -0.330067    0.833769
     12          6           0        2.232420    0.844327    1.128776
     13          6           0        2.210144   -1.493200    0.866830
     14          6           0        1.037097   -1.052055    0.393654
     15          1           0       -3.698467   -1.054644    1.854082
     16          1           0       -3.157669   -2.034300    0.459410
     17          1           0       -4.596281   -1.003624    0.315470
     18          1           0       -2.854117    1.507267    1.816981
     19          1           0       -2.638497    2.081817    0.142036
     20          1           0       -4.208113    1.446398    0.667809
     21          1           0       -0.545353    0.539119   -1.930824
     22          1           0        0.211424    2.308638   -0.280419
     23          1           0       -0.563605    1.274806    0.918552
     24          1           0        2.215470    1.470390   -1.610848
     25          1           0        1.733075   -0.182487   -2.025725
     26          1           0        3.842707   -0.969977   -1.188421
     27          1           0        4.274737    0.696606   -0.785013
     28          1           0        4.076884   -0.421541    1.463551
     29          1           0        1.812889    0.811112    2.139213
     30          1           0        2.676953    1.830180    0.943215
     31          1           0        2.478062   -2.519105    1.098740
     32          1           0        0.162631   -1.640065    0.137971
 ---------------------------------------------------------------------

 SCF Done:  E(UB3LYP) =  -614.931641683     A.U. after   33 cycles
 SCF Done:  E(UB3LYP) =  -614.931641683     a.u. after    1 cycles

 The electronic state is 2-A.
 Alpha  occ. eigenvalues --  -18.98702 -14.24296 -14.22792 -10.19453 -10.10823
 Alpha  occ. eigenvalues --  -10.10265 -10.09999 -10.09129 -10.08332 -10.07634
 Alpha  occ. eigenvalues --  -10.07467 -10.07130 -10.07050 -10.06882  -0.95177
 Alpha  occ. eigenvalues --   -0.84283  -0.81748  -0.78736  -0.65534  -0.65034
 Alpha  occ. eigenvalues --   -0.62564  -0.60655  -0.59865  -0.56777  -0.49548
 Alpha  occ. eigenvalues --   -0.46919  -0.46301  -0.42763  -0.42175  -0.41547
 Alpha  occ. eigenvalues --   -0.38793  -0.38305  -0.37244  -0.35943  -0.34868
 Alpha  occ. eigenvalues --   -0.33037  -0.31814  -0.30816  -0.30389  -0.30141
 Alpha  occ. eigenvalues --   -0.29562  -0.28513  -0.27857  -0.26340  -0.25504
 Alpha  occ. eigenvalues --   -0.25290  -0.24462  -0.22789  -0.21196  -0.18566
 Alpha  occ. eigenvalues --   -0.15401  -0.14942  -0.14522   0.04206
 Alpha virt. eigenvalues --    0.05870   0.07008   0.07925   0.08256   0.08379
 Alpha virt. eigenvalues --    0.08688   0.09480   0.09956   0.10261   0.10685
 Alpha virt. eigenvalues --    0.11225   0.11529   0.12245   0.12401   0.12727

  Beta  occ. eigenvalues --  -18.98700 -14.24295 -14.22789 -10.19452 -10.10803
  Beta  occ. eigenvalues --  -10.10218 -10.09972 -10.09131 -10.08323 -10.07623
  Beta  occ. eigenvalues --  -10.07449 -10.07121 -10.07028 -10.06875  -0.95173
  Beta  occ. eigenvalues --   -0.84273  -0.81736  -0.78719  -0.65514  -0.65009
  Beta  occ. eigenvalues --   -0.62509  -0.60623  -0.59819  -0.56735  -0.49510
  Beta  occ. eigenvalues --   -0.46880  -0.46257  -0.42740  -0.42144  -0.41511
  Beta  occ. eigenvalues --   -0.38770  -0.38275  -0.37207  -0.35909  -0.34833
  Beta  occ. eigenvalues --   -0.33011  -0.31791  -0.30777  -0.30364  -0.30110
  Beta  occ. eigenvalues --   -0.29537  -0.28481  -0.27833  -0.26311  -0.25474
  Beta  occ. eigenvalues --   -0.25258  -0.24435  -0.22770  -0.21174  -0.18559
  Beta  occ. eigenvalues --   -0.15385  -0.14931  -0.14501
  Beta virt. eigenvalues --    0.06404   0.06944   0.07635   0.08396   0.08669
  Beta virt. eigenvalues --    0.08939   0.09183   0.09836   0.10225   0.10708
  Beta virt. eigenvalues --    0.10974   0.11516   0.11925   0.12561   0.12799

 Mulliken charges and spin densities:
               1          2
     1  C    0.444692  -0.726301
     2  N   -0.078678   0.200959
     3  C    1.056216  -1.463585
     4  C   -0.715201   0.273835
     5  O   -0.313891   0.002775
     6  N    0.032352   0.008913
     7  C    0.264031  -0.661856
     8  C    0.828569   0.117913
     9  C   -0.636841   0.137535
    10  C    1.260661  -1.845611
    11  C   -1.507329   1.942806
    12  C    0.533992  -1.439166
    13  C    0.772108  -1.403473
    14  C   -0.998503   0.769412
    15  H   -0.163878   0.315347
    16  H    0.083978   0.096912
    17  H   -0.092040   0.240895
    18  H   -0.556644   0.742282
    19  H   -0.157537   0.335712
    20  H   -0.363515   0.506335
    21  H    0.191311   0.100167
    22  H   -0.384876   0.577475
    23  H    0.619507  -0.430886
    24  H   -0.009063   0.179932
    25  H    0.121144   0.007792
    26  H   -0.014221   0.163487
    27  H   -0.262898   0.407705
    28  H   -0.649835   0.891786
    29  H   -0.230005   0.380157
    30  H   -0.197392   0.359340
    31  H   -0.100563   0.242421
    32  H    0.224347  -0.031014
 Sum of Mulliken charges =  -1.00000   1.00000

 Dipole moment (field-independent basis, Debye):
    X=              0.6580    Y=             -2.5255    Z=             -2.7678  Tot=              3.8042
 Quadrupole moment (field-independent basis, Debye-Ang):
   XX=           -172.6478   YY=           -127.3254   ZZ=           -126.8338
   XY=             -0.5118   XZ=              1.0042   YZ=             -5.9201

 Summary of Natural Population Analysis:

                                       Natural Population
                Natural  -----------------------------------------------
    Atom  No    Charge         Core      Valence    Rydberg      Total
 -----------------------------------------------------------------------
      C    1   -0.17445      0.99964     2.16652    0.00829     3.17445
      N    2   -0.26613      0.99965     2.75601    0.01047     3.76613
      C    3   -0.17792      0.99963     2.16989    0.00839     3.17792
      C    4    0.41086      0.99965     1.56496    0.02452     2.58914
      O    5   -0.34100      0.99988     3.33642    0.00471     4.34100
      N    6   -0.33935      0.99969     2.82999    0.00967     3.83935
      C    7   -0.08575      0.99952     2.07328    0.01295     3.08575
      C    8   -0.06117      0.99954     2.04605    0.01558     3.06117
      C    9   -0.19100      0.99960     2.18277    0.00862     3.19100
      C   10   -0.18683      0.99963     2.17855    0.00865     3.18683
      C   11   -0.12692      0.99960     2.11418    0.01313     3.12692
      C   12   -0.17675      0.99960     2.16687    0.01028     3.17675
      C   13   -0.09300      0.99952     2.08247    0.01101     3.09300
      C   14   -0.09493      0.99948     2.08447    0.01099     3.09493
      H   15    0.09491      0.00000     0.40399    0.00110     0.40509
      H   16    0.11037      0.00000     0.38869    0.00094     0.38963
      H   17    0.08970      0.00000     0.40924    0.00106     0.41030
      H   18    0.09682      0.00000     0.40096    0.00222     0.40318
      H   19    0.10775      0.00000     0.39070    0.00155     0.39225
      H   20    0.09452      0.00000     0.40374    0.00173     0.40548
      H   21    0.18893      0.00000     0.30874    0.00233     0.31107
      H   22    0.09742      0.00000     0.40109    0.00149     0.40258
      H   23    0.10462      0.00000     0.39295    0.00243     0.39538
      H   24    0.10097      0.00000     0.39788    0.00115     0.39903
      H   25    0.09908      0.00000     0.39977    0.00115     0.40092
      H   26    0.09784      0.00000     0.40123    0.00093     0.40216
      H   27    0.10165      0.00000     0.39687    0.00148     0.39835
      H   28    0.10430      0.00000     0.39417    0.00153     0.39570
      H   29    0.10491      0.00000     0.39367    0.00142     0.39509
      H   30    0.10036      0.00000     0.39781    0.00183     0.39964
      H   31    0.09980      0.00000     0.39932    0.00088     0.40020
      H   32    0.11040      0.00000     0.38838    0.00122     0.38960
 =======================================================================
   * Total *    0.00000     13.99465    38.82167    0.18368    53.00000

 Normal termination of Gaussian 16 at Thu Dec 10 10:16:33 2020.
