 Gaussian 16, Revision A.03,

 -----------------------------------------------------------
 # opt freq B3LYP/6-31G(d) empiricaldispersion=gd3bj scf=xqc
 -----------------------------------------------------------

 ------------------------------
 CID_64632269_JID_6822_neutraal
 ------------------------------
 Symbolic Z-matrix:
 Charge =  0 Multiplicity = 1

 SCF Done:  E(RB3LYP) =  -1000.36080372     A.U. after   14 cycles
 SCF Done:  E(RB3LYP) =  -1000.34373569     A.U. after   13 cycles
 SCF Done:  E(RB3LYP) =  -1000.36687590     A.U. after   12 cycles
 SCF Done:  E(RB3LYP) =  -1000.36719862     A.U. after   14 cycles
 SCF Done:  E(RB3LYP) =  -1000.36682256     A.U. after   13 cycles
 SCF Done:  E(RB3LYP) =  -1000.36697925     A.U. after   12 cycles
 SCF Done:  E(RB3LYP) =  -1000.36778995     A.U. after   10 cycles
 SCF Done:  E(RB3LYP) =  -1000.36794004     A.U. after   12 cycles
 SCF Done:  E(RB3LYP) =  -1000.36795026     A.U. after   11 cycles
 SCF Done:  E(RB3LYP) =  -1000.36817682     A.U. after   11 cycles
 SCF Done:  E(RB3LYP) =  -1000.36818699     A.U. after    9 cycles
 SCF Done:  E(RB3LYP) =  -1000.36818747     A.U. after    9 cycles
 SCF Done:  E(RB3LYP) =  -1000.36818756     A.U. after    7 cycles
 SCF Done:  E(RB3LYP) =  -1000.36818753     A.U. after    6 cycles
 SCF Done:  E(RB3LYP) =  -1000.36818750     A.U. after    6 cycles
 Optimization completed.
    -- Stationary point found.
 Normal termination of Gaussian 16 at Fri Dec 11 01:01:03 2020.

 --------------------------------------------------------------------
 #N Geom=AllCheck Guess=TCheck SCRF=Check GenChk RB3LYP/6-31G(d) Freq
 --------------------------------------------------------------------

 Structure from the checkpoint file:  "JID_6822.chk"
 ------------------------------
 CID_64632269_JID_6822_neutraal
 ------------------------------
 Charge =  0 Multiplicity = 1

 SCF Done:  E(RB3LYP) =  -1000.36818750     A.U. after    1 cycles

  Exact polarizability: 182.038 -19.301 156.536   9.026   9.875 162.833
 Approx polarizability: 263.125 -37.885 238.102  20.616  22.547 260.518

                      1                      2                      3
                      A                      A                      A
 Frequencies --     24.9632                30.0630                46.0707
 Red. masses --      1.0280                 3.0125                 4.1246
 Frc consts  --      0.0004                 0.0016                 0.0052
 IR Inten    --      0.1709                 0.1188                 0.1923

                      4                      5                      6
                      A                      A                      A
 Frequencies --     71.2109                91.3871               110.4228
 Red. masses --      2.9404                 4.5049                 3.2732
 Frc consts  --      0.0088                 0.0222                 0.0235
 IR Inten    --      0.0826                 0.9420                 0.1504

                      7                      8                      9
                      A                      A                      A
 Frequencies --    159.5944               165.6967               191.7830
 Red. masses --      3.0514                 1.6671                 3.9505
 Frc consts  --      0.0458                 0.0270                 0.0856
 IR Inten    --      1.6302                 0.9630                 0.1454

                     10                     11                     12
                      A                      A                      A
 Frequencies --    202.6050               231.7318               241.4053
 Red. masses --      2.0307                 2.8855                 2.5070
 Frc consts  --      0.0491                 0.0913                 0.0861
 IR Inten    --      4.6283                 0.8852                 0.4585

                     13                     14                     15
                      A                      A                      A
 Frequencies --    264.5630               278.4316               287.8722
 Red. masses --      1.1199                 1.3442                 2.0418
 Frc consts  --      0.0462                 0.0614                 0.0997
 IR Inten    --      0.1567                 0.7541                 0.6130

                     16                     17                     18
                      A                      A                      A
 Frequencies --    296.1337               312.7148               320.1607
 Red. masses --      2.2098                 2.5746                 1.2140
 Frc consts  --      0.1142                 0.1483                 0.0733
 IR Inten    --      3.4923                 1.6336                 0.2785

                     19                     20                     21
                      A                      A                      A
 Frequencies --    332.3115               344.8932               353.3254
 Red. masses --      2.6433                 1.9633                 2.3903
 Frc consts  --      0.1720                 0.1376                 0.1758
 IR Inten    --      1.6581                10.9583                 0.5802

                     22                     23                     24
                      A                      A                      A
 Frequencies --    372.4285               407.5669               441.5592
 Red. masses --      1.4935                 2.5945                 2.5837
 Frc consts  --      0.1220                 0.2539                 0.2968
 IR Inten    --     39.8272                 1.7324                 2.5703

                     25                     26                     27
                      A                      A                      A
 Frequencies --    479.3121               521.3022               529.4102
 Red. masses --      3.0820                 3.1895                 3.2245
 Frc consts  --      0.4172                 0.5107                 0.5325
 IR Inten    --     10.6366                 1.0922                 0.1109

                     28                     29                     30
                      A                      A                      A
 Frequencies --    542.7388               576.6876               580.2433
 Red. masses --      4.7626                 3.8831                 3.7929
 Frc consts  --      0.8266                 0.7609                 0.7524
 IR Inten    --      0.3510                 2.3569                 2.1276

                     31                     32                     33
                      A                      A                      A
 Frequencies --    590.8867               636.9943               658.2966
 Red. masses --      3.2638                 3.8750                 4.6237
 Frc consts  --      0.6714                 0.9264                 1.1805
 IR Inten    --      4.2009                 6.4871                 1.7830

                     34                     35                     36
                      A                      A                      A
 Frequencies --    738.6289               784.2732               859.8032
 Red. masses --      3.6287                 3.3326                 1.9330
 Frc consts  --      1.1664                 1.2077                 0.8419
 IR Inten    --      5.1624                 3.4683                27.1704

                     37                     38                     39
                      A                      A                      A
 Frequencies --    876.9141               899.7174               903.2599
 Red. masses --      1.3340                 1.3061                 2.5199
 Frc consts  --      0.6044                 0.6229                 1.2113
 IR Inten    --     21.7785                 0.3774                12.2822

                     40                     41                     42
                      A                      A                      A
 Frequencies --    923.0402               948.9407               953.5004
 Red. masses --      1.7566                 1.1606                 2.6633
 Frc consts  --      0.8818                 0.6158                 1.4266
 IR Inten    --    137.0920                 1.7049                15.0734

                     43                     44                     45
                      A                      A                      A
 Frequencies --    970.5762               973.6694               996.4712
 Red. masses --      2.3435                 1.4656                 3.6667
 Frc consts  --      1.3007                 0.8187                 2.1451
 IR Inten    --     63.3134                 2.5069                18.3781

                     46                     47                     48
                      A                      A                      A
 Frequencies --   1046.9857              1050.8069              1060.8827
 Red. masses --      1.6118                 1.5504                 1.6366
 Frc consts  --      1.0410                 1.0086                 1.0852
 IR Inten    --      2.3348                 2.8373                 1.0397

                     49                     50                     51
                      A                      A                      A
 Frequencies --   1069.5941              1075.1528              1077.9222
 Red. masses --      1.5212                 1.5134                 1.5035
 Frc consts  --      1.0254                 1.0307                 1.0293
 IR Inten    --      5.1279                 7.1696                 3.2396

                     52                     53                     54
                      A                      A                      A
 Frequencies --   1095.1890              1138.8336              1148.4872
 Red. masses --      1.3432                 2.1402                 2.3065
 Frc consts  --      0.9492                 1.6354                 1.7925
 IR Inten    --     11.0260                 5.5620                 2.5955

                     55                     56                     57
                      A                      A                      A
 Frequencies --   1155.5517              1174.8408              1202.5019
 Red. masses --      3.0256                 1.1750                 1.8868
 Frc consts  --      2.3804                 0.9555                 1.6075
 IR Inten    --      4.9259                 2.0191                 7.7082

                     58                     59                     60
                      A                      A                      A
 Frequencies --   1229.9571              1284.3430              1293.6291
 Red. masses --      1.4257                 1.4236                 1.5417
 Frc consts  --      1.2707                 1.3836                 1.5201
 IR Inten    --      0.2338                 3.8589                 3.5723

                     61                     62                     63
                      A                      A                      A
 Frequencies --   1311.9464              1316.4932              1329.7411
 Red. masses --      1.2341                 4.9379                 1.6711
 Frc consts  --      1.2515                 5.0423                 1.7410
 IR Inten    --     24.2818                 0.6054                 7.7958

                     64                     65                     66
                      A                      A                      A
 Frequencies --   1336.4574              1369.2702              1377.6213
 Red. masses --      3.1837                 1.3220                 1.4641
 Frc consts  --      3.3503                 1.4603                 1.6371
 IR Inten    --      6.3595                 1.3299                16.1155

                     67                     68                     69
                      A                      A                      A
 Frequencies --   1429.7186              1438.0393              1441.9869
 Red. masses --      1.2570                 1.3232                 1.2452
 Frc consts  --      1.5139                 1.6122                 1.5255
 IR Inten    --      2.8915                 6.7793                 0.5553

                     70                     71                     72
                      A                      A                      A
 Frequencies --   1446.4854              1447.3048              1451.8072
 Red. masses --      1.2357                 1.2301                 1.2168
 Frc consts  --      1.5233                 1.5182                 1.5110
 IR Inten    --      3.1661                 1.2360                 0.7234

                     73                     74                     75
                      A                      A                      A
 Frequencies --   1464.1634              1473.9843              1487.1850
 Red. masses --      2.1526                 1.1349                 2.1104
 Frc consts  --      2.7188                 1.4527                 2.7500
 IR Inten    --      0.6020                 5.6224                 0.7031

                     76                     77                     78
                      A                      A                      A
 Frequencies --   1517.0811              1517.3505              1521.6757
 Red. masses --      1.0423                 1.0495                 1.0505
 Frc consts  --      1.4134                 1.4236                 1.4331
 IR Inten    --      3.9773                 4.7435                 4.7363

                     79                     80                     81
                      A                      A                      A
 Frequencies --   1523.6620              1525.8096              1527.5104
 Red. masses --      1.0637                 1.1354                 1.0520
 Frc consts  --      1.4550                 1.5574                 1.4462
 IR Inten    --      8.6982                 9.4516                 1.7700

                     82                     83                     84
                      A                      A                      A
 Frequencies --   1533.7096              1539.0946              1544.8628
 Red. masses --      1.0456                 1.2093                 1.0536
 Frc consts  --      1.4492                 1.6877                 1.4815
 IR Inten    --      7.8872                12.5494                 4.7786

                     85                     86                     87
                      A                      A                      A
 Frequencies --   1556.9540              1628.6984              1670.1806
 Red. masses --      1.1270                 6.1139                 5.3387
 Frc consts  --      1.6096                 9.5554                 8.7744
 IR Inten    --      7.5501                 4.5778                15.0770

                     88                     89                     90
                      A                      A                      A
 Frequencies --   1698.4761              3041.3161              3042.0092
 Red. masses --      1.0884                 1.0401                 1.0743
 Frc consts  --      1.8500                 5.6685                 5.8575
 IR Inten    --     24.4583                31.4641                 8.6670

                     91                     92                     93
                      A                      A                      A
 Frequencies --   3043.0352              3047.8850              3051.1220
 Red. masses --      1.0444                 1.0468                 1.0384
 Frc consts  --      5.6981                 5.7293                 5.6955
 IR Inten    --     31.1330                39.8370                22.7139

                     94                     95                     96
                      A                      A                      A
 Frequencies --   3056.5074              3062.1482              3094.3463
 Red. masses --      1.0377                 1.0822                 1.0674
 Frc consts  --      5.7121                 5.9790                 6.0219
 IR Inten    --     31.2464                21.6014                17.0460

                     97                     98                     99
                      A                      A                      A
 Frequencies --   3097.1708              3100.1122              3111.7317
 Red. masses --      1.0966                 1.0959                 1.0973
 Frc consts  --      6.1977                 6.2056                 6.2600
 IR Inten    --     21.7324                22.1794                 8.4752

                    100                    101                    102
                      A                      A                      A
 Frequencies --   3114.3229              3115.1984              3125.2643
 Red. masses --      1.0988                 1.0985                 1.1022
 Frc consts  --      6.2790                 6.2806                 6.3430
 IR Inten    --     46.2270                 6.6806                15.0462

                    103                    104                    105
                      A                      A                      A
 Frequencies --   3128.1981              3136.2258              3136.4821
 Red. masses --      1.1005                 1.1014                 1.1032
 Frc consts  --      6.3451                 6.3830                 6.3943
 IR Inten    --     20.9017                 8.3261                 8.5483

                    106                    107                    108
                      A                      A                      A
 Frequencies --   3159.1457              3168.2645              3169.1498
 Red. masses --      1.1002                 1.0895                 1.0973
 Frc consts  --      6.4692                 6.4435                 6.4935
 IR Inten    --      5.6811                32.9816                 6.7428

                    109                    110                    111
                      A                      A                      A
 Frequencies --   3170.2063              3494.8006              3588.4300
 Red. masses --      1.0899                 1.0503                 1.0910
 Frc consts  --      6.4535                 7.5577                 8.2775
 IR Inten    --     15.6141                 0.9923                 1.2395

 - Thermochemistry -
 -------------------
 Temperature   298.150 Kelvin.  Pressure   1.00000 Atm.
 Atom     1 has atomic number  6 and mass  12.00000

 Molecular mass:   237.15512 amu.
 Principal axes and moments of inertia in atomic units:
                           1         2         3
     Eigenvalues --  2995.403854849.683955234.03639
           X            0.99987  -0.01593  -0.00290
           Y            0.01604   0.99887   0.04472
           Z            0.00218  -0.04476   0.99900
 This molecule is an asymmetric top.
 Rotational symmetry number  1.
 Warning -- assumption of classical behavior for rotation
           may cause significant error
 Rotational temperatures (Kelvin)      0.02892     0.01786     0.01655
 Rotational constants (GHZ):           0.60250     0.37214     0.34481
 Zero-point vibrational energy     911007.6 (Joules/Mol)
                                  217.73605 (Kcal/Mol)
 Warning -- explicit consideration of  31 degrees of freedom as
           vibrations may cause significant error
 Vibrational temperatures:     35.92    43.25    66.29   102.46   131.49
          (Kelvin)            158.87   229.62   238.40   275.93   291.50
                              333.41   347.33   380.65   400.60   414.18
                              426.07   449.93   460.64   478.12   496.22
                              508.36   535.84   586.40   635.31   689.62
                              750.04   761.70   780.88   829.72   834.84
                              850.15   916.49   947.14  1062.72  1128.39
                             1237.07  1261.68  1294.49  1299.59  1328.05
                             1365.31  1371.87  1396.44  1400.89  1433.70
                             1506.38  1511.88  1526.37  1538.91  1546.91
                             1550.89  1575.73  1638.53  1652.42  1662.58
                             1690.33  1730.13  1769.63  1847.88  1861.24
                             1887.60  1894.14  1913.20  1922.86  1970.07
                             1982.09  2057.05  2069.02  2074.70  2081.17
                             2082.35  2088.83  2106.60  2120.73  2139.73
                             2182.74  2183.13  2189.35  2192.21  2195.30
                             2197.75  2206.67  2214.41  2222.71  2240.11
                             2343.33  2403.02  2443.73  4375.78  4376.77
                             4378.25  4385.23  4389.88  4397.63  4405.75
                             4452.07  4456.14  4460.37  4477.09  4480.82
                             4482.08  4496.56  4500.78  4512.33  4512.70
                             4545.31  4558.43  4559.70  4561.22  5028.24
                             5162.95

 Zero-point correction=                           0.346984 (Hartree/Particle)
 Thermal correction to Energy=                    0.365450
 Thermal correction to Enthalpy=                  0.366394
 Thermal correction to Gibbs Free Energy=         0.300442
 Sum of electronic and zero-point Energies=          -1000.021203
 Sum of electronic and thermal Energies=             -1000.002738
 Sum of electronic and thermal Enthalpies=           -1000.001794
 Sum of electronic and thermal Free Energies=        -1000.067745

                     E (Thermal)             CV                S
                      KCal/Mol        Cal/Mol-Kelvin    Cal/Mol-Kelvin
 Total                  229.323             70.192            138.807
 Electronic               0.000              0.000              0.000
 Translational            0.889              2.981             42.292
 Rotational               0.889              2.981             32.697
 Vibrational            227.546             64.231             63.818
 Vibration     1          0.593              1.985              6.194
 Vibration     2          0.594              1.984              5.825
 Vibration     3          0.595              1.979              4.979
 Vibration     4          0.598              1.968              4.120
 Vibration     5          0.602              1.955              3.630
 Vibration     6          0.606              1.941              3.261
 Vibration     7          0.621              1.892              2.555
 Vibration     8          0.624              1.885              2.484
 Vibration     9          0.634              1.851              2.211
 Vibration    10          0.639              1.836              2.109
 Vibration    11          0.653              1.792              1.865
 Vibration    12          0.658              1.777              1.792
 Vibration    13          0.671              1.738              1.631
 Vibration    14          0.679              1.713              1.543
 Vibration    15          0.685              1.696              1.486
 Vibration    16          0.690              1.681              1.439
 Vibration    17          0.701              1.649              1.348
 Vibration    18          0.706              1.635              1.309
 Vibration    19          0.714              1.611              1.249
 Vibration    20          0.723              1.586              1.189
 Vibration    21          0.730              1.568              1.151
 Vibration    22          0.744              1.529              1.070
 Vibration    23          0.772              1.454              0.935
 Vibration    24          0.801              1.380              0.822
 Vibration    25          0.836              1.296              0.712
 Vibration    26          0.876              1.203              0.607
 Vibration    27          0.884              1.185              0.589
 Vibration    28          0.898              1.156              0.559
 Vibration    29          0.933              1.082              0.492
 Vibration    30          0.937              1.074              0.485
 Vibration    31          0.948              1.051              0.466

 Optimization completed.
    -- Stationary point found.
 Normal termination of Gaussian 16 at Fri Dec 11 01:16:56 2020.

 ----------------------------------------------------------------------
 # B3LYP/6-311++G(d,p) empiricaldispersion=gd3bj scf=xqc pop=npa geom=c
 heck
 ----------------------------------------------------------------------

 --------------------------------------
 CID_64632269_JID_6822_Energie_neutraal
 --------------------------------------
 Structure from the checkpoint file:  "JID_6822.chk"
 Charge =  0 Multiplicity = 1

 SCF Done:  E(RB3LYP) =  -1000.56127847     A.U. after   15 cycles
 Normal termination of Gaussian 16 at Fri Dec 11 01:24:26 2020.

 ----------------------------------------------------------------------
 # B3LYP/6-311++G(d,p) empiricaldispersion=gd3bj scf=xqc pop=npa geom=c
 heck
 ----------------------------------------------------------------------

 ------------------------------------
 CID_64632269_JID_6822_Energie_kation
 ------------------------------------
 Structure from the checkpoint file:  "JID_6822.chk"
 Charge =  1 Multiplicity = 2

 SCF Done:  E(UB3LYP) =  -1000.27932773     A.U. after   26 cycles
 Normal termination of Gaussian 16 at Fri Dec 11 01:42:19 2020.
 Gaussian 16:  ES64L-G16RevA.03 25-Dec-2016

 ----------------------------------------------------------------------
 # B3LYP/6-311++G(d,p) empiricaldispersion=gd3bj scf=xqc pop=npa geom=c
 heck
 ----------------------------------------------------------------------

 -----------------------------------
 CID_64632269_JID_6822_Energie_anion
 -----------------------------------
 Structure from the checkpoint file:  "JID_6822.chk"
 Charge = -1 Multiplicity = 2

                         Standard orientation:
 ---------------------------------------------------------------------
 Center     Atomic      Atomic             Coordinates (Angstroms)
 Number     Number       Type             X           Y           Z
 ---------------------------------------------------------------------
      1          6           0       -4.196959    1.169018    0.087015
      2          6           0       -2.900793    0.397691    0.115249
      3          6           0       -2.076837    0.403385    1.237310
      4          6           0       -0.847547   -0.270210    1.282045
      5          6           0       -0.420101   -1.002111    0.151760
      6          6           0       -1.262360   -1.033437   -0.988763
      7          6           0       -2.470859   -0.333854   -0.991541
      8          6           0       -0.914518   -1.827432   -2.231381
      9          6           0        0.896189   -1.788768    0.068543
     10          6           0        2.023916   -1.033744   -0.662931
     11         16           0        2.741782    0.440597    0.166703
     12          6           0        1.908599    1.949350   -0.561628
     13          6           0        1.239989    1.708103   -1.911564
     14          6           0        0.954226    2.613365    0.431180
     15          7           0        1.451761   -2.378011    1.287414
     16          6           0       -0.059178   -0.134573    2.570580
     17          1           0       -4.551835    1.390718    1.098520
     18          1           0       -4.077777    2.126820   -0.436441
     19          1           0       -4.983228    0.612179   -0.434602
     20          1           0       -2.390071    0.962882    2.116173
     21          1           0       -3.096622   -0.370949   -1.880922
     22          1           0        0.033552   -1.517336   -2.683899
     23          1           0       -0.830475   -2.901245   -2.022373
     24          1           0       -1.692549   -1.702642   -2.989739
     25          1           0        0.692096   -2.646768   -0.583847
     26          1           0        2.866452   -1.724925   -0.757764
     27          1           0        1.714011   -0.749505   -1.668033
     28          1           0        2.765802    2.613862   -0.717945
     29          1           0        0.359939    1.065164   -1.810030
     30          1           0        0.900462    2.668807   -2.316890
     31          1           0        1.927273    1.263064   -2.638192
     32          1           0        1.430547    2.759781    1.405440
     33          1           0        0.651500    3.597744    0.049979
     34          1           0        0.053957    2.011161    0.572922
     35          1           0        1.823463   -1.650543    1.891129
     36          1           0        0.718973   -2.849749    1.812461
     37          1           0       -0.531582    0.615417    3.212335
     38          1           0       -0.024967   -1.069498    3.140239
     39          1           0        0.967636    0.191379    2.387106
 ---------------------------------------------------------------------

 SCF Done:  E(UB3LYP) =  -1000.54810445     A.U. after   33 cycles
 SCF Done:  E(UB3LYP) =  -1000.54810444     a.u. after    1 cycles

 The electronic state is 2-A.
 Alpha  occ. eigenvalues --  -88.74024 -14.20215 -10.11576 -10.11366 -10.10434
 Alpha  occ. eigenvalues --  -10.09037 -10.08893 -10.08487 -10.08383 -10.07336
 Alpha  occ. eigenvalues --  -10.07228 -10.07173 -10.07053 -10.07017 -10.06989
 Alpha  occ. eigenvalues --  -10.06518  -7.82652  -5.79050  -5.78657  -5.78040
 Alpha  occ. eigenvalues --   -0.80743  -0.76528  -0.72373  -0.69473  -0.68756
 Alpha  occ. eigenvalues --   -0.66593  -0.61337  -0.60645  -0.59659  -0.58469
 Alpha  occ. eigenvalues --   -0.57005  -0.51518  -0.48305  -0.47498  -0.45482
 Alpha  occ. eigenvalues --   -0.41497  -0.40243  -0.38778  -0.37410  -0.36156
 Alpha  occ. eigenvalues --   -0.34639  -0.33597  -0.33236  -0.32907  -0.32675
 Alpha  occ. eigenvalues --   -0.32097  -0.31508  -0.31135  -0.30425  -0.29984
 Alpha  occ. eigenvalues --   -0.29401  -0.29088  -0.28477  -0.27321  -0.26739
 Alpha  occ. eigenvalues --   -0.26003  -0.24829  -0.24502  -0.23751  -0.23149
 Alpha  occ. eigenvalues --   -0.20225  -0.16102  -0.14747  -0.13981  -0.12970
 Alpha  occ. eigenvalues --    0.04129
 Alpha virt. eigenvalues --    0.06300   0.06513   0.06633   0.07424   0.07790
 Alpha virt. eigenvalues --    0.08415   0.08465   0.09066   0.09241   0.09463
 Alpha virt. eigenvalues --    0.10538   0.10707   0.11199   0.11290   0.11388

  Beta  occ. eigenvalues --  -88.74023 -14.20203 -10.11570 -10.11359 -10.10423
  Beta  occ. eigenvalues --  -10.09036 -10.08891 -10.08487 -10.08380 -10.07304
  Beta  occ. eigenvalues --  -10.07212 -10.07140 -10.07043 -10.06987 -10.06973
  Beta  occ. eigenvalues --  -10.06502  -7.82650  -5.79048  -5.78655  -5.78038
  Beta  occ. eigenvalues --   -0.80725  -0.76516  -0.72352  -0.69453  -0.68739
  Beta  occ. eigenvalues --   -0.66569  -0.61307  -0.60604  -0.59613  -0.58432
  Beta  occ. eigenvalues --   -0.56975  -0.51484  -0.48270  -0.47468  -0.45451
  Beta  occ. eigenvalues --   -0.41469  -0.40216  -0.38764  -0.37375  -0.36126
  Beta  occ. eigenvalues --   -0.34607  -0.33570  -0.33205  -0.32880  -0.32649
  Beta  occ. eigenvalues --   -0.32066  -0.31477  -0.31109  -0.30396  -0.29962
  Beta  occ. eigenvalues --   -0.29371  -0.29063  -0.28452  -0.27298  -0.26714
  Beta  occ. eigenvalues --   -0.25976  -0.24806  -0.24482  -0.23730  -0.23127
  Beta  occ. eigenvalues --   -0.20210  -0.16089  -0.14731  -0.13969  -0.12957
  Beta virt. eigenvalues --    0.06112   0.06954   0.07088   0.07169   0.07675
  Beta virt. eigenvalues --    0.07886   0.08814   0.08941   0.09325   0.09519
  Beta virt. eigenvalues --    0.09785   0.10838   0.10985   0.11533   0.11541

 Mulliken charges and spin densities:
               1          2
     1  C    2.646424  -3.247608
     2  C    0.865070  -0.794089
     3  C   -0.240114  -0.232358
     4  C   -0.053577   0.328493
     5  C   -0.398019   0.783417
     6  C   -1.682997   1.880656
     7  C   -0.467915   0.252985
     8  C    0.481296  -1.051943
     9  C   -0.920560   0.271313
    10  C    0.301382  -0.732830
    11  S    0.234116  -0.219539
    12  C   -0.686449   0.916912
    13  C   -0.118068  -0.687371
    14  C   -0.294064  -0.397453
    15  N   -0.092438  -0.099489
    16  C   -0.002818  -0.616793
    17  H   -0.159842   0.296804
    18  H   -0.262520   0.447557
    19  H   -0.125424   0.264670
    20  H   -0.445034   0.620647
    21  H   -0.462962   0.651461
    22  H   -0.432894   0.570230
    23  H   -0.073614   0.234656
    24  H   -0.460613   0.610822
    25  H   -0.013437   0.188430
    26  H    0.092923   0.182738
    27  H    0.601389  -0.453506
    28  H    0.036003   0.221143
    29  H    0.678525  -0.464402
    30  H   -0.329527   0.477189
    31  H   -0.274677   0.436533
    32  H   -0.019033   0.139007
    33  H   -0.252084   0.402139
    34  H    0.902857  -0.692815
    35  H    0.261834  -0.036392
    36  H    0.073868   0.177165
    37  H   -0.062136   0.203618
    38  H    0.025656   0.143849
    39  H    0.129473   0.024154
 Sum of Mulliken charges =  -1.00000   1.00000

 Dipole moment (field-independent basis, Debye):
    X=              3.4474    Y=             -1.3903    Z=              3.2970  Tot=              4.9686
 Quadrupole moment (field-independent basis, Debye-Ang):
   XX=           -177.6907   YY=           -160.5066   ZZ=           -159.2344
   XY=              5.4865   XZ=             -2.2568   YZ=              0.8328

 Summary of Natural Population Analysis:

                                       Natural Population
                Natural  -----------------------------------------------
    Atom  No    Charge         Core      Valence    Rydberg      Total
 -----------------------------------------------------------------------
      C    1   -0.29055      0.99964     2.28577    0.00515     3.29055
      C    2   -0.01016      0.99950     2.00074    0.00992     3.01016
      C    3   -0.10309      0.99947     2.09421    0.00942     3.10309
      C    4   -0.01195      0.99948     2.00176    0.01071     3.01195
      C    5   -0.03160      0.99941     2.01909    0.01310     3.03160
      C    6   -0.00752      0.99948     1.99780    0.01023     3.00752
      C    7   -0.10006      0.99946     2.09067    0.00993     3.10006
      C    8   -0.29570      0.99963     2.28992    0.00615     3.29570
      C    9   -0.02699      0.99954     2.01388    0.01357     3.02699
      C   10   -0.25010      0.99954     2.23973    0.01083     3.25010
      S   11    0.07124      4.99960     2.91335    0.01581     7.92876
      C   12   -0.15832      0.99958     2.14646    0.01229     3.15832
      C   13   -0.29403      0.99962     2.28758    0.00682     3.29403
      C   14   -0.29031      0.99962     2.28370    0.00700     3.29031
      N   15   -0.42050      0.99977     2.91146    0.00926     3.92050
      C   16   -0.30033      0.99963     2.29434    0.00637     3.30033
      H   17    0.10193      0.00000     0.39683    0.00124     0.39807
      H   18    0.10676      0.00000     0.39182    0.00142     0.39324
      H   19    0.10350      0.00000     0.39519    0.00130     0.39650
      H   20    0.09676      0.00000     0.40171    0.00153     0.40324
      H   21    0.09900      0.00000     0.39939    0.00161     0.40100
      H   22    0.10281      0.00000     0.39574    0.00145     0.39719
      H   23    0.10376      0.00000     0.39494    0.00130     0.39624
      H   24    0.10594      0.00000     0.39287    0.00120     0.39406
      H   25    0.10003      0.00000     0.39769    0.00228     0.39997
      H   26    0.10973      0.00000     0.38912    0.00115     0.39027
      H   27    0.10969      0.00000     0.38880    0.00151     0.39031
      H   28    0.09741      0.00000     0.40132    0.00127     0.40259
      H   29    0.10536      0.00000     0.39262    0.00202     0.39464
      H   30    0.10648      0.00000     0.39221    0.00130     0.39352
      H   31    0.10141      0.00000     0.39742    0.00116     0.39859
      H   32    0.09874      0.00000     0.40025    0.00101     0.40126
      H   33    0.09928      0.00000     0.39953    0.00119     0.40072
      H   34    0.10672      0.00000     0.39113    0.00215     0.39328
      H   35    0.17746      0.00000     0.32031    0.00224     0.32254
      H   36    0.17528      0.00000     0.32303    0.00169     0.32472
      H   37    0.10093      0.00000     0.39808    0.00099     0.39907
      H   38    0.10110      0.00000     0.39789    0.00101     0.39890
      H   39    0.10985      0.00000     0.38875    0.00140     0.39015
 =======================================================================
   * Total *    0.00000     19.99295    44.81708    0.18997    65.00000

 Normal termination of Gaussian 16 at Fri Dec 11 02:04:22 2020.
