 Gaussian 16, Revision A.03,

 -----------------------------------------------------------
 # opt freq B3LYP/6-31G(d) empiricaldispersion=gd3bj scf=xqc
 -----------------------------------------------------------

 ------------------------------
 CID_90066382_JID_4378_neutraal
 ------------------------------
 Symbolic Z-matrix:
 Charge =  0 Multiplicity = 1

 SCF Done:  E(RB3LYP) =  -669.229912721     A.U. after   18 cycles
 SCF Done:  E(RB3LYP) =  -669.238019733     A.U. after   15 cycles
 SCF Done:  E(RB3LYP) =  -669.237948287     A.U. after   15 cycles
 SCF Done:  E(RB3LYP) =  -669.240884356     A.U. after   15 cycles
 SCF Done:  E(RB3LYP) =  -669.241943858     A.U. after   14 cycles
 SCF Done:  E(RB3LYP) =  -669.242808960     A.U. after   15 cycles
 SCF Done:  E(RB3LYP) =  -669.243117964     A.U. after   15 cycles
 SCF Done:  E(RB3LYP) =  -669.243197537     A.U. after   14 cycles
 SCF Done:  E(RB3LYP) =  -669.243210787     A.U. after   13 cycles
 SCF Done:  E(RB3LYP) =  -669.243217637     A.U. after   12 cycles
 SCF Done:  E(RB3LYP) =  -669.243218241     A.U. after   10 cycles
 SCF Done:  E(RB3LYP) =  -669.243218860     A.U. after   10 cycles
 SCF Done:  E(RB3LYP) =  -669.243218980     A.U. after   10 cycles
 Optimization completed.
    -- Stationary point found.
 Normal termination of Gaussian 16 at Thu Dec 10 09:25:11 2020.

 --------------------------------------------------------------------
 #N Geom=AllCheck Guess=TCheck SCRF=Check GenChk RB3LYP/6-31G(d) Freq
 --------------------------------------------------------------------

 Structure from the checkpoint file:  "JID_4378.chk"
 ------------------------------
 CID_90066382_JID_4378_neutraal
 ------------------------------
 Charge =  0 Multiplicity = 1

 SCF Done:  E(RB3LYP) =  -669.243218980     A.U. after    1 cycles

  Exact polarizability: 197.484 -30.937 147.086   4.843   8.334  80.131
 Approx polarizability: 333.471 -91.099 225.443   7.769  19.004 121.931

                      1                      2                      3
                      A                      A                      A
 Frequencies --     27.7706                49.7059                56.1025
 Red. masses --      4.2015                 4.0061                 4.5325
 Frc consts  --      0.0019                 0.0058                 0.0084
 IR Inten    --      2.0332                 1.1544                 2.5581

                      4                      5                      6
                      A                      A                      A
 Frequencies --     69.6137                96.5729               105.9991
 Red. masses --      3.6069                 3.9384                 4.0051
 Frc consts  --      0.0103                 0.0216                 0.0265
 IR Inten    --      0.7328                 1.1174                 4.9257

                      7                      8                      9
                      A                      A                      A
 Frequencies --    150.9763               168.5125               175.1051
 Red. masses --      3.2764                 1.8062                 2.0673
 Frc consts  --      0.0440                 0.0302                 0.0373
 IR Inten    --      0.6525                 0.1371                 0.5814

                     10                     11                     12
                      A                      A                      A
 Frequencies --    187.4579               204.7651               242.6330
 Red. masses --      2.9855                 3.6338                 1.4387
 Frc consts  --      0.0618                 0.0898                 0.0499
 IR Inten    --      0.8557                 1.8511                 2.0334

                     13                     14                     15
                      A                      A                      A
 Frequencies --    265.9846               309.3051               341.5802
 Red. masses --      3.6239                 4.2449                 2.9005
 Frc consts  --      0.1511                 0.2393                 0.1994
 IR Inten    --      0.8981                 2.3800                10.4273

                     16                     17                     18
                      A                      A                      A
 Frequencies --    381.4983               408.8562               438.1544
 Red. masses --      4.1566                 3.6109                 5.1614
 Frc consts  --      0.3564                 0.3556                 0.5838
 IR Inten    --      4.1099                 0.4507                 7.1741

                     19                     20                     21
                      A                      A                      A
 Frequencies --    446.0852               493.1108               531.9033
 Red. masses --      2.9520                 3.6861                 3.4311
 Frc consts  --      0.3461                 0.5281                 0.5719
 IR Inten    --      6.3876                 3.6131                14.0939

                     22                     23                     24
                      A                      A                      A
 Frequencies --    582.0389               647.7078               718.3713
 Red. masses --      3.5932                 3.2864                 1.6812
 Frc consts  --      0.7172                 0.8123                 0.5112
 IR Inten    --      3.6881                 6.3763                 3.9291

                     25                     26                     27
                      A                      A                      A
 Frequencies --    774.6441               788.4094               804.5807
 Red. masses --      2.3980                 2.9962                 2.8107
 Frc consts  --      0.8478                 1.0973                 1.0720
 IR Inten    --      8.0576                 8.5448                21.2582

                     28                     29                     30
                      A                      A                      A
 Frequencies --    840.4183               848.6827               889.5222
 Red. masses --      1.7729                 1.3180                 2.8325
 Frc consts  --      0.7378                 0.5593                 1.3205
 IR Inten    --      3.3029                14.1047                 3.2439

                     31                     32                     33
                      A                      A                      A
 Frequencies --    942.0305               960.3172               983.4032
 Red. masses --      1.3569                 2.0341                 1.5394
 Frc consts  --      0.7094                 1.1052                 0.8771
 IR Inten    --     51.7795                 0.6373                 9.4817

                     34                     35                     36
                      A                      A                      A
 Frequencies --   1010.1712              1029.5501              1036.1278
 Red. masses --      2.8389                 1.2758                 2.5260
 Frc consts  --      1.7068                 0.7968                 1.5978
 IR Inten    --     65.7529                 0.9476                49.9115

                     37                     38                     39
                      A                      A                      A
 Frequencies --   1052.0317              1082.9215              1096.6214
 Red. masses --      1.5479                 2.1600                 2.2322
 Frc consts  --      1.0094                 1.4925                 1.5816
 IR Inten    --     20.5506                65.2991                30.4365

                     40                     41                     42
                      A                      A                      A
 Frequencies --   1132.8346              1176.2586              1210.8321
 Red. masses --      2.0149                 2.5583                 1.7572
 Frc consts  --      1.5235                 2.0855                 1.5178
 IR Inten    --     56.9512               156.9788                19.5248

                     43                     44                     45
                      A                      A                      A
 Frequencies --   1238.8028              1271.2164              1295.2177
 Red. masses --      1.5697                 2.4388                 2.2059
 Frc consts  --      1.4193                 2.3220                 2.1803
 IR Inten    --    243.8098                43.9669               317.4678

                     46                     47                     48
                      A                      A                      A
 Frequencies --   1343.3173              1381.6504              1419.8779
 Red. masses --      1.1208                 1.7752                 1.2972
 Frc consts  --      1.1916                 1.9966                 1.5409
 IR Inten    --     11.1246                16.0472                 9.9441

                     49                     50                     51
                      A                      A                      A
 Frequencies --   1429.1359              1433.6282              1444.3761
 Red. masses --      1.2624                 1.7644                 1.3343
 Frc consts  --      1.5191                 2.1366                 1.6401
 IR Inten    --     20.8805                17.5897                 9.6670

                     52                     53                     54
                      A                      A                      A
 Frequencies --   1471.5519              1507.5899              1516.0941
 Red. masses --      1.2885                 1.0508                 1.0549
 Frc consts  --      1.6440                 1.4071                 1.4287
 IR Inten    --      8.8844                11.5105                15.2902

                     55                     56                     57
                      A                      A                      A
 Frequencies --   1519.0587              1532.5159              1537.5917
 Red. masses --      1.0767                 1.0577                 1.0573
 Frc consts  --      1.4638                 1.4637                 1.4727
 IR Inten    --      4.4807                14.1381                 6.9252

                     58                     59                     60
                      A                      A                      A
 Frequencies --   1564.0443              1626.4278              1674.1028
 Red. masses --      9.2165                 8.8366                 5.5940
 Frc consts  --     13.2835                13.7722                 9.2372
 IR Inten    --    264.7893                 4.0093                23.1375

                     61                     62                     63
                      A                      A                      A
 Frequencies --   1708.6398              1783.4733              3050.4915
 Red. masses --      4.7703                11.2997                 1.0418
 Frc consts  --      8.2054                21.1764                 5.7119
 IR Inten    --      7.1622               259.8858                23.9970

                     64                     65                     66
                      A                      A                      A
 Frequencies --   3063.4896              3098.4100              3118.8101
 Red. masses --      1.0360                 1.0591                 1.0940
 Frc consts  --      5.7286                 5.9904                 6.2699
 IR Inten    --     15.5210                24.6813                17.6569

                     67                     68                     69
                      A                      A                      A
 Frequencies --   3131.1371              3142.2506              3150.8889
 Red. masses --      1.1011                 1.1045                 1.1023
 Frc consts  --      6.3604                 6.4251                 6.4480
 IR Inten    --     27.0466                 5.1194                 6.7159

                     70                     71                     72
                      A                      A                      A
 Frequencies --   3162.6160              3167.5664              3172.1058
 Red. masses --      1.1083                 1.0596                 1.0900
 Frc consts  --      6.5315                 6.2641                 6.4624
 IR Inten    --     21.7334                 6.9289                 6.3448

                     73                     74                     75
                      A                      A                      A
 Frequencies --   3210.8593              3247.4434              3250.5626
 Red. masses --      1.0923                 1.0887                 1.1164
 Frc consts  --      6.6351                 6.7648                 6.9499
 IR Inten    --      6.9896                 2.0510                12.5215

 - Thermochemistry -
 -------------------
 Temperature   298.150 Kelvin.  Pressure   1.00000 Atm.
 Atom     1 has atomic number  6 and mass  12.00000

 Molecular mass:   195.08954 amu.
 Principal axes and moments of inertia in atomic units:
                           1         2         3
     Eigenvalues --  2415.378904290.136806268.98272
           X            0.99823   0.05944  -0.00043
           Y           -0.05944   0.99819  -0.00905
           Z           -0.00010   0.00906   0.99996
 This molecule is an asymmetric top.
 Rotational symmetry number  1.
 Warning -- assumption of classical behavior for rotation
           may cause significant error
 Rotational temperatures (Kelvin)      0.03586     0.02019     0.01382
 Rotational constants (GHZ):           0.74719     0.42067     0.28788
 Zero-point vibrational energy     570762.9 (Joules/Mol)
                                  136.41562 (Kcal/Mol)
 Warning -- explicit consideration of  22 degrees of freedom as
           vibrations may cause significant error
 Vibrational temperatures:     39.96    71.52    80.72   100.16   138.95
          (Kelvin)            152.51   217.22   242.45   251.94   269.71
                              294.61   349.09   382.69   445.02   491.46
                              548.89   588.25   630.41   641.82   709.48
                              765.29   837.42   931.91  1033.58  1114.54
                             1134.35  1157.61  1209.17  1221.07  1279.82
                             1355.37  1381.68  1414.90  1453.41  1481.29
                             1490.76  1513.64  1558.08  1577.79  1629.90
                             1692.37  1742.12  1782.36  1829.00  1863.53
                             1932.73  1987.89  2042.89  2056.21  2062.67
                             2078.14  2117.23  2169.09  2181.32  2185.59
                             2204.95  2212.25  2250.31  2340.07  2408.66
                             2458.35  2566.02  4388.98  4407.68  4457.92
                             4487.27  4505.01  4521.00  4533.43  4550.30
                             4557.42  4563.95  4619.71  4672.35  4676.83

 Zero-point correction=                           0.217392 (Hartree/Particle)
 Thermal correction to Energy=                    0.232687
 Thermal correction to Enthalpy=                  0.233632
 Thermal correction to Gibbs Free Energy=         0.173356
 Sum of electronic and zero-point Energies=           -669.025827
 Sum of electronic and thermal Energies=              -669.010532
 Sum of electronic and thermal Enthalpies=            -669.009587
 Sum of electronic and thermal Free Energies=         -669.069863

                     E (Thermal)             CV                S
                      KCal/Mol        Cal/Mol-Kelvin    Cal/Mol-Kelvin
 Total                  146.014             54.152            126.860
 Electronic               0.000              0.000              0.000
 Translational            0.889              2.981             41.710
 Rotational               0.889              2.981             32.541
 Vibrational            144.236             48.191             52.609
 Vibration     1          0.593              1.984              5.983
 Vibration     2          0.595              1.978              4.829
 Vibration     3          0.596              1.975              4.590
 Vibration     4          0.598              1.969              4.164
 Vibration     5          0.603              1.952              3.522
 Vibration     6          0.605              1.944              3.341
 Vibration     7          0.618              1.902              2.660
 Vibration     8          0.625              1.881              2.452
 Vibration     9          0.627              1.873              2.380
 Vibration    10          0.632              1.857              2.253
 Vibration    11          0.640              1.833              2.090
 Vibration    12          0.659              1.775              1.783
 Vibration    13          0.672              1.735              1.622
 Vibration    14          0.699              1.656              1.366
 Vibration    15          0.721              1.592              1.205
 Vibration    16          0.751              1.510              1.033
 Vibration    17          0.773              1.451              0.931
 Vibration    18          0.798              1.387              0.832
 Vibration    19          0.805              1.370              0.808
 Vibration    20          0.849              1.265              0.676
 Vibration    21          0.887              1.179              0.583
 Vibration    22          0.939              1.070              0.482

                           ! Non-Optimized Parameters !
 Normal termination of Gaussian 16 at Thu Dec 10 09:32:15 2020.

 ----------------------------------------------------------------------
 # B3LYP/6-311++G(d,p) empiricaldispersion=gd3bj scf=xqc pop=npa geom=c
 heck
 ----------------------------------------------------------------------

 --------------------------------------
 CID_90066382_JID_4378_Energie_neutraal
 --------------------------------------
 Structure from the checkpoint file:  "JID_4378.chk"
 Charge =  0 Multiplicity = 1

 SCF Done:  E(RB3LYP) =  -669.436278053     A.U. after   17 cycles
 Normal termination of Gaussian 16 at Thu Dec 10 09:36:01 2020.

 ----------------------------------------------------------------------
 # B3LYP/6-311++G(d,p) empiricaldispersion=gd3bj scf=xqc pop=npa geom=c
 heck
 ----------------------------------------------------------------------

 ------------------------------------
 CID_90066382_JID_4378_Energie_kation
 ------------------------------------
 Structure from the checkpoint file:  "JID_4378.chk"
 Charge =  1 Multiplicity = 2

 SCF Done:  E(UB3LYP) =  -669.136856334     A.U. after   28 cycles
 Normal termination of Gaussian 16 at Thu Dec 10 09:44:49 2020.
 Gaussian 16:  ES64L-G16RevA.03 25-Dec-2016

 ----------------------------------------------------------------------
 # B3LYP/6-311++G(d,p) empiricaldispersion=gd3bj scf=xqc pop=npa geom=c
 heck
 ----------------------------------------------------------------------

 -----------------------------------
 CID_90066382_JID_4378_Energie_anion
 -----------------------------------
 Structure from the checkpoint file:  "JID_4378.chk"
 Charge = -1 Multiplicity = 2

                         Standard orientation:
 ---------------------------------------------------------------------
 Center     Atomic      Atomic             Coordinates (Angstroms)
 Number     Number       Type             X           Y           Z
 ---------------------------------------------------------------------
      1          6           0       -2.983865   -2.626845    0.875082
      2          6           0       -2.597313   -2.146852   -0.514190
      3          8           0       -1.409212   -1.320900   -0.469521
      4          6           0       -1.591831   -0.025885   -0.141066
      5          8           0       -2.684222    0.471145    0.061327
      6          6           0       -0.304740    0.733184   -0.043084
      7          6           0        0.874940    0.062246   -0.119596
      8          6           0        2.174999    0.686112   -0.107598
      9          6           0        3.347818    0.001449   -0.082386
     10          7           0        3.330761   -1.407118   -0.030356
     11          8           0        4.454474   -1.908270   -0.006164
     12          6           0       -0.418676    2.198396    0.166554
     13          6           0        0.172501    2.774169    1.222806
     14          6           0       -1.207336    2.990329   -0.848774
     15          1           0       -2.151455   -3.159105    1.346099
     16          1           0       -3.837246   -3.310730    0.806889
     17          1           0       -3.269839   -1.781799    1.506880
     18          1           0       -2.318130   -2.977269   -1.166000
     19          1           0       -3.403886   -1.573286   -0.976561
     20          1           0        0.853917   -1.015904   -0.221733
     21          1           0        2.213796    1.771142   -0.131804
     22          1           0        4.324291    0.483621   -0.102948
     23          1           0        0.105352    3.845794    1.389939
     24          1           0        0.706454    2.191274    1.967035
     25          1           0       -0.794061    2.850991   -1.855789
     26          1           0       -2.247292    2.653853   -0.869915
     27          1           0       -1.184538    4.057621   -0.611233
 ---------------------------------------------------------------------

 SCF Done:  E(UB3LYP) =  -669.502653115     A.U. after   23 cycles

 The electronic state is 2-A.
 Alpha  occ. eigenvalues --  -19.04186 -18.97492 -18.95616 -14.20632 -10.16448
 Alpha  occ. eigenvalues --  -10.12736 -10.07369 -10.06862 -10.05337 -10.04239
 Alpha  occ. eigenvalues --  -10.04061 -10.03835 -10.03505 -10.02512  -0.98212
 Alpha  occ. eigenvalues --   -0.94352  -0.89173  -0.71040  -0.67379  -0.66746
 Alpha  occ. eigenvalues --   -0.62178  -0.57469  -0.56126  -0.53163  -0.47835
 Alpha  occ. eigenvalues --   -0.45444  -0.41985  -0.38811  -0.37934  -0.36741
 Alpha  occ. eigenvalues --   -0.35237  -0.34105  -0.33722  -0.31852  -0.30694
 Alpha  occ. eigenvalues --   -0.30313  -0.30204  -0.29190  -0.28011  -0.27327
 Alpha  occ. eigenvalues --   -0.26715  -0.26097  -0.25079  -0.23318  -0.21707
 Alpha  occ. eigenvalues --   -0.20609  -0.18994  -0.18665  -0.15496  -0.14438
 Alpha  occ. eigenvalues --   -0.10398  -0.04030  -0.00306
 Alpha virt. eigenvalues --    0.07266   0.08362   0.09141   0.09589   0.10314
 Alpha virt. eigenvalues --    0.10462   0.10858   0.11175   0.11950   0.12766
 Alpha virt. eigenvalues --    0.13588   0.13865   0.14415   0.14626   0.15482

  Beta  occ. eigenvalues --  -19.04151 -18.97330 -18.94723 -14.20287 -10.16391
  Beta  occ. eigenvalues --  -10.12738 -10.07366 -10.06895 -10.05327 -10.04190
  Beta  occ. eigenvalues --  -10.03843 -10.03767 -10.03413 -10.02258  -0.98085
  Beta  occ. eigenvalues --   -0.92968  -0.88937  -0.70750  -0.67353  -0.66172
  Beta  occ. eigenvalues --   -0.61742  -0.57381  -0.55739  -0.52374  -0.47398
  Beta  occ. eigenvalues --   -0.45352  -0.41840  -0.38541  -0.37701  -0.36550
  Beta  occ. eigenvalues --   -0.35044  -0.33937  -0.33437  -0.31692  -0.30608
  Beta  occ. eigenvalues --   -0.30225  -0.29759  -0.29043  -0.27655  -0.26599
  Beta  occ. eigenvalues --   -0.25984  -0.24851  -0.24055  -0.23231  -0.21529
  Beta  occ. eigenvalues --   -0.20116  -0.18498  -0.16943  -0.15269  -0.13983
  Beta  occ. eigenvalues --   -0.08401  -0.03254
  Beta virt. eigenvalues --    0.06451   0.07329   0.08356   0.09467   0.10161
  Beta virt. eigenvalues --    0.10467   0.10849   0.11144   0.11777   0.12349
  Beta virt. eigenvalues --    0.12767   0.13683   0.13898   0.14451   0.14697

 Mulliken charges and spin densities:
               1          2
     1  C   -0.326074  -0.004745
     2  C   -0.203048   0.004572
     3  O   -0.006776   0.006725
     4  C   -0.890554   0.039912
     5  O   -0.311308   0.056598
     6  C    1.184853   0.152143
     7  C   -0.408074   0.056045
     8  C   -0.009782   0.182772
     9  C   -0.331201   0.041433
    10  N   -0.311421   0.171413
    11  O   -0.160910   0.299158
    12  C    0.382960  -0.022856
    13  C   -0.848656   0.034281
    14  C   -0.645307   0.004991
    15  H    0.140312   0.000665
    16  H    0.110647   0.001703
    17  H    0.172107   0.002049
    18  H    0.147099   0.000583
    19  H    0.154852  -0.000569
    20  H    0.274680  -0.003121
    21  H    0.168546  -0.011892
    22  H    0.046431  -0.009059
    23  H    0.069324  -0.002577
    24  H    0.151363  -0.000415
    25  H    0.136367  -0.000058
    26  H    0.198716  -0.001776
    27  H    0.114854   0.002025
 Sum of Mulliken charges =  -1.00000   1.00000

 Dipole moment (field-independent basis, Debye):
    X=             -8.3044    Y=              2.2892    Z=             -0.4634  Tot=              8.6266
 Quadrupole moment (field-independent basis, Debye-Ang):
   XX=           -146.2807   YY=           -100.9845   ZZ=            -89.3570
   XY=             26.7229   XZ=              2.4098   YZ=             -0.7824

 Summary of Natural Population Analysis:

                                       Natural Population
                Natural  -----------------------------------------------
    Atom  No    Charge         Core      Valence    Rydberg      Total
 -----------------------------------------------------------------------
      C    1   -0.29973      0.99967     2.29613    0.00393     3.29973
      C    2   -0.01542      0.99959     2.00567    0.01015     3.01542
      O    3   -0.28193      0.99986     3.27299    0.00908     4.28193
      C    4    0.40442      0.99963     1.57193    0.02402     2.59558
      O    5   -0.31428      0.99987     3.30858    0.00583     4.31428
      C    6   -0.04650      0.99940     2.03372    0.01339     3.04650
      C    7   -0.05608      0.99950     2.04785    0.00873     3.05608
      C    8   -0.06480      0.99955     2.05587    0.00937     3.06480
      C    9   -0.00694      0.99954     1.99094    0.01646     3.00694
      N   10    0.01977      0.99977     2.45092    0.02954     3.48023
      O   11   -0.09232      0.99991     3.07965    0.01276     4.09232
      C   12   -0.00361      0.99952     1.99466    0.00943     3.00361
      C   13   -0.18909      0.99951     2.18343    0.00615     3.18909
      C   14   -0.29748      0.99962     2.29332    0.00454     3.29748
      H   15    0.10054      0.00000     0.39850    0.00096     0.39946
      H   16    0.09374      0.00000     0.40539    0.00087     0.40626
      H   17    0.10754      0.00000     0.39142    0.00105     0.39246
      H   18    0.08540      0.00000     0.41353    0.00107     0.41460
      H   19    0.09196      0.00000     0.40662    0.00142     0.40804
      H   20    0.11409      0.00000     0.38262    0.00329     0.38591
      H   21    0.09258      0.00000     0.40590    0.00152     0.40742
      H   22    0.07263      0.00000     0.42155    0.00582     0.42737
      H   23    0.08313      0.00000     0.41560    0.00127     0.41687
      H   24    0.09703      0.00000     0.40201    0.00096     0.40297
      H   25    0.09866      0.00000     0.40024    0.00110     0.40134
      H   26    0.11442      0.00000     0.38440    0.00118     0.38558
      H   27    0.09228      0.00000     0.40665    0.00107     0.40772
 =======================================================================
   * Total *    0.00000     13.99493    37.82009    0.18498    52.00000

 Normal termination of Gaussian 16 at Thu Dec 10 09:51:55 2020.
