 Gaussian 16, Revision A.03,

 -----------------------------------------------------------
 # opt freq B3LYP/6-31G(d) empiricaldispersion=gd3bj scf=xqc
 -----------------------------------------------------------

 ------------------------------
 CID_79605293_JID_4809_neutraal
 ------------------------------
 Symbolic Z-matrix:
 Charge =  0 Multiplicity = 1

 SCF Done:  E(RB3LYP) =  -687.755583687     A.U. after   14 cycles
 SCF Done:  E(RB3LYP) =  -687.760231649     A.U. after   12 cycles
 SCF Done:  E(RB3LYP) =  -687.760819365     A.U. after   11 cycles
 SCF Done:  E(RB3LYP) =  -687.760970439     A.U. after   11 cycles
 SCF Done:  E(RB3LYP) =  -687.761030079     A.U. after   10 cycles
 SCF Done:  E(RB3LYP) =  -687.761068610     A.U. after   10 cycles
 SCF Done:  E(RB3LYP) =  -687.761088954     A.U. after   10 cycles
 SCF Done:  E(RB3LYP) =  -687.761096629     A.U. after    9 cycles
 SCF Done:  E(RB3LYP) =  -687.761100319     A.U. after    9 cycles
 SCF Done:  E(RB3LYP) =  -687.761102204     A.U. after    9 cycles
 SCF Done:  E(RB3LYP) =  -687.761103759     A.U. after    7 cycles
 SCF Done:  E(RB3LYP) =  -687.761103803     A.U. after    8 cycles
 SCF Done:  E(RB3LYP) =  -687.761103826     A.U. after    7 cycles
 SCF Done:  E(RB3LYP) =  -687.761103835     A.U. after    7 cycles
 SCF Done:  E(RB3LYP) =  -687.761103838     A.U. after    6 cycles
 Optimization completed.
    -- Stationary point found.
 Normal termination of Gaussian 16 at Thu Dec 10 10:22:29 2020.

 --------------------------------------------------------------------
 #N Geom=AllCheck Guess=TCheck SCRF=Check GenChk RB3LYP/6-31G(d) Freq
 --------------------------------------------------------------------

 Structure from the checkpoint file:  "JID_4809.chk"
 ------------------------------
 CID_79605293_JID_4809_neutraal
 ------------------------------
 Charge =  0 Multiplicity = 1

 SCF Done:  E(RB3LYP) =  -687.761103838     A.U. after    1 cycles

  Exact polarizability: 143.928   0.389 103.868   2.084  -2.028  94.219
 Approx polarizability: 181.886   1.281 140.193  -2.657 -13.819 165.456

                      1                      2                      3
                      A                      A                      A
 Frequencies --      8.7899                28.3397                56.5600
 Red. masses --      3.1487                 4.5979                 3.5103
 Frc consts  --      0.0001                 0.0022                 0.0066
 IR Inten    --      0.8708                 0.0199                 1.7369

                      4                      5                      6
                      A                      A                      A
 Frequencies --     77.4199                80.6884               116.8286
 Red. masses --      3.7903                 2.4828                 2.9153
 Frc consts  --      0.0134                 0.0095                 0.0234
 IR Inten    --      1.3539                 0.8433                 1.2093

                      7                      8                      9
                      A                      A                      A
 Frequencies --    151.3748               196.8875               221.3357
 Red. masses --      2.8739                 1.5159                 1.8843
 Frc consts  --      0.0388                 0.0346                 0.0544
 IR Inten    --      1.5339                 2.4103                 3.6069

                     10                     11                     12
                      A                      A                      A
 Frequencies --    227.6424               233.8542               254.7478
 Red. masses --      1.1174                 1.6389                 1.4856
 Frc consts  --      0.0341                 0.0528                 0.0568
 IR Inten    --      0.2769                 1.9513                 1.3431

                     13                     14                     15
                      A                      A                      A
 Frequencies --    266.1809               290.2247               305.3823
 Red. masses --      1.6355                 2.8675                 2.9492
 Frc consts  --      0.0683                 0.1423                 0.1620
 IR Inten    --      2.2576                 1.3659                 7.5395

                     16                     17                     18
                      A                      A                      A
 Frequencies --    326.5789               356.4881               402.7329
 Red. masses --      1.2248                 3.5958                 4.5111
 Frc consts  --      0.0770                 0.2692                 0.4311
 IR Inten    --     83.6898                 5.3785                29.3065

                     19                     20                     21
                      A                      A                      A
 Frequencies --    422.5073               438.4252               487.0885
 Red. masses --      3.2078                 4.0439                 3.8247
 Frc consts  --      0.3374                 0.4580                 0.5346
 IR Inten    --      7.6966                 6.1302                 2.7352

                     22                     23                     24
                      A                      A                      A
 Frequencies --    523.4212               566.7309               663.5001
 Red. masses --      3.4619                 3.7474                 4.1657
 Frc consts  --      0.5588                 0.7091                 1.0805
 IR Inten    --      3.7813                11.8167                 8.9963

                     25                     26                     27
                      A                      A                      A
 Frequencies --    736.0189               766.5399               808.1535
 Red. masses --      3.3783                 5.1780                 3.9926
 Frc consts  --      1.0783                 1.7926                 1.5364
 IR Inten    --      1.1328                 8.1977                 4.7165

                     28                     29                     30
                      A                      A                      A
 Frequencies --    838.4383               863.8903               919.8730
 Red. masses --      2.3508                 3.1422                 8.5450
 Frc consts  --      0.9736                 1.3817                 4.2601
 IR Inten    --      2.6359                34.8541                 7.6790

                     31                     32                     33
                      A                      A                      A
 Frequencies --    933.1884               992.8034               996.6964
 Red. masses --      2.2453                 2.3499                 1.6310
 Frc consts  --      1.1520                 1.3647                 0.9546
 IR Inten    --     26.3803                26.0562                 2.9410

                     34                     35                     36
                      A                      A                      A
 Frequencies --   1013.4669              1024.8395              1046.5733
 Red. masses --      4.5912                 2.0670                 2.6491
 Frc consts  --      2.7784                 1.2791                 1.7096
 IR Inten    --      5.9929                 6.8000                13.4490

                     37                     38                     39
                      A                      A                      A
 Frequencies --   1088.8028              1095.0001              1104.5728
 Red. masses --      1.8434                 2.0664                 2.3360
 Frc consts  --      1.2875                 1.4598                 1.6793
 IR Inten    --     38.7821                18.6095                93.5126

                     40                     41                     42
                      A                      A                      A
 Frequencies --   1125.0016              1133.9775              1177.6042
 Red. masses --      2.6722                 2.6624                 3.3652
 Frc consts  --      1.9926                 2.0171                 2.7495
 IR Inten    --     32.0267                 8.4354               118.9434

                     43                     44                     45
                      A                      A                      A
 Frequencies --   1189.6716              1191.1056              1235.0165
 Red. masses --      2.0407                 1.3383                 1.5252
 Frc consts  --      1.7017                 1.1187                 1.3706
 IR Inten    --     35.7859                 4.6581                12.5434

                     46                     47                     48
                      A                      A                      A
 Frequencies --   1260.1207              1291.4715              1325.8393
 Red. masses --      1.6864                 2.5473                 2.6613
 Frc consts  --      1.5778                 2.5032                 2.7563
 IR Inten    --      5.7025                45.7578                29.0871

                     49                     50                     51
                      A                      A                      A
 Frequencies --   1345.3403              1353.1094              1393.4398
 Red. masses --      1.3455                 1.4811                 1.3140
 Frc consts  --      1.4348                 1.5977                 1.5033
 IR Inten    --      2.6909                41.3541                 5.0342

                     52                     53                     54
                      A                      A                      A
 Frequencies --   1395.4546              1424.2817              1431.2378
 Red. masses --      1.2723                 2.0389                 1.2540
 Frc consts  --      1.4598                 2.4369                 1.5134
 IR Inten    --      4.5604                14.9978                30.2801

                     55                     56                     57
                      A                      A                      A
 Frequencies --   1435.8046              1438.0573              1445.8487
 Red. masses --      1.2764                 1.3442                 1.2778
 Frc consts  --      1.5503                 1.6379                 1.5739
 IR Inten    --      1.9240                12.7204                31.2681

                     58                     59                     60
                      A                      A                      A
 Frequencies --   1500.2577              1515.6640              1516.6279
 Red. masses --      1.1320                 1.0578                 1.0642
 Frc consts  --      1.5011                 1.4317                 1.4423
 IR Inten    --      0.5455                 3.2128                 2.2402

                     61                     62                     63
                      A                      A                      A
 Frequencies --   1518.2272              1524.7955              1526.7722
 Red. masses --      1.0489                 1.0716                 1.0482
 Frc consts  --      1.4244                 1.4679                 1.4397
 IR Inten    --      3.0523                 0.6324                12.1752

                     64                     65                     66
                      A                      A                      A
 Frequencies --   1532.5262              1533.3369              1539.0650
 Red. masses --      1.0745                 1.0794                 1.0493
 Frc consts  --      1.4868                 1.4952                 1.4644
 IR Inten    --      7.4731                 3.8717                 6.2835

                     67                     68                     69
                      A                      A                      A
 Frequencies --   1555.4068              1631.0196              3018.3190
 Red. masses --      6.0590                 9.0463                 1.0355
 Frc consts  --      8.6365                14.1789                 5.5584
 IR Inten    --      9.5268                95.0155                40.5446

                     70                     71                     72
                      A                      A                      A
 Frequencies --   3046.1297              3059.3846              3067.5944
 Red. masses --      1.0417                 1.0831                 1.0365
 Frc consts  --      5.6947                 5.9730                 5.7468
 IR Inten    --     10.2803                 3.9826                17.8430

                     73                     74                     75
                      A                      A                      A
 Frequencies --   3068.2961              3073.9774              3083.2234
 Red. masses --      1.0786                 1.0590                 1.0853
 Frc consts  --      5.9826                 5.8959                 6.0787
 IR Inten    --     23.5714                54.8209                10.7159

                     76                     77                     78
                      A                      A                      A
 Frequencies --   3083.9533              3118.6008              3135.6046
 Red. masses --      1.0852                 1.0963                 1.1033
 Frc consts  --      6.0808                 6.2821                 6.3911
 IR Inten    --     17.7202                28.3571                20.2116

                     79                     80                     81
                      A                      A                      A
 Frequencies --   3141.3089              3142.7910              3144.2757
 Red. masses --      1.1031                 1.1022                 1.0996
 Frc consts  --      6.4136                 6.4140                 6.4049
 IR Inten    --     26.3772                32.5998                13.3903

                     82                     83                     84
                      A                      A                      A
 Frequencies --   3153.4034              3160.0795              3717.2181
 Red. masses --      1.1027                 1.1019                 1.0658
 Frc consts  --      6.4608                 6.4835                 8.6770
 IR Inten    --     18.9804                10.7125                12.5316

 - Thermochemistry -
 -------------------
 Temperature   298.150 Kelvin.  Pressure   1.00000 Atm.
 Atom     1 has atomic number  6 and mass  12.00000

 Molecular mass:   200.11609 amu.
 Principal axes and moments of inertia in atomic units:
                           1         2         3
     Eigenvalues --  1270.177754987.049485643.27573
           X            0.99995   0.00181   0.00974
           Y           -0.00214   0.99941   0.03436
           Z           -0.00967  -0.03438   0.99936
 This molecule is an asymmetric top.
 Rotational symmetry number  1.
 Warning -- assumption of classical behavior for rotation
           may cause significant error
 Rotational temperatures (Kelvin)      0.06819     0.01737     0.01535
 Rotational constants (GHZ):           1.42086     0.36189     0.31980
 Zero-point vibrational energy     667712.6 (Joules/Mol)
                                  159.58714 (Kcal/Mol)
 Warning -- explicit consideration of  23 degrees of freedom as
           vibrations may cause significant error
 Vibrational temperatures:     12.65    40.77    81.38   111.39   116.09
          (Kelvin)            168.09   217.79   283.28   318.45   327.53
                              336.46   366.53   382.97   417.57   439.38
                              469.87   512.91   579.44   607.89   630.80
                              700.81   753.09   815.40   954.63  1058.97
                             1102.88  1162.75  1206.33  1242.95  1323.49
                             1342.65  1428.42  1434.02  1458.15  1474.52
                             1505.79  1566.54  1575.46  1589.23  1618.63
                             1631.54  1694.31  1711.67  1713.74  1776.91
                             1813.03  1858.14  1907.59  1935.64  1946.82
                             2004.85  2007.75  2049.22  2059.23  2065.80
                             2069.04  2080.25  2158.54  2180.70  2182.09
                             2184.39  2193.84  2196.68  2204.96  2206.13
                             2214.37  2237.88  2346.67  4342.69  4382.70
                             4401.77  4413.58  4414.59  4422.77  4436.07
                             4437.12  4486.97  4511.44  4519.64  4521.78
                             4523.91  4537.04  4546.65  5348.25

 Zero-point correction=                           0.254318 (Hartree/Particle)
 Thermal correction to Energy=                    0.269945
 Thermal correction to Enthalpy=                  0.270889
 Thermal correction to Gibbs Free Energy=         0.209129
 Sum of electronic and zero-point Energies=           -687.506786
 Sum of electronic and thermal Energies=              -687.491159
 Sum of electronic and thermal Enthalpies=            -687.490215
 Sum of electronic and thermal Free Energies=         -687.551975

                     E (Thermal)             CV                S
                      KCal/Mol        Cal/Mol-Kelvin    Cal/Mol-Kelvin
 Total                  169.393             55.993            129.986
 Electronic               0.000              0.000              0.000
 Translational            0.889              2.981             41.786
 Rotational               0.889              2.981             31.947
 Vibrational            167.615             50.031             56.253
 Vibration     1          0.593              1.987              8.267
 Vibration     2          0.593              1.984              5.942
 Vibration     3          0.596              1.975              4.574
 Vibration     4          0.599              1.964              3.955
 Vibration     5          0.600              1.962              3.874
 Vibration     6          0.608              1.935              3.152
 Vibration     7          0.619              1.901              2.655
 Vibration     8          0.636              1.844              2.162
 Vibration     9          0.648              1.809              1.948
 Vibration    10          0.651              1.799              1.897
 Vibration    11          0.654              1.789              1.849
 Vibration    12          0.665              1.755              1.697
 Vibration    13          0.672              1.735              1.621
 Vibration    14          0.686              1.692              1.473
 Vibration    15          0.696              1.663              1.387
 Vibration    16          0.710              1.622              1.277
 Vibration    17          0.732              1.562              1.137
 Vibration    18          0.768              1.464              0.953
 Vibration    19          0.785              1.421              0.883
 Vibration    20          0.799              1.386              0.832
 Vibration    21          0.843              1.279              0.691
 Vibration    22          0.878              1.198              0.602
 Vibration    23          0.923              1.103              0.511

 Optimization completed.
    -- Stationary point found.
 Normal termination of Gaussian 16 at Thu Dec 10 10:30:33 2020.

 ----------------------------------------------------------------------
 # B3LYP/6-311++G(d,p) empiricaldispersion=gd3bj scf=xqc pop=npa geom=c
 heck
 ----------------------------------------------------------------------

 --------------------------------------
 CID_79605293_JID_4809_Energie_neutraal
 --------------------------------------
 Structure from the checkpoint file:  "JID_4809.chk"
 Charge =  0 Multiplicity = 1

 SCF Done:  E(RB3LYP) =  -687.964158146     A.U. after   15 cycles
 Normal termination of Gaussian 16 at Thu Dec 10 10:34:29 2020.

 ----------------------------------------------------------------------
 # B3LYP/6-311++G(d,p) empiricaldispersion=gd3bj scf=xqc pop=npa geom=c
 heck
 ----------------------------------------------------------------------

 ------------------------------------
 CID_79605293_JID_4809_Energie_kation
 ------------------------------------
 Structure from the checkpoint file:  "JID_4809.chk"
 Charge =  1 Multiplicity = 2

 SCF Done:  E(UB3LYP) =  -687.621398491     A.U. after   27 cycles
 Normal termination of Gaussian 16 at Thu Dec 10 10:44:31 2020.
 Gaussian 16:  ES64L-G16RevA.03 25-Dec-2016

 ----------------------------------------------------------------------
 # B3LYP/6-311++G(d,p) empiricaldispersion=gd3bj scf=xqc pop=npa geom=c
 heck
 ----------------------------------------------------------------------

 -----------------------------------
 CID_79605293_JID_4809_Energie_anion
 -----------------------------------
 Structure from the checkpoint file:  "JID_4809.chk"
 Charge = -1 Multiplicity = 2

                         Standard orientation:
 ---------------------------------------------------------------------
 Center     Atomic      Atomic             Coordinates (Angstroms)
 Number     Number       Type             X           Y           Z
 ---------------------------------------------------------------------
      1          6           0        3.846711   -0.957666    0.384755
      2          6           0        2.826769   -0.350196   -0.577834
      3          6           0        1.398260   -0.582438   -0.147973
      4          7           0        1.070182   -1.021038    1.041624
      5          8           0       -0.339883   -1.034283    1.003797
      6          6           0       -0.696612   -0.588685   -0.219618
      7          7           0        0.325239   -0.295509   -0.971011
      8          6           0       -2.151441   -0.455113   -0.521189
      9          6           0       -2.886116   -1.797550   -0.381036
     10          6           0       -2.798860    0.639693    0.373897
     11          6           0       -2.066056    1.977559    0.302370
     12          8           0       -4.176374    0.786202    0.043702
     13          8           0        3.041954    1.035486   -0.836447
     14          6           0        2.903846    1.893608    0.283096
     15          1           0        3.708619   -0.599865    1.408081
     16          1           0        4.854465   -0.698170    0.047618
     17          1           0        3.748316   -2.047264    0.401350
     18          1           0        2.939578   -0.810846   -1.564818
     19          1           0       -2.205104   -0.110180   -1.561280
     20          1           0       -2.776518   -2.193271    0.633754
     21          1           0       -3.949552   -1.648911   -0.580033
     22          1           0       -2.489692   -2.537780   -1.082868
     23          1           0       -2.798264    0.276403    1.407394
     24          1           0       -2.007561    2.335697   -0.733955
     25          1           0       -2.600651    2.722217    0.899156
     26          1           0       -1.041940    1.899175    0.680852
     27          1           0       -4.221559    1.229579   -0.819441
     28          1           0        1.917149    1.798382    0.758535
     29          1           0        3.675388    1.715697    1.044399
     30          1           0        3.014797    2.910445   -0.100278
 ---------------------------------------------------------------------

 SCF Done:  E(UB3LYP) =  -687.952867837     A.U. after   33 cycles
 SCF Done:  E(UB3LYP) =  -687.952867837     a.u. after    1 cycles

 The electronic state is 2-A.
 Alpha  occ. eigenvalues --  -19.10228 -19.03074 -19.02204 -14.25274 -14.20832
 Alpha  occ. eigenvalues --  -10.15893 -10.13908 -10.12873 -10.12692 -10.11432
 Alpha  occ. eigenvalues --  -10.09262 -10.06950 -10.06431 -10.06390  -1.05117
 Alpha  occ. eigenvalues --   -0.94270  -0.92695  -0.82734  -0.77384  -0.69903
 Alpha  occ. eigenvalues --   -0.67137  -0.63782  -0.59925  -0.55916  -0.55263
 Alpha  occ. eigenvalues --   -0.52773  -0.50024  -0.45816  -0.41472  -0.40828
 Alpha  occ. eigenvalues --   -0.39262  -0.38398  -0.37217  -0.35959  -0.35138
 Alpha  occ. eigenvalues --   -0.34278  -0.32855  -0.31660  -0.31489  -0.30653
 Alpha  occ. eigenvalues --   -0.29257  -0.27837  -0.27650  -0.27322  -0.26561
 Alpha  occ. eigenvalues --   -0.25864  -0.22954  -0.22750  -0.22230  -0.22042
 Alpha  occ. eigenvalues --   -0.19507  -0.18942  -0.17054  -0.17028   0.04551
 Alpha virt. eigenvalues --    0.06319   0.06708   0.07630   0.08408   0.08915
 Alpha virt. eigenvalues --    0.09001   0.09881   0.10738   0.10864   0.11379
 Alpha virt. eigenvalues --    0.12011   0.12132   0.12580   0.13528   0.13628

  Beta  occ. eigenvalues --  -19.10094 -19.03063 -19.02151 -14.25099 -14.20857
  Beta  occ. eigenvalues --  -10.15742 -10.13909 -10.12851 -10.12651 -10.11408
  Beta  occ. eigenvalues --  -10.09261 -10.06930 -10.06396 -10.06368  -1.04889
  Beta  occ. eigenvalues --   -0.94248  -0.92574  -0.82638  -0.77137  -0.69832
  Beta  occ. eigenvalues --   -0.67071  -0.63722  -0.59875  -0.55780  -0.55167
  Beta  occ. eigenvalues --   -0.52654  -0.49938  -0.45707  -0.41382  -0.40653
  Beta  occ. eigenvalues --   -0.39143  -0.38276  -0.37001  -0.35903  -0.34989
  Beta  occ. eigenvalues --   -0.34201  -0.32796  -0.31588  -0.31419  -0.30617
  Beta  occ. eigenvalues --   -0.29199  -0.27766  -0.27586  -0.27267  -0.26477
  Beta  occ. eigenvalues --   -0.25800  -0.22765  -0.22662  -0.22121  -0.21781
  Beta  occ. eigenvalues --   -0.19136  -0.18799  -0.17026  -0.16627
  Beta virt. eigenvalues --    0.06623   0.07502   0.07649   0.08508   0.08834
  Beta virt. eigenvalues --    0.09145   0.09360   0.10160   0.10953   0.11242
  Beta virt. eigenvalues --    0.11596   0.12301   0.12420   0.12851   0.13633

 Mulliken charges and spin densities:
               1          2
     1  C    0.545980  -1.140579
     2  C   -2.364284   2.215216
     3  C    1.289250  -1.414955
     4  N   -0.264907   0.083572
     5  O    0.208242   0.041151
     6  C    1.291211  -1.568224
     7  N   -0.013792   0.087477
     8  C   -1.217522   1.243973
     9  C    0.452878  -1.027986
    10  C   -0.438558   0.282501
    11  C    0.374833  -0.849726
    12  O   -0.173559  -0.037042
    13  O   -0.054523   0.001849
    14  C    0.360180  -0.678561
    15  H    0.127070   0.048779
    16  H   -0.284551   0.447986
    17  H   -0.013153   0.161505
    18  H   -0.041827   0.247360
    19  H   -0.149618   0.375287
    20  H    0.108810   0.037633
    21  H   -0.257253   0.439390
    22  H   -0.075934   0.221841
    23  H    0.123923   0.073733
    24  H   -0.156530   0.321135
    25  H   -0.204636   0.366796
    26  H    0.258717  -0.133825
    27  H   -0.227904   0.482702
    28  H   -0.065003   0.263124
    29  H   -0.100813   0.224318
    30  H   -0.036726   0.183571
 Sum of Mulliken charges =  -1.00000   1.00000

 Dipole moment (field-independent basis, Debye):
    X=              2.7482    Y=             -1.2009    Z=              2.1578  Tot=              3.6947
 Quadrupole moment (field-independent basis, Debye-Ang):
   XX=           -171.9725   YY=           -118.3307   ZZ=           -113.6118
   XY=              4.8976   XZ=             -5.7188   YZ=              4.1618

 Summary of Natural Population Analysis:

                                       Natural Population
                Natural  -----------------------------------------------
    Atom  No    Charge         Core      Valence    Rydberg      Total
 -----------------------------------------------------------------------
      C    1   -0.29879      0.99965     2.29430    0.00484     3.29879
      C    2    0.04752      0.99950     1.93618    0.01680     2.95248
      C    3    0.16260      0.99962     1.81896    0.01882     2.83740
      N    4   -0.07327      0.99966     2.56217    0.01145     3.57327
      O    5   -0.16731      0.99985     3.15946    0.00800     4.16731
      C    6    0.31417      0.99958     1.66532    0.02092     2.68583
      N    7   -0.27063      0.99966     2.76157    0.00940     3.77063
      C    8   -0.15163      0.99953     2.13942    0.01268     3.15163
      C    9   -0.28162      0.99965     2.27531    0.00665     3.28162
      C   10    0.07338      0.99956     1.91350    0.01356     2.92662
      C   11   -0.30057      0.99964     2.29473    0.00620     3.30057
      O   12   -0.37010      0.99990     3.36279    0.00741     4.37010
      O   13   -0.29259      0.99989     3.28296    0.00975     4.29259
      C   14   -0.10098      0.99960     2.09260    0.00878     3.10098
      H   15    0.10396      0.00000     0.39452    0.00152     0.39604
      H   16    0.10154      0.00000     0.39715    0.00130     0.39846
      H   17    0.10612      0.00000     0.39261    0.00126     0.39388
      H   18    0.10077      0.00000     0.39746    0.00177     0.39923
      H   19    0.11146      0.00000     0.38649    0.00205     0.38854
      H   20    0.09954      0.00000     0.39933    0.00113     0.40046
      H   21    0.11094      0.00000     0.38785    0.00121     0.38906
      H   22    0.10073      0.00000     0.39844    0.00084     0.39927
      H   23    0.08605      0.00000     0.41193    0.00202     0.41395
      H   24    0.10077      0.00000     0.39790    0.00133     0.39923
      H   25    0.10314      0.00000     0.39598    0.00089     0.39686
      H   26    0.10489      0.00000     0.39383    0.00128     0.39511
      H   27    0.22978      0.00000     0.26126    0.00895     0.27022
      H   28    0.08286      0.00000     0.41535    0.00178     0.41714
      H   29    0.07736      0.00000     0.42088    0.00176     0.42264
      H   30    0.08989      0.00000     0.40879    0.00132     0.41011
 =======================================================================
   * Total *    0.00000     13.99529    39.81903    0.18567    54.00000

 Normal termination of Gaussian 16 at Thu Dec 10 10:56:42 2020.
