 Gaussian 16, Revision A.03,

 -----------------------------------------------------------
 # opt freq B3LYP/6-31G(d) empiricaldispersion=gd3bj scf=xqc
 -----------------------------------------------------------

 ------------------------------
 CID_76948266_JID_9218_neutraal
 ------------------------------
 Symbolic Z-matrix:
 Charge =  0 Multiplicity = 1

 SCF Done:  E(RB3LYP) =  -860.872417299     A.U. after   15 cycles
 SCF Done:  E(RB3LYP) =  -860.877024293     A.U. after   12 cycles
 SCF Done:  E(RB3LYP) =  -860.878104459     A.U. after   12 cycles
 SCF Done:  E(RB3LYP) =  -860.878711857     A.U. after   12 cycles
 SCF Done:  E(RB3LYP) =  -860.878977318     A.U. after   11 cycles
 SCF Done:  E(RB3LYP) =  -860.879148567     A.U. after   12 cycles
 SCF Done:  E(RB3LYP) =  -860.879249540     A.U. after   12 cycles
 SCF Done:  E(RB3LYP) =  -860.879296833     A.U. after   10 cycles
 SCF Done:  E(RB3LYP) =  -860.879332566     A.U. after   10 cycles
 SCF Done:  E(RB3LYP) =  -860.879342641     A.U. after    9 cycles
 SCF Done:  E(RB3LYP) =  -860.879355098     A.U. after    8 cycles
 SCF Done:  E(RB3LYP) =  -860.879355151     A.U. after    8 cycles
 SCF Done:  E(RB3LYP) =  -860.879355222     A.U. after    8 cycles
 SCF Done:  E(RB3LYP) =  -860.879355277     A.U. after    8 cycles
 SCF Done:  E(RB3LYP) =  -860.879355303     A.U. after    7 cycles
 Optimization completed.
    -- Stationary point found.
 Normal termination of Gaussian 16 at Sun Dec 13 16:22:59 2020.

 --------------------------------------------------------------------
 #N Geom=AllCheck Guess=TCheck SCRF=Check GenChk RB3LYP/6-31G(d) Freq
 --------------------------------------------------------------------

 Structure from the checkpoint file:  "JID_9218.chk"
 ------------------------------
 CID_76948266_JID_9218_neutraal
 ------------------------------
 Charge =  0 Multiplicity = 1

 SCF Done:  E(RB3LYP) =  -860.879355303     A.U. after    1 cycles

  Exact polarizability: 238.934   4.102 167.299   0.239   1.959 123.409
 Approx polarizability: 301.829   1.685 274.998  -2.949  11.073 195.638

                      1                      2                      3
                      A                      A                      A
 Frequencies --     17.1965                27.2342                32.0838
 Red. masses --      4.2411                 4.3752                 4.8977
 Frc consts  --      0.0007                 0.0019                 0.0030
 IR Inten    --      0.6111                 0.3461                 0.4995

                      4                      5                      6
                      A                      A                      A
 Frequencies --     44.7447                67.7837                71.8688
 Red. masses --      3.6308                 4.0719                 5.3479
 Frc consts  --      0.0043                 0.0110                 0.0163
 IR Inten    --      0.9366                 0.4751                 2.8377

                      7                      8                      9
                      A                      A                      A
 Frequencies --     80.3743               134.5205               151.7640
 Red. masses --      4.5991                 4.5154                 4.6920
 Frc consts  --      0.0175                 0.0481                 0.0637
 IR Inten    --      0.6661                 0.1928                 1.1009

                     10                     11                     12
                      A                      A                      A
 Frequencies --    193.3919               237.5103               247.8992
 Red. masses --      3.0871                 1.1648                 3.5525
 Frc consts  --      0.0680                 0.0387                 0.1286
 IR Inten    --      3.5488                 1.1362                 1.6308

                     13                     14                     15
                      A                      A                      A
 Frequencies --    262.3104               264.9721               282.8573
 Red. masses --      1.7178                 3.2460                 2.2985
 Frc consts  --      0.0696                 0.1343                 0.1084
 IR Inten    --      0.3727                18.9682                 6.3966

                     16                     17                     18
                      A                      A                      A
 Frequencies --    288.6932               307.7657               335.5953
 Red. masses --      2.2756                 2.3147                 1.1406
 Frc consts  --      0.1117                 0.1292                 0.0757
 IR Inten    --      2.8308                13.7648                 2.6245

                     19                     20                     21
                      A                      A                      A
 Frequencies --    336.3376               339.8975               360.5786
 Red. masses --      1.7585                 1.9055                 2.2602
 Frc consts  --      0.1172                 0.1297                 0.1731
 IR Inten    --     18.7768                32.6675                15.4561

                     22                     23                     24
                      A                      A                      A
 Frequencies --    363.9554               396.5442               417.6792
 Red. masses --      1.8479                 2.5037                 1.9523
 Frc consts  --      0.1442                 0.2320                 0.2007
 IR Inten    --     62.3763                21.7746                50.4001

                     25                     26                     27
                      A                      A                      A
 Frequencies --    423.3242               440.1885               463.1429
 Red. masses --      2.9709                 2.9454                 2.7605
 Frc consts  --      0.3137                 0.3363                 0.3489
 IR Inten    --      1.0977                 1.0473                 1.5926

                     28                     29                     30
                      A                      A                      A
 Frequencies --    471.7125               534.7989               563.5018
 Red. masses --      2.0765                 3.8534                 3.2896
 Frc consts  --      0.2722                 0.6493                 0.6154
 IR Inten    --      9.7063                 6.0939                14.3982

                     31                     32                     33
                      A                      A                      A
 Frequencies --    598.1762               601.7593               639.7374
 Red. masses --      3.1438                 4.8419                 2.6836
 Frc consts  --      0.6628                 1.0330                 0.6471
 IR Inten    --     12.9920                18.3268                72.4476

                     34                     35                     36
                      A                      A                      A
 Frequencies --    652.0802               656.8512               688.6661
 Red. masses --      3.0763                 5.0121                 1.9422
 Frc consts  --      0.7707                 1.2741                 0.5427
 IR Inten    --     26.3204                12.6648                31.3570

                     37                     38                     39
                      A                      A                      A
 Frequencies --    743.6916               771.8444               776.4707
 Red. masses --      2.3570                 2.2555                 3.1924
 Frc consts  --      0.7681                 0.7917                 1.1340
 IR Inten    --     92.3908                69.1573                55.9351

                     40                     41                     42
                      A                      A                      A
 Frequencies --    786.4303               801.8952               856.7254
 Red. masses --      3.4508                 3.0696                 2.5785
 Frc consts  --      1.2575                 1.1630                 1.1150
 IR Inten    --     29.0290                 4.3107                 4.4552

                     43                     44                     45
                      A                      A                      A
 Frequencies --    861.0471               870.8924               913.8162
 Red. masses --      1.3059                 1.7149                 2.1623
 Frc consts  --      0.5704                 0.7663                 1.0639
 IR Inten    --      8.6094                21.5012                71.4186

                     46                     47                     48
                      A                      A                      A
 Frequencies --    941.9200               953.4115               968.2917
 Red. masses --      1.7642                 1.6960                 1.6645
 Frc consts  --      0.9222                 0.9083                 0.9195
 IR Inten    --      1.5821                 0.9145                35.5598

                     49                     50                     51
                      A                      A                      A
 Frequencies --    974.2488               976.5664               984.8625
 Red. masses --      1.2434                 2.4150                 1.3219
 Frc consts  --      0.6953                 1.3570                 0.7554
 IR Inten    --      3.2779                60.6398                 3.6116

                     52                     53                     54
                      A                      A                      A
 Frequencies --   1004.9296              1037.5497              1045.8249
 Red. masses --      2.4872                 2.6290                 2.1162
 Frc consts  --      1.4799                 1.6675                 1.3637
 IR Inten    --     25.8098                24.6834                 4.7080

                     55                     56                     57
                      A                      A                      A
 Frequencies --   1057.4456              1064.0567              1123.1445
 Red. masses --      1.4351                 1.3926                 3.5796
 Frc consts  --      0.9455                 0.9290                 2.6604
 IR Inten    --      2.4986                 0.0084                 4.0321

                     58                     59                     60
                      A                      A                      A
 Frequencies --   1144.2527              1155.2556              1167.1744
 Red. masses --      2.5856                 1.4103                 1.5675
 Frc consts  --      1.9946                 1.1090                 1.2582
 IR Inten    --     13.1687                11.1547                19.7919

                     61                     62                     63
                      A                      A                      A
 Frequencies --   1187.9138              1225.7531              1232.8362
 Red. masses --      2.2665                 1.1872                 1.2260
 Frc consts  --      1.8844                 1.0509                 1.0979
 IR Inten    --     48.8756                40.1309                 0.2079

                     64                     65                     66
                      A                      A                      A
 Frequencies --   1243.3066              1247.2943              1283.3527
 Red. masses --      2.7078                 2.4967                 1.3630
 Frc consts  --      2.4662                 2.2885                 1.3227
 IR Inten    --      2.9473                 1.4578                33.1040

                     67                     68                     69
                      A                      A                      A
 Frequencies --   1307.7709              1339.1751              1350.4437
 Red. masses --      3.0047                 1.5470                 1.7493
 Frc consts  --      3.0277                 1.6346                 1.8796
 IR Inten    --     26.3615                61.8056                 0.0994

                     70                     71                     72
                      A                      A                      A
 Frequencies --   1353.8034              1374.1621              1392.8934
 Red. masses --      3.3545                 1.8086                 1.5806
 Frc consts  --      3.6223                 2.0122                 1.8068
 IR Inten    --      5.2490               243.4863                55.8932

                     73                     74                     75
                      A                      A                      A
 Frequencies --   1422.7012              1426.5808              1427.3985
 Red. masses --      1.6309                 1.3395                 1.2193
 Frc consts  --      1.9449                 1.6062                 1.4637
 IR Inten    --     56.0884                29.6725                 5.1374

                     76                     77                     78
                      A                      A                      A
 Frequencies --   1446.0920              1455.2395              1459.4941
 Red. masses --      1.8316                 2.4928                 1.2193
 Frc consts  --      2.2567                 3.1103                 1.5303
 IR Inten    --      1.3592                16.6435                 1.1809

                     79                     80                     81
                      A                      A                      A
 Frequencies --   1502.8351              1508.7245              1512.7971
 Red. masses --      1.1756                 1.5456                 1.0495
 Frc consts  --      1.5644                 2.0728                 1.4151
 IR Inten    --     37.6876                91.6649                 0.0027

                     82                     83                     84
                      A                      A                      A
 Frequencies --   1516.8591              1520.5830              1531.8293
 Red. masses --      1.0456                 1.0582                 1.0892
 Frc consts  --      1.4174                 1.4416                 1.5059
 IR Inten    --      0.1529                 1.7665                 2.0596

                     85                     86                     87
                      A                      A                      A
 Frequencies --   1533.9256              1538.6624              1550.5433
 Red. masses --      1.0720                 1.0502                 1.0813
 Frc consts  --      1.4861                 1.4649                 1.5317
 IR Inten    --      6.1083                 5.3454                 9.2826

                     88                     89                     90
                      A                      A                      A
 Frequencies --   1564.4219              1620.6569              1665.0386
 Red. masses --      2.2298                 6.3764                 1.1705
 Frc consts  --      3.2153                 9.8675                 1.9119
 IR Inten    --      4.1813                 4.1385                65.5975

                     91                     92                     93
                      A                      A                      A
 Frequencies --   1673.5305              1744.0831              1763.7385
 Red. masses --      5.7199                 6.1077                 8.0196
 Frc consts  --      9.4386                10.9462                14.6985
 IR Inten    --     30.8160               125.7357               313.6300

                     94                     95                     96
                      A                      A                      A
 Frequencies --   3041.7204              3045.8644              3046.5036
 Red. masses --      1.0722                 1.0348                 1.0352
 Frc consts  --      5.8445                 5.6565                 5.6608
 IR Inten    --      3.7090                24.0054                26.5072

                     97                     98                     99
                      A                      A                      A
 Frequencies --   3053.8517              3056.3044              3112.4196
 Red. masses --      1.0364                 1.0701                 1.1024
 Frc consts  --      5.6946                 5.8891                 6.2919
 IR Inten    --     27.6803                54.0888                 3.9985

                    100                    101                    102
                      A                      A                      A
 Frequencies --   3113.2360              3118.1490              3120.9229
 Red. masses --      1.1023                 1.1027                 1.1015
 Frc consts  --      6.2948                 6.3170                 6.3215
 IR Inten    --      2.9337                29.2681                95.8510

                    103                    104                    105
                      A                      A                      A
 Frequencies --   3125.9345              3128.6930              3151.5157
 Red. masses --      1.1022                 1.1014                 1.0945
 Frc consts  --      6.3453                 6.3520                 6.4050
 IR Inten    --     16.2939                42.2511                 3.3525

                    106                    107                    108
                      A                      A                      A
 Frequencies --   3157.4977              3193.3820              3195.8629
 Red. masses --      1.0910                 1.0882                 1.0876
 Frc consts  --      6.4088                 6.5380                 6.5449
 IR Inten    --     11.3026                22.7637                 5.7442

                    109                    110                    111
                      A                      A                      A
 Frequencies --   3220.4520              3225.9939              3520.6108
 Red. masses --      1.0930                 1.0913                 1.0472
 Frc consts  --      6.6790                 6.6912                 7.6475
 IR Inten    --      9.7198                 9.4198                12.8365

                    112                    113                    114
                      A                      A                      A
 Frequencies --   3569.9612              3625.7334              3773.3244
 Red. masses --      1.0754                 1.0981                 1.0678
 Frc consts  --      8.0750                 8.5050                 8.9572
 IR Inten    --     63.2861                 8.9836                69.8963

 - Thermochemistry -
 -------------------
 Temperature   298.150 Kelvin.  Pressure   1.00000 Atm.
 Atom     1 has atomic number  6 and mass  12.00000

 Molecular mass:   263.16338 amu.
 Principal axes and moments of inertia in atomic units:
                           1         2         3
     Eigenvalues --  2390.51599********************
           X            0.99996   0.00870  -0.00167
           Y           -0.00868   0.99993   0.00774
           Z            0.00174  -0.00773   0.99997
 This molecule is an asymmetric top.
 Rotational symmetry number  1.
 Warning -- assumption of classical behavior for rotation
           may cause significant error
 Rotational temperatures (Kelvin)      0.03623     0.00687     0.00618
 Rotational constants (GHZ):           0.75496     0.14318     0.12884
 Zero-point vibrational energy     900199.6 (Joules/Mol)
                                  215.15287 (Kcal/Mol)
 Warning -- explicit consideration of  32 degrees of freedom as
           vibrations may cause significant error
 Vibrational temperatures:     24.74    39.18    46.16    64.38    97.53
          (Kelvin)            103.40   115.64   193.55   218.35   278.25
                              341.72   356.67   377.41   381.24   406.97
                              415.37   442.81   482.85   483.91   489.04
                              518.79   523.65   570.54   600.95   609.07
                              633.33   666.36   678.69   769.46   810.75
                              860.64   865.80   920.44   938.20   945.06
                              990.84  1070.01  1110.51  1117.17  1131.50
                             1153.75  1232.64  1238.85  1253.02  1314.78
                             1355.21  1371.75  1393.16  1401.73  1405.06
                             1417.00  1445.87  1492.80  1504.71  1521.43
                             1530.94  1615.95  1646.32  1662.16  1679.30
                             1709.14  1763.59  1773.78  1788.84  1794.58
                             1846.46  1881.59  1926.77  1942.99  1947.82
                             1977.11  2004.06  2046.95  2052.53  2053.71
                             2080.60  2093.77  2099.89  2162.24  2170.72
                             2176.58  2182.42  2187.78  2203.96  2206.98
                             2213.79  2230.89  2250.85  2331.76  2395.62
                             2407.84  2509.35  2537.63  4376.36  4382.32
                             4383.24  4393.81  4397.34  4478.08  4479.25
                             4486.32  4490.31  4497.52  4501.49  4534.33
                             4542.93  4594.56  4598.13  4633.51  4641.49
                             5065.37  5136.38  5216.62  5428.97

 Zero-point correction=                           0.342868 (Hartree/Particle)
 Thermal correction to Energy=                    0.362769
 Thermal correction to Enthalpy=                  0.363713
 Thermal correction to Gibbs Free Energy=         0.292536
 Sum of electronic and zero-point Energies=           -860.536487
 Sum of electronic and thermal Energies=              -860.516587
 Sum of electronic and thermal Enthalpies=            -860.515642
 Sum of electronic and thermal Free Energies=         -860.586820

                     E (Thermal)             CV                S
                      KCal/Mol        Cal/Mol-Kelvin    Cal/Mol-Kelvin
 Total                  227.641             75.795            149.805
 Electronic               0.000              0.000              0.000
 Translational            0.889              2.981             42.602
 Rotational               0.889              2.981             34.400
 Vibrational            225.863             69.833             72.802
 Vibration     1          0.593              1.986              6.934
 Vibration     2          0.593              1.984              6.021
 Vibration     3          0.594              1.983              5.696
 Vibration     4          0.595              1.980              5.037
 Vibration     5          0.598              1.970              4.217
 Vibration     6          0.598              1.967              4.102
 Vibration     7          0.600              1.962              3.882
 Vibration     8          0.613              1.919              2.880
 Vibration     9          0.619              1.901              2.650
 Vibration    10          0.635              1.849              2.195
 Vibration    11          0.656              1.783              1.821
 Vibration    12          0.662              1.766              1.745
 Vibration    13          0.670              1.742              1.646
 Vibration    14          0.671              1.737              1.629
 Vibration    15          0.682              1.705              1.516
 Vibration    16          0.685              1.695              1.482
 Vibration    17          0.698              1.659              1.374
 Vibration    18          0.717              1.604              1.233
 Vibration    19          0.717              1.603              1.229
 Vibration    20          0.720              1.596              1.213
 Vibration    21          0.735              1.553              1.120
 Vibration    22          0.737              1.546              1.105
 Vibration    23          0.763              1.478              0.975
 Vibration    24          0.781              1.432              0.900
 Vibration    25          0.785              1.420              0.881
 Vibration    26          0.800              1.383              0.826
 Vibration    27          0.821              1.332              0.757
 Vibration    28          0.829              1.313              0.733
 Vibration    29          0.890              1.173              0.577
 Vibration    30          0.919              1.110              0.517
 Vibration    31          0.956              1.036              0.453
 Vibration    32          0.960              1.028              0.447

 Optimization completed.
    -- Stationary point found.
 Normal termination of Gaussian 16 at Sun Dec 13 16:42:23 2020.

 ----------------------------------------------------------------------
 # B3LYP/6-311++G(d,p) empiricaldispersion=gd3bj scf=xqc pop=npa geom=c
 heck
 ----------------------------------------------------------------------

 --------------------------------------
 CID_76948266_JID_9218_Energie_neutraal
 --------------------------------------
 Structure from the checkpoint file:  "JID_9218.chk"
 Charge =  0 Multiplicity = 1

 SCF Done:  E(RB3LYP) =  -861.136724621     A.U. after   15 cycles
 Normal termination of Gaussian 16 at Sun Dec 13 16:51:55 2020.

 ----------------------------------------------------------------------
 # B3LYP/6-311++G(d,p) empiricaldispersion=gd3bj scf=xqc pop=npa geom=c
 heck
 ----------------------------------------------------------------------

 ------------------------------------
 CID_76948266_JID_9218_Energie_kation
 ------------------------------------
 Structure from the checkpoint file:  "JID_9218.chk"
 Charge =  1 Multiplicity = 2

 SCF Done:  E(UB3LYP) =  -860.842994012     A.U. after   31 cycles
 Normal termination of Gaussian 16 at Sun Dec 13 17:18:56 2020.
 Gaussian 16:  ES64L-G16RevA.03 25-Dec-2016

 ----------------------------------------------------------------------
 # B3LYP/6-311++G(d,p) empiricaldispersion=gd3bj scf=xqc pop=npa geom=c
 heck
 ----------------------------------------------------------------------

 -----------------------------------
 CID_76948266_JID_9218_Energie_anion
 -----------------------------------
 Structure from the checkpoint file:  "JID_9218.chk"
 Charge = -1 Multiplicity = 2

                         Standard orientation:
 ---------------------------------------------------------------------
 Center     Atomic      Atomic             Coordinates (Angstroms)
 Number     Number       Type             X           Y           Z
 ---------------------------------------------------------------------
      1          6           0       -4.774083   -1.129869    1.391055
      2          6           0       -4.364298   -0.778236   -0.055877
      3          6           0       -4.390513   -2.068937   -0.890688
      4          6           0       -5.391007    0.207138   -0.655796
      5          6           0       -2.978908   -0.120143   -0.041874
      6          6           0       -2.779641    1.072843    0.674834
      7          6           0       -1.543059    1.703481    0.709038
      8          6           0       -0.442163    1.146274    0.047281
      9          6           0       -0.629476   -0.031222   -0.681182
     10          6           0       -1.879295   -0.650335   -0.726547
     11          6           0        0.852290    1.902975    0.068947
     12          8           0        0.863818    3.128705   -0.002597
     13          7           0        2.024358    1.186907    0.118812
     14          6           0        2.246380   -0.143821    0.667429
     15          6           0        3.081159   -1.033765   -0.272512
     16          6           0        4.501036   -0.546602   -0.400193
     17          7           0        5.536898   -1.066359    0.156848
     18          8           0        5.184171   -2.171184    0.980026
     19          7           0        4.688356    0.652202   -1.095209
     20          1           0       -5.765937   -1.596961    1.402086
     21          1           0       -4.815136   -0.241031    2.028285
     22          1           0       -4.060599   -1.830740    1.838293
     23          1           0       -5.396114   -2.502285   -0.866187
     24          1           0       -4.136838   -1.879379   -1.939461
     25          1           0       -3.695845   -2.820009   -0.498660
     26          1           0       -5.451450    1.133346   -0.075991
     27          1           0       -5.120867    0.472361   -1.683754
     28          1           0       -6.389221   -0.246176   -0.669409
     29          1           0       -3.609803    1.523523    1.210417
     30          1           0       -1.410812    2.638931    1.242756
     31          1           0        0.196237   -0.457939   -1.243239
     32          1           0       -1.986068   -1.555993   -1.312017
     33          1           0        2.847163    1.778956    0.071027
     34          1           0        2.760732   -0.070366    1.634622
     35          1           0        1.278846   -0.611203    0.850327
     36          1           0        3.098816   -2.054644    0.112129
     37          1           0        2.607123   -1.044767   -1.262741
     38          1           0        6.056072   -2.475101    1.272671
     39          1           0        4.142187    0.728906   -1.946637
     40          1           0        5.669803    0.862461   -1.250593
 ---------------------------------------------------------------------

 SCF Done:  E(UB3LYP) =  -861.131519497     A.U. after   33 cycles
 SCF Done:  E(UB3LYP) =  -861.131519497     a.u. after    1 cycles

 The electronic state is 2-A.
 Alpha  occ. eigenvalues --  -19.07091 -18.96901 -14.25302 -14.23351 -14.22251
 Alpha  occ. eigenvalues --  -10.15360 -10.15145 -10.11752 -10.09904 -10.09036
 Alpha  occ. eigenvalues --  -10.07206 -10.07177 -10.07077 -10.07069 -10.06730
 Alpha  occ. eigenvalues --  -10.06695 -10.06653 -10.06587 -10.06544  -0.98606
 Alpha  occ. eigenvalues --   -0.92117  -0.85015  -0.81247  -0.76149  -0.73530
 Alpha  occ. eigenvalues --   -0.72287  -0.67492  -0.64340  -0.64201  -0.59952
 Alpha  occ. eigenvalues --   -0.59895  -0.56467  -0.53644  -0.50308  -0.49113
 Alpha  occ. eigenvalues --   -0.47758  -0.45273  -0.44064  -0.41464  -0.41008
 Alpha  occ. eigenvalues --   -0.38914  -0.38678  -0.37934  -0.36322  -0.35351
 Alpha  occ. eigenvalues --   -0.35039  -0.34604  -0.33893  -0.33348  -0.31939
 Alpha  occ. eigenvalues --   -0.31739  -0.30921  -0.30449  -0.29830  -0.29035
 Alpha  occ. eigenvalues --   -0.28722  -0.28098  -0.27992  -0.27436  -0.25771
 Alpha  occ. eigenvalues --   -0.25429  -0.24028  -0.23737  -0.23005  -0.22409
 Alpha  occ. eigenvalues --   -0.19291  -0.15774  -0.15314  -0.14837  -0.13821
 Alpha  occ. eigenvalues --   -0.13213   0.03953
 Alpha virt. eigenvalues --    0.05530   0.06010   0.06355   0.07456   0.07859
 Alpha virt. eigenvalues --    0.08207   0.08791   0.08927   0.09455   0.09913
 Alpha virt. eigenvalues --    0.10088   0.10248   0.10726   0.11414   0.11543

  Beta  occ. eigenvalues --  -19.07081 -18.96796 -14.25281 -14.23297 -14.22248
  Beta  occ. eigenvalues --  -10.15270 -10.15137 -10.11745 -10.09914 -10.09014
  Beta  occ. eigenvalues --  -10.07193 -10.07053 -10.07047 -10.07012 -10.06754
  Beta  occ. eigenvalues --  -10.06668 -10.06576 -10.06569 -10.06445  -0.98587
  Beta  occ. eigenvalues --   -0.91925  -0.84959  -0.81182  -0.75992  -0.73464
  Beta  occ. eigenvalues --   -0.72192  -0.67440  -0.64199  -0.63997  -0.59910
  Beta  occ. eigenvalues --   -0.59850  -0.56393  -0.53400  -0.50226  -0.49024
  Beta  occ. eigenvalues --   -0.47675  -0.45177  -0.44009  -0.41415  -0.40949
  Beta  occ. eigenvalues --   -0.38876  -0.38611  -0.37853  -0.36226  -0.35288
  Beta  occ. eigenvalues --   -0.34980  -0.34514  -0.33836  -0.33281  -0.31858
  Beta  occ. eigenvalues --   -0.31644  -0.30833  -0.30337  -0.29755  -0.29003
  Beta  occ. eigenvalues --   -0.28683  -0.28058  -0.27770  -0.27251  -0.25628
  Beta  occ. eigenvalues --   -0.25292  -0.23858  -0.23651  -0.22920  -0.22352
  Beta  occ. eigenvalues --   -0.19243  -0.15544  -0.15038  -0.14480  -0.13521
  Beta  occ. eigenvalues --   -0.12887
  Beta virt. eigenvalues --    0.05758   0.06140   0.07031   0.07565   0.07673
  Beta virt. eigenvalues --    0.08026   0.08261   0.08976   0.09149   0.09438
  Beta virt. eigenvalues --    0.09894   0.10154   0.10375   0.10967   0.11438

 Mulliken charges and spin densities:
               1          2
     1  C   -0.071620  -0.604102
     2  C    0.065591   0.522460
     3  C   -0.384337  -0.122271
     4  C   -0.400679  -0.275597
     5  C    0.181024   0.394214
     6  C   -0.273595  -0.047205
     7  C   -0.551895   0.341920
     8  C    0.762448  -0.330395
     9  C    0.440015  -0.760285
    10  C   -0.837178   0.482164
    11  C    0.453247  -0.696033
    12  O   -0.352818   0.043507
    13  N   -0.224889   0.040832
    14  C   -0.642069   0.265346
    15  C    0.761948  -1.246621
    16  C   -0.133387   0.189487
    17  N   -0.277725   0.019591
    18  O   -0.136752  -0.016177
    19  N   -0.324410  -0.044401
    20  H   -0.091316   0.230705
    21  H    0.076092   0.062390
    22  H    0.065133   0.076434
    23  H   -0.134602   0.295765
    24  H    0.007795   0.127122
    25  H    0.024342   0.109874
    26  H    0.071961   0.064234
    27  H    0.110421   0.031833
    28  H    0.086316   0.048237
    29  H    0.081562   0.026722
    30  H    0.174552   0.027443
    31  H   -0.218845   0.382747
    32  H    0.098514   0.068530
    33  H    0.374003  -0.017428
    34  H    0.107707   0.063936
    35  H    0.178691   0.017643
    36  H    0.228872  -0.054590
    37  H   -0.326476   0.503899
    38  H    0.187770   0.078357
    39  H   -0.058940   0.313000
    40  H   -0.096472   0.386717
 Sum of Mulliken charges =  -1.00000   1.00000

 Dipole moment (field-independent basis, Debye):
    X=             -1.6627    Y=             -2.4970    Z=              3.1397  Tot=              4.3425
 Quadrupole moment (field-independent basis, Debye-Ang):
   XX=           -206.9313   YY=           -158.0067   ZZ=           -142.3949
   XY=            -12.4764   XZ=             11.1037   YZ=              1.7027

 Summary of Natural Population Analysis:

                                       Natural Population
                Natural  -----------------------------------------------
    Atom  No    Charge         Core      Valence    Rydberg      Total
 -----------------------------------------------------------------------
      C    1   -0.27934      0.99963     2.27257    0.00714     3.27934
      C    2   -0.05390      0.99956     2.04391    0.01043     3.05390
      C    3   -0.28497      0.99964     2.27935    0.00598     3.28497
      C    4   -0.27730      0.99963     2.27221    0.00546     3.27730
      C    5    0.02011      0.99948     1.96856    0.01186     2.97989
      C    6   -0.10564      0.99952     2.09870    0.00742     3.10564
      C    7   -0.07441      0.99953     2.06625    0.00864     3.07441
      C    8   -0.05633      0.99946     2.04611    0.01076     3.05633
      C    9   -0.07705      0.99954     2.06834    0.00918     3.07705
      C   10   -0.11525      0.99951     2.10666    0.00908     3.11525
      C   11    0.34869      0.99961     1.62842    0.02327     2.65131
      O   12   -0.31461      0.99988     3.30961    0.00512     4.31461
      N   13   -0.32712      0.99967     2.81823    0.00922     3.82712
      C   14   -0.08419      0.99961     2.07469    0.00989     3.08419
      C   15   -0.22752      0.99958     2.21889    0.00906     3.22752
      C   16    0.20351      0.99962     1.77795    0.01891     2.79649
      N   17   -0.13207      0.99958     2.61778    0.01470     3.63207
      O   18   -0.29551      0.99990     3.28931    0.00631     4.29551
      N   19   -0.40233      0.99972     2.89270    0.00991     3.90233
      H   20    0.09642      0.00000     0.40271    0.00087     0.40358
      H   21    0.09881      0.00000     0.40044    0.00075     0.40119
      H   22    0.10147      0.00000     0.39786    0.00068     0.39853
      H   23    0.09874      0.00000     0.40040    0.00085     0.40126
      H   24    0.10122      0.00000     0.39784    0.00094     0.39878
      H   25    0.10145      0.00000     0.39761    0.00094     0.39855
      H   26    0.09925      0.00000     0.39993    0.00081     0.40075
      H   27    0.10121      0.00000     0.39803    0.00076     0.39879
      H   28    0.09485      0.00000     0.40437    0.00078     0.40515
      H   29    0.09489      0.00000     0.40383    0.00129     0.40511
      H   30    0.10574      0.00000     0.39332    0.00094     0.39426
      H   31    0.09979      0.00000     0.39834    0.00187     0.40021
      H   32    0.10030      0.00000     0.39816    0.00155     0.39970
      H   33    0.19876      0.00000     0.29879    0.00245     0.30124
      H   34    0.09153      0.00000     0.40731    0.00116     0.40847
      H   35    0.10901      0.00000     0.38991    0.00108     0.39099
      H   36    0.11792      0.00000     0.38080    0.00128     0.38208
      H   37    0.10947      0.00000     0.38855    0.00199     0.39053
      H   38    0.23174      0.00000     0.26533    0.00293     0.26826
      H   39    0.19289      0.00000     0.30267    0.00445     0.30711
      H   40    0.18978      0.00000     0.30710    0.00313     0.31022
 =======================================================================
   * Total *   -0.00000     18.99267    51.78350    0.22384    71.00000

 Normal termination of Gaussian 16 at Sun Dec 13 17:47:26 2020.
