 Gaussian 16, Revision A.03,

 -----------------------------------------------------------
 # opt freq B3LYP/6-31G(d) empiricaldispersion=gd3bj scf=xqc
 -----------------------------------------------------------

 -------------------------------
 CID_152708749_JID_3211_neutraal
 -------------------------------
 Symbolic Z-matrix:
 Charge =  0 Multiplicity = 1

 SCF Done:  E(RB3LYP) =  -942.856408327     A.U. after   16 cycles
 SCF Done:  E(RB3LYP) =  -942.859394743     A.U. after   15 cycles
 SCF Done:  E(RB3LYP) =  -942.860987232     A.U. after   14 cycles
 SCF Done:  E(RB3LYP) =  -942.861674275     A.U. after   13 cycles
 SCF Done:  E(RB3LYP) =  -942.862060529     A.U. after   16 cycles
 SCF Done:  E(RB3LYP) =  -942.862216577     A.U. after   13 cycles
 SCF Done:  E(RB3LYP) =  -942.862306036     A.U. after   13 cycles
 SCF Done:  E(RB3LYP) =  -942.862333914     A.U. after   12 cycles
 SCF Done:  E(RB3LYP) =  -942.862345959     A.U. after   11 cycles
 SCF Done:  E(RB3LYP) =  -942.862359356     A.U. after   10 cycles
 SCF Done:  E(RB3LYP) =  -942.862422826     A.U. after    9 cycles
 SCF Done:  E(RB3LYP) =  -942.862424203     A.U. after    9 cycles
 SCF Done:  E(RB3LYP) =  -942.862424625     A.U. after    9 cycles
 SCF Done:  E(RB3LYP) =  -942.862424779     A.U. after    8 cycles
 SCF Done:  E(RB3LYP) =  -942.862424837     A.U. after    8 cycles
 Optimization completed.
    -- Stationary point found.
 Normal termination of Gaussian 16 at Wed Dec  9 22:30:50 2020.

 --------------------------------------------------------------------
 #N Geom=AllCheck Guess=TCheck SCRF=Check GenChk RB3LYP/6-31G(d) Freq
 --------------------------------------------------------------------

 Structure from the checkpoint file:  "JID_3211.chk"
 -------------------------------
 CID_152708749_JID_3211_neutraal
 -------------------------------
 Charge =  0 Multiplicity = 1

 SCF Done:  E(RB3LYP) =  -942.862424837     A.U. after    1 cycles

  Exact polarizability: 137.801 -13.480 117.750  -4.832  -7.653  90.617
 Approx polarizability: 209.584 -18.465 194.201  -9.744 -29.234 187.221

                      1                      2                      3
                      A                      A                      A
 Frequencies --     26.6858                40.8022                92.9935
 Red. masses --      8.4527                 6.8239                 1.0658
 Frc consts  --      0.0035                 0.0067                 0.0054
 IR Inten    --      0.9258                 1.5899                 0.4745

                      4                      5                      6
                      A                      A                      A
 Frequencies --    110.8541               133.0237               155.1345
 Red. masses --      8.2797                 3.7962                 9.0867
 Frc consts  --      0.0599                 0.0396                 0.1288
 IR Inten    --      3.0463                 4.5055                 1.6811

                      7                      8                      9
                      A                      A                      A
 Frequencies --    245.5158               259.6856               272.0143
 Red. masses --      5.0990                 3.8917                 2.4321
 Frc consts  --      0.1811                 0.1546                 0.1060
 IR Inten    --      2.7084                 0.6654                 4.6619

                     10                     11                     12
                      A                      A                      A
 Frequencies --    292.8837               404.3907               477.4916
 Red. masses --      5.4327                 7.2921                 7.2254
 Frc consts  --      0.2746                 0.7026                 0.9706
 IR Inten    --      0.8690                 1.3884                 4.0922

                     13                     14                     15
                      A                      A                      A
 Frequencies --    500.7254               558.7978               564.9055
 Red. masses --      4.2927                 4.1098                 6.8217
 Frc consts  --      0.6341                 0.7561                 1.2826
 IR Inten    --      4.8582                 1.0043                 7.5635

                     16                     17                     18
                      A                      A                      A
 Frequencies --    579.9163               650.1274               652.2368
 Red. masses --     12.2939                 2.8253                 3.4827
 Frc consts  --      2.4360                 0.7036                 0.8729
 IR Inten    --     12.8588                15.8839                 8.7894

                     19                     20                     21
                      A                      A                      A
 Frequencies --    656.9771               702.6532               717.1006
 Red. masses --      4.4459                 4.3145                 3.0456
 Frc consts  --      1.1306                 1.2551                 0.9227
 IR Inten    --     34.4299                 1.1552                12.9576

                     22                     23                     24
                      A                      A                      A
 Frequencies --    775.6424               845.3914               858.0137
 Red. masses --      6.2945                 1.2815                 4.3623
 Frc consts  --      2.2312                 0.5396                 1.8922
 IR Inten    --     24.8641                 0.4890                13.3122

                     25                     26                     27
                      A                      A                      A
 Frequencies --    875.2142               889.9324               991.5978
 Red. masses --      5.5395                 6.3881                 1.8770
 Frc consts  --      2.5000                 2.9808                 1.0874
 IR Inten    --     18.5666                33.8160                 9.0020

                     28                     29                     30
                      A                      A                      A
 Frequencies --   1015.6443              1075.3312              1094.8216
 Red. masses --      2.2640                 1.4825                 1.7177
 Frc consts  --      1.3759                 1.0100                 1.2130
 IR Inten    --     11.8126                 1.9298                 3.4364

                     31                     32                     33
                      A                      A                      A
 Frequencies --   1151.7685              1211.5132              1253.5847
 Red. masses --      1.5826                 2.9429                 1.4424
 Frc consts  --      1.2370                 2.5450                 1.3355
 IR Inten    --      7.3627                 8.4948                36.7779

                     34                     35                     36
                      A                      A                      A
 Frequencies --   1294.3271              1300.9905              1355.4783
 Red. masses --      3.6082                 2.9580                 2.3006
 Frc consts  --      3.5614                 2.9498                 2.4905
 IR Inten    --     36.2727               134.6305                26.8653

                     37                     38                     39
                      A                      A                      A
 Frequencies --   1378.2958              1401.3455              1437.9390
 Red. masses --      2.6257                 2.0143                 2.9429
 Frc consts  --      2.9388                 2.3305                 3.5851
 IR Inten    --     56.1191                39.1662                13.0434

                     40                     41                     42
                      A                      A                      A
 Frequencies --   1452.3409              1502.9843              1512.1295
 Red. masses --      2.0566                 1.0450                 1.2556
 Frc consts  --      2.5558                 1.3908                 1.6915
 IR Inten    --     15.7928                 4.0807                21.1449

                     43                     44                     45
                      A                      A                      A
 Frequencies --   1516.2336              1522.6594              1605.2326
 Red. masses --      1.7138                 1.9077                 5.7589
 Frc consts  --      2.3214                 2.6060                 8.7431
 IR Inten    --     52.8289                65.0831                12.2043

                     46                     47                     48
                      A                      A                      A
 Frequencies --   1628.3735              2261.1913              3055.1304
 Red. masses --      6.0651                13.7079                 1.0366
 Frc consts  --      9.4753                41.2949                 5.7007
 IR Inten    --     39.1809               420.4875                21.9247

                     49                     50                     51
                      A                      A                      A
 Frequencies --   3067.7354              3111.8013              3112.9694
 Red. masses --      1.0596                 1.1052                 1.1014
 Frc consts  --      5.8755                 6.3052                 6.2887
 IR Inten    --     38.5084                10.8970                14.1994

                     52                     53                     54
                      A                      A                      A
 Frequencies --   3133.4655              3274.6203              3296.8223
 Red. masses --      1.1017                 1.0900                 1.1018
 Frc consts  --      6.3735                 6.8866                 7.0560
 IR Inten    --     20.5068                 5.2227                 1.4563

 - Thermochemistry -
 -------------------
 Temperature   298.150 Kelvin.  Pressure   1.00000 Atm.
 Atom     1 has atomic number  6 and mass  12.00000

 Molecular mass:   193.04222 amu.
 Principal axes and moments of inertia in atomic units:
                           1         2         3
     Eigenvalues --  1648.415773168.536694062.36858
           X            0.99841  -0.05576  -0.00870
           Y            0.05564   0.99836  -0.01332
           Z            0.00943   0.01282   0.99987
 This molecule is an asymmetric top.
 Rotational symmetry number  1.
 Warning -- assumption of classical behavior for rotation
           may cause significant error
 Rotational temperatures (Kelvin)      0.05254     0.02734     0.02132
 Rotational constants (GHZ):           1.09483     0.56958     0.44426
 Zero-point vibrational energy     378949.7 (Joules/Mol)
                                   90.57114 (Kcal/Mol)
 Warning -- explicit consideration of  16 degrees of freedom as
           vibrations may cause significant error
 Vibrational temperatures:     38.39    58.71   133.80   159.49   191.39
          (Kelvin)            223.20   353.24   373.63   391.37   421.39
                              581.83   687.00   720.43   803.99   812.77
                              834.37   935.39   938.42   945.24  1010.96
                             1031.75  1115.98  1216.33  1234.49  1259.24
                             1280.41  1426.69  1461.29  1547.16  1575.20
                             1657.14  1743.10  1803.63  1862.25  1871.84
                             1950.23  1983.06  2016.22  2068.87  2089.59
                             2162.46  2175.62  2181.52  2190.77  2309.57
                             2342.87  3253.35  4395.65  4413.79  4477.19
                             4478.87  4508.36  4711.45  4743.39

 Zero-point correction=                           0.144334 (Hartree/Particle)
 Thermal correction to Energy=                    0.156040
 Thermal correction to Enthalpy=                  0.156984
 Thermal correction to Gibbs Free Energy=         0.104595
 Sum of electronic and zero-point Energies=           -942.718091
 Sum of electronic and thermal Energies=              -942.706385
 Sum of electronic and thermal Enthalpies=            -942.705441
 Sum of electronic and thermal Free Energies=         -942.757829

                     E (Thermal)             CV                S
                      KCal/Mol        Cal/Mol-Kelvin    Cal/Mol-Kelvin
 Total                   97.916             42.297            110.261
 Electronic               0.000              0.000              0.000
 Translational            0.889              2.981             41.679
 Rotational               0.889              2.981             31.429
 Vibrational             96.139             36.336             37.153
 Vibration     1          0.593              1.984              6.062
 Vibration     2          0.594              1.981              5.220
 Vibration     3          0.602              1.954              3.596
 Vibration     4          0.607              1.940              3.254
 Vibration     5          0.613              1.920              2.902
 Vibration     6          0.620              1.897              2.608
 Vibration     7          0.660              1.770              1.763
 Vibration     8          0.668              1.746              1.664
 Vibration     9          0.675              1.725              1.583
 Vibration    10          0.688              1.687              1.457
 Vibration    11          0.770              1.461              0.947
 Vibration    12          0.834              1.300              0.717
 Vibration    13          0.856              1.248              0.656
 Vibration    14          0.914              1.120              0.526
 Vibration    15          0.921              1.107              0.514
 Vibration    16          0.937              1.075              0.486

 Optimization completed.
    -- Stationary point found.
 Normal termination of Gaussian 16 at Wed Dec  9 22:35:57 2020.

 ----------------------------------------------------------------------
 # B3LYP/6-311++G(d,p) empiricaldispersion=gd3bj scf=xqc pop=npa geom=c
 heck
 ----------------------------------------------------------------------

 ---------------------------------------
 CID_152708749_JID_3211_Energie_neutraal
 ---------------------------------------
 Structure from the checkpoint file:  "JID_3211.chk"
 Charge =  0 Multiplicity = 1

 SCF Done:  E(RB3LYP) =  -943.031807922     A.U. after   15 cycles
 Normal termination of Gaussian 16 at Wed Dec  9 22:38:07 2020.

 ----------------------------------------------------------------------
 # B3LYP/6-311++G(d,p) empiricaldispersion=gd3bj scf=xqc pop=npa geom=c
 heck
 ----------------------------------------------------------------------

 -------------------------------------
 CID_152708749_JID_3211_Energie_kation
 -------------------------------------
 Structure from the checkpoint file:  "JID_3211.chk"
 Charge =  1 Multiplicity = 2

 SCF Done:  E(UB3LYP) =  -942.735475394     A.U. after   23 cycles
 Normal termination of Gaussian 16 at Wed Dec  9 22:42:48 2020.
 Gaussian 16:  ES64L-G16RevA.03 25-Dec-2016

 ----------------------------------------------------------------------
 # B3LYP/6-311++G(d,p) empiricaldispersion=gd3bj scf=xqc pop=npa geom=c
 heck
 ----------------------------------------------------------------------

 ------------------------------------
 CID_152708749_JID_3211_Energie_anion
 ------------------------------------
 Structure from the checkpoint file:  "JID_3211.chk"
 Charge = -1 Multiplicity = 2

                         Standard orientation:
 ---------------------------------------------------------------------
 Center     Atomic      Atomic             Coordinates (Angstroms)
 Number     Number       Type             X           Y           Z
 ---------------------------------------------------------------------
      1          6           0       -1.442356    2.806676    0.044340
      2          6           0       -0.468725    1.674504    0.108696
      3          6           0       -0.665711    0.402652    0.622681
      4          7           0        0.551304   -0.248937    0.430314
      5          6           0        1.101225   -1.507313    0.635549
      6          6           0        2.382982   -1.571618    0.212709
      7         16           0        2.957626   -0.049991   -0.477334
      8          6           0        1.389332    0.666473   -0.170649
      9          7           0        0.820196    1.831179   -0.377283
     10          6           0       -1.829326   -0.276634    1.244178
     11          7           0       -2.291307   -1.492203    0.497726
     12          7           0       -2.569970   -1.282470   -0.689557
     13          7           0       -2.844567   -1.199706   -1.793898
     14          1           0       -1.093136    3.656019    0.642547
     15          1           0       -1.551631    3.158498   -0.987192
     16          1           0       -2.429810    2.512757    0.412746
     17          1           0        0.502463   -2.296112    1.067923
     18          1           0        3.038707   -2.428535    0.253311
     19          1           0       -1.597377   -0.661829    2.241485
     20          1           0       -2.655357    0.435566    1.350396
 ---------------------------------------------------------------------

 SCF Done:  E(UB3LYP) =  -943.025979205     A.U. after   33 cycles
 SCF Done:  E(UB3LYP) =  -943.025979205     a.u. after    1 cycles

 The electronic state is 2-A.
 Alpha  occ. eigenvalues --  -88.79154 -14.33562 -14.28669 -14.24037 -14.23036
 Alpha  occ. eigenvalues --  -14.20009 -10.15853 -10.12804 -10.11399 -10.11304
 Alpha  occ. eigenvalues --  -10.10527 -10.10304 -10.07447  -7.87727  -5.84058
 Alpha  occ. eigenvalues --   -5.83712  -5.83216  -1.00571  -0.94373  -0.84906
 Alpha  occ. eigenvalues --   -0.81705  -0.74761  -0.67833  -0.65607  -0.62737
 Alpha  occ. eigenvalues --   -0.58494  -0.51327  -0.48739  -0.47336  -0.42805
 Alpha  occ. eigenvalues --   -0.40181  -0.38951  -0.37385  -0.37111  -0.36703
 Alpha  occ. eigenvalues --   -0.35423  -0.32763  -0.32111  -0.31295  -0.30259
 Alpha  occ. eigenvalues --   -0.29464  -0.28814  -0.27421  -0.24163  -0.22217
 Alpha  occ. eigenvalues --   -0.19554  -0.18007  -0.13499  -0.13406  -0.11741
 Alpha  occ. eigenvalues --    0.04437
 Alpha virt. eigenvalues --    0.06365   0.07356   0.07687   0.09043   0.09416
 Alpha virt. eigenvalues --    0.10099   0.10214   0.10953   0.11736   0.12257
 Alpha virt. eigenvalues --    0.12580   0.12875   0.13155   0.14292   0.15160

  Beta  occ. eigenvalues --  -88.79152 -14.33313 -14.28666 -14.23667 -14.23098
  Beta  occ. eigenvalues --  -14.20007 -10.15852 -10.12782 -10.11365 -10.11179
  Beta  occ. eigenvalues --  -10.10527 -10.10304 -10.07432  -7.87725  -5.84052
  Beta  occ. eigenvalues --   -5.83711  -5.83214  -1.00065  -0.94361  -0.84647
  Beta  occ. eigenvalues --   -0.81696  -0.74731  -0.67766  -0.65541  -0.62647
  Beta  occ. eigenvalues --   -0.58397  -0.51271  -0.48706  -0.47267  -0.42676
  Beta  occ. eigenvalues --   -0.39765  -0.38585  -0.37175  -0.36892  -0.36543
  Beta  occ. eigenvalues --   -0.35328  -0.32128  -0.32099  -0.31147  -0.29836
  Beta  occ. eigenvalues --   -0.29334  -0.28772  -0.27383  -0.24144  -0.22202
  Beta  occ. eigenvalues --   -0.19288  -0.17612  -0.13445  -0.13345  -0.11709
  Beta virt. eigenvalues --    0.07216   0.07611   0.07751   0.08768   0.09503
  Beta virt. eigenvalues --    0.10275   0.10466   0.10996   0.11322   0.11875
  Beta virt. eigenvalues --    0.12536   0.12819   0.13065   0.13274   0.14330

 Mulliken charges and spin densities:
               1          2
     1  C   -0.007655  -0.412496
     2  C   -0.255273   0.156280
     3  C   -0.847585   1.422869
     4  N    0.238302   0.080674
     5  C    0.587133  -0.841609
     6  C    0.244156  -0.506346
     7  S    0.156684  -0.294816
     8  C   -0.285586   0.102197
     9  N   -0.097501   0.037777
    10  C    1.930358  -2.785040
    11  N   -0.769223   0.634037
    12  N    0.499509  -0.044386
    13  N   -0.134939  -0.089523
    14  H    0.070040   0.085218
    15  H    0.140594   0.017328
    16  H   -0.005770   0.115416
    17  H   -0.335766   0.521043
    18  H   -1.144637   1.415511
    19  H   -0.679141   0.895661
    20  H   -0.303698   0.490202
 Sum of Mulliken charges =  -1.00000   1.00000

 Dipole moment (field-independent basis, Debye):
    X=              1.1484    Y=              4.8446    Z=             -1.6572  Tot=              5.2474
 Quadrupole moment (field-independent basis, Debye-Ang):
   XX=           -132.2456   YY=           -124.6784   ZZ=           -116.4598
   XY=              2.2683   XZ=             -0.4337   YZ=              3.6460

 Summary of Natural Population Analysis:

                                       Natural Population
                Natural  -----------------------------------------------
    Atom  No    Charge         Core      Valence    Rydberg      Total
 -----------------------------------------------------------------------
      C    1   -0.29601      0.99963     2.29054    0.00584     3.29601
      C    2    0.06930      0.99949     1.91666    0.01456     2.93070
      C    3    0.03856      0.99945     1.94839    0.01360     2.96144
      N    4   -0.20395      0.99956     2.69283    0.01156     3.70395
      C    5   -0.00607      0.99950     1.99315    0.01342     3.00607
      C    6   -0.19413      0.99953     2.18315    0.01145     3.19413
      S    7    0.18125      4.99946     2.79780    0.02148     7.81875
      C    8    0.11516      0.99954     1.86456    0.02074     2.88484
      N    9   -0.27259      0.99965     2.76312    0.00982     3.77259
      C   10   -0.10319      0.99955     2.09120    0.01244     3.10319
      N   11   -0.21316      0.99972     2.69843    0.01500     3.71316
      N   12    0.13315      0.99970     2.35148    0.01566     3.36685
      N   13   -0.00969      0.99982     2.49640    0.01348     3.50969
      H   14    0.10361      0.00000     0.39537    0.00103     0.39639
      H   15    0.10510      0.00000     0.39397    0.00093     0.39490
      H   16    0.10409      0.00000     0.39505    0.00085     0.39591
      H   17    0.12068      0.00000     0.37693    0.00239     0.37932
      H   18    0.11881      0.00000     0.37705    0.00414     0.38119
      H   19    0.10784      0.00000     0.38805    0.00411     0.39216
      H   20    0.10122      0.00000     0.39690    0.00188     0.39878
 =======================================================================
   * Total *    0.00000     16.99460    32.81102    0.19438    50.00000

 Normal termination of Gaussian 16 at Wed Dec  9 22:49:28 2020.
