 Gaussian 16, Revision A.03,

 -----------------------------------------------------------
 # opt freq B3LYP/6-31G(d) empiricaldispersion=gd3bj scf=xqc
 -----------------------------------------------------------

 -------------------------------
 CID_138913060_JID_8610_neutraal
 -------------------------------
 Symbolic Z-matrix:
 Charge =  0 Multiplicity = 1

 SCF Done:  E(RB3LYP) =  -1114.87793453     A.U. after   14 cycles
 SCF Done:  E(RB3LYP) =  -1114.88277895     A.U. after   12 cycles
 SCF Done:  E(RB3LYP) =  -1114.88316854     A.U. after   11 cycles
 SCF Done:  E(RB3LYP) =  -1114.88349434     A.U. after   11 cycles
 SCF Done:  E(RB3LYP) =  -1114.88359921     A.U. after   11 cycles
 SCF Done:  E(RB3LYP) =  -1114.88363525     A.U. after   11 cycles
 SCF Done:  E(RB3LYP) =  -1114.88365631     A.U. after   11 cycles
 SCF Done:  E(RB3LYP) =  -1114.88368128     A.U. after   11 cycles
 SCF Done:  E(RB3LYP) =  -1114.88371393     A.U. after   11 cycles
 SCF Done:  E(RB3LYP) =  -1114.88372426     A.U. after   11 cycles
 SCF Done:  E(RB3LYP) =  -1114.88359651     A.U. after   12 cycles
 SCF Done:  E(RB3LYP) =  -1114.88425333     A.U. after   11 cycles
 SCF Done:  E(RB3LYP) =  -1114.88425423     A.U. after    8 cycles
 SCF Done:  E(RB3LYP) =  -1114.88425453     A.U. after    8 cycles
 SCF Done:  E(RB3LYP) =  -1114.88425465     A.U. after    7 cycles
 SCF Done:  E(RB3LYP) =  -1114.88425468     A.U. after    7 cycles
 Optimization completed.
    -- Stationary point found.
 Normal termination of Gaussian 16 at Fri Dec 11 21:59:17 2020.

 --------------------------------------------------------------------
 #N Geom=AllCheck Guess=TCheck SCRF=Check GenChk RB3LYP/6-31G(d) Freq
 --------------------------------------------------------------------

 Structure from the checkpoint file:  "JID_8610.chk"
 -------------------------------
 CID_138913060_JID_8610_neutraal
 -------------------------------
 Charge =  0 Multiplicity = 1

 SCF Done:  E(RB3LYP) =  -1114.88425468     A.U. after    1 cycles

  Exact polarizability: 238.808 -24.292 153.942  -3.644  -5.314 170.837
 Approx polarizability: 324.675 -37.761 204.876  -9.117 -13.962 291.000

                      1                      2                      3
                      A                      A                      A
 Frequencies --     19.4152                28.7001                36.0671
 Red. masses --      3.9260                 4.3933                 3.9203
 Frc consts  --      0.0009                 0.0021                 0.0030
 IR Inten    --      0.5456                 2.8868                 0.0813

                      4                      5                      6
                      A                      A                      A
 Frequencies --     42.8648                57.8169                60.6142
 Red. masses --      4.8891                 3.6374                 3.6863
 Frc consts  --      0.0053                 0.0072                 0.0080
 IR Inten    --      0.9047                 0.3634                 0.1013

                      7                      8                      9
                      A                      A                      A
 Frequencies --     87.8815               117.5978               137.2117
 Red. masses --      3.0978                 4.2450                 2.2344
 Frc consts  --      0.0141                 0.0346                 0.0248
 IR Inten    --      0.6100                 2.2804                 1.8791

                     10                     11                     12
                      A                      A                      A
 Frequencies --    151.8289               169.8167               181.2776
 Red. masses --      3.0878                 2.4659                 2.3090
 Frc consts  --      0.0419                 0.0419                 0.0447
 IR Inten    --      1.3550                 2.3353                 2.4071

                     13                     14                     15
                      A                      A                      A
 Frequencies --    197.9372               234.7519               238.4313
 Red. masses --      2.5991                 1.5944                 1.5563
 Frc consts  --      0.0600                 0.0518                 0.0521
 IR Inten    --      6.0273                 0.4233                12.8792

                     16                     17                     18
                      A                      A                      A
 Frequencies --    245.4968               257.9841               272.9686
 Red. masses --      2.2357                 1.8419                 2.3911
 Frc consts  --      0.0794                 0.0722                 0.1050
 IR Inten    --      5.9760                15.8716                 8.0092

                     19                     20                     21
                      A                      A                      A
 Frequencies --    294.8940               337.0139               346.4282
 Red. masses --      1.5762                 2.2718                 2.1868
 Frc consts  --      0.0808                 0.1520                 0.1546
 IR Inten    --     50.5434                 7.6370                 1.1349

                     22                     23                     24
                      A                      A                      A
 Frequencies --    385.9786               402.4153               424.4869
 Red. masses --      2.7964                 2.0596                 5.6429
 Frc consts  --      0.2455                 0.1965                 0.5991
 IR Inten    --      0.6546                 1.9792                 0.7068

                     25                     26                     27
                      A                      A                      A
 Frequencies --    434.7704               447.7938               478.9866
 Red. masses --      2.2278                 3.2136                 4.1325
 Frc consts  --      0.2481                 0.3797                 0.5586
 IR Inten    --      0.6402                 3.2809                 5.6386

                     28                     29                     30
                      A                      A                      A
 Frequencies --    505.3555               547.0603               605.0674
 Red. masses --      2.4980                 2.6028                 4.3091
 Frc consts  --      0.3759                 0.4589                 0.9295
 IR Inten    --     10.4586                 5.9798                 1.6463

                     31                     32                     33
                      A                      A                      A
 Frequencies --    630.1980               688.5023               707.6715
 Red. masses --      3.6423                 4.8438                 2.3055
 Frc consts  --      0.8523                 1.3528                 0.6803
 IR Inten    --      5.0277                 4.4293                 6.9457

                     34                     35                     36
                      A                      A                      A
 Frequencies --    721.9491               740.2878               754.8353
 Red. masses --      4.0912                 1.7846                 1.2940
 Frc consts  --      1.2564                 0.5762                 0.4344
 IR Inten    --      1.1802                 4.5601                33.0043

                     37                     38                     39
                      A                      A                      A
 Frequencies --    775.4930               806.1352               812.4936
 Red. masses --      1.4666                 2.8497                 2.5317
 Frc consts  --      0.5197                 1.0911                 0.9847
 IR Inten    --     17.3757                 8.4270                 3.0949

                     40                     41                     42
                      A                      A                      A
 Frequencies --    825.7360               854.0828               867.5489
 Red. masses --      2.1420                 1.3363                 1.5217
 Frc consts  --      0.8605                 0.5743                 0.6748
 IR Inten    --      1.6806                 0.6347                15.3489

                     43                     44                     45
                      A                      A                      A
 Frequencies --    893.5068               926.8116               943.2648
 Red. masses --      1.6299                 1.9712                 2.1358
 Frc consts  --      0.7667                 0.9976                 1.1197
 IR Inten    --      9.3031                 4.3264                38.6571

                     46                     47                     48
                      A                      A                      A
 Frequencies --    958.4215               960.0866               982.2274
 Red. masses --      1.5224                 1.5849                 1.6015
 Frc consts  --      0.8239                 0.8607                 0.9103
 IR Inten    --      3.2908                 9.9718                 7.0687

                     49                     50                     51
                      A                      A                      A
 Frequencies --    991.5006              1000.8902              1012.8465
 Red. masses --      1.1828                 1.5944                 1.8777
 Frc consts  --      0.6851                 0.9411                 1.1349
 IR Inten    --      5.4100                11.5647                16.5122

                     52                     53                     54
                      A                      A                      A
 Frequencies --   1015.0560              1030.8229              1073.0627
 Red. masses --      3.1057                 1.7980                 2.0715
 Frc consts  --      1.8853                 1.1256                 1.4053
 IR Inten    --      9.5929                21.8621                36.3542

                     55                     56                     57
                      A                      A                      A
 Frequencies --   1090.6739              1100.1162              1117.6396
 Red. masses --      2.1083                 1.6552                 2.5110
 Frc consts  --      1.4777                 1.1803                 1.8480
 IR Inten    --     17.2830                58.7098                 6.3327

                     58                     59                     60
                      A                      A                      A
 Frequencies --   1123.3777              1133.5716              1142.1740
 Red. masses --      2.3574                 1.9582                 1.7549
 Frc consts  --      1.7528                 1.4825                 1.3489
 IR Inten    --     25.9790                 3.0462                 5.7357

                     61                     62                     63
                      A                      A                      A
 Frequencies --   1152.5262              1190.7500              1199.4599
 Red. masses --      1.9087                 2.0562                 1.2627
 Frc consts  --      1.4938                 1.7178                 1.0703
 IR Inten    --      5.9167                21.8807                31.4596

                     64                     65                     66
                      A                      A                      A
 Frequencies --   1218.3498              1248.0058              1270.1249
 Red. masses --      1.1230                 1.5649                 1.6944
 Frc consts  --      0.9821                 1.4361                 1.6105
 IR Inten    --      3.7957                36.3957                58.8244

                     67                     68                     69
                      A                      A                      A
 Frequencies --   1283.2707              1297.6834              1329.6624
 Red. masses --      1.3705                 1.3052                 1.5932
 Frc consts  --      1.3298                 1.2950                 1.6596
 IR Inten    --     13.6523                 9.3133                 4.3654

                     70                     71                     72
                      A                      A                      A
 Frequencies --   1336.5410              1342.0784              1363.4906
 Red. masses --      1.3229                 1.2806                 2.1032
 Frc consts  --      1.3924                 1.3590                 2.3038
 IR Inten    --      1.1830                11.9110                 2.2622

                     73                     74                     75
                      A                      A                      A
 Frequencies --   1385.1979              1387.6497              1390.5736
 Red. masses --      1.5030                 1.4309                 1.2332
 Frc consts  --      1.6992                 1.6234                 1.4050
 IR Inten    --     21.7926                12.0182                14.1638

                     76                     77                     78
                      A                      A                      A
 Frequencies --   1395.7441              1405.3652              1409.2276
 Red. masses --      1.3337                 1.4712                 1.2184
 Frc consts  --      1.5308                 1.7119                 1.4257
 IR Inten    --      0.6811                18.7732                24.3974

                     79                     80                     81
                      A                      A                      A
 Frequencies --   1420.3448              1422.8321              1439.5979
 Red. masses --      1.4823                 1.3108                 1.2928
 Frc consts  --      1.7619                 1.5635                 1.5786
 IR Inten    --      3.8269                 3.2173                23.3138

                     82                     83                     84
                      A                      A                      A
 Frequencies --   1446.2777              1449.3095              1477.0346
 Red. masses --      1.2678                 1.4927                 2.8403
 Frc consts  --      1.5625                 1.8473                 3.6509
 IR Inten    --      7.5725                32.5600                14.6768

                     85                     86                     87
                      A                      A                      A
 Frequencies --   1498.6003              1501.3051              1509.8342
 Red. masses --      1.0545                 1.0915                 1.0900
 Frc consts  --      1.3952                 1.4494                 1.4640
 IR Inten    --      9.0112                 7.4117                14.3461

                     88                     89                     90
                      A                      A                      A
 Frequencies --   1519.2861              1520.3027              1520.8744
 Red. masses --      1.0636                 1.0926                 1.0636
 Frc consts  --      1.4465                 1.4879                 1.4495
 IR Inten    --     40.3876                 3.1582                 1.8671

                     91                     92                     93
                      A                      A                      A
 Frequencies --   1529.8397              1534.7365              1536.1699
 Red. masses --      1.0813                 1.1758                 1.6741
 Frc consts  --      1.4910                 1.6317                 2.3276
 IR Inten    --     19.7613                28.1003                62.7146

                     94                     95                     96
                      A                      A                      A
 Frequencies --   1539.8654              1547.7875              1551.5599
 Red. masses --      1.1617                 1.0685                 1.0922
 Frc consts  --      1.6229                 1.5082                 1.5492
 IR Inten    --     19.1609                 0.1628                 4.1236

                     97                     98                     99
                      A                      A                      A
 Frequencies --   1619.8240              1652.2894              2972.9041
 Red. masses --      5.1692                 5.5656                 1.0736
 Frc consts  --      7.9912                 8.9522                 5.5904
 IR Inten    --     40.9389               240.2840                56.9620

                    100                    101                    102
                      A                      A                      A
 Frequencies --   3022.4315              3029.3996              3041.6260
 Red. masses --      1.0702                 1.0633                 1.0649
 Frc consts  --      5.7600                 5.7495                 5.8047
 IR Inten    --     40.5857                21.1580                31.3920

                    103                    104                    105
                      A                      A                      A
 Frequencies --   3045.8802              3048.2699              3052.5450
 Red. masses --      1.0405                 1.0623                 1.0635
 Frc consts  --      5.6874                 5.8156                 5.8387
 IR Inten    --     24.4938                26.5623                16.7969

                    106                    107                    108
                      A                      A                      A
 Frequencies --   3064.2559              3065.7620              3066.9352
 Red. masses --      1.0748                 1.0301                 1.0968
 Frc consts  --      5.9462                 5.7043                 6.0781
 IR Inten    --     55.0327                22.2224                35.6905

                    109                    110                    111
                      A                      A                      A
 Frequencies --   3078.6814              3081.3397              3093.8320
 Red. masses --      1.0912                 1.0975                 1.0956
 Frc consts  --      6.0937                 6.1395                 6.1786
 IR Inten    --     12.1487                46.3128                44.2506

                    112                    113                    114
                      A                      A                      A
 Frequencies --   3098.5578              3105.7688              3110.5273
 Red. masses --      1.0969                 1.0975                 1.1002
 Frc consts  --      6.2051                 6.2370                 6.2720
 IR Inten    --     72.1044                51.0568                39.0343

                    115                    116                    117
                      A                      A                      A
 Frequencies --   3129.9357              3149.1958              3151.6002
 Red. masses --      1.1007                 1.1080                 1.0918
 Frc consts  --      6.3533                 6.4742                 6.3892
 IR Inten    --     32.0342                 9.5989                19.3889

                    118                    119                    120
                      A                      A                      A
 Frequencies --   3160.4384              3185.3951              3199.0392
 Red. masses --      1.1042                 1.0881                 1.0891
 Frc consts  --      6.4984                 6.5048                 6.5669
 IR Inten    --      5.6645                17.6694                 4.3838

                    121                    122                    123
                      A                      A                      A
 Frequencies --   3224.3763              3233.4304              3756.1630
 Red. masses --      1.0906                 1.0918                 1.0661
 Frc consts  --      6.6805                 6.7252                 8.8625
 IR Inten    --     13.2488                 8.8387                 4.9593

 - Thermochemistry -
 -------------------
 Temperature   298.150 Kelvin.  Pressure   1.00000 Atm.
 Atom     1 has atomic number  6 and mass  12.00000

 Molecular mass:   267.16569 amu.
 Principal axes and moments of inertia in atomic units:
                           1         2         3
     Eigenvalues --  3960.491758113.59171**********
           X            0.99991  -0.00881   0.00961
           Y            0.00883   0.99996  -0.00224
           Z           -0.00959   0.00232   0.99995
 This molecule is an asymmetric top.
 Rotational symmetry number  1.
 Warning -- assumption of classical behavior for rotation
           may cause significant error
 Rotational temperatures (Kelvin)      0.02187     0.01068     0.00856
 Rotational constants (GHZ):           0.45569     0.22243     0.17842
 Zero-point vibrational energy    1001522.9 (Joules/Mol)
                                  239.36973 (Kcal/Mol)
 Warning -- explicit consideration of  30 degrees of freedom as
           vibrations may cause significant error
 Vibrational temperatures:     27.93    41.29    51.89    61.67    83.19
          (Kelvin)             87.21   126.44   169.20   197.42   218.45
                              244.33   260.82   284.79   337.76   343.05
                              353.22   371.18   392.74   424.29   484.89
                              498.43   555.34   578.99   610.74   625.54
                              644.28   689.15   727.09   787.10   870.56
                              906.71   990.60  1018.18  1038.72  1065.11
                             1086.04  1115.76  1159.85  1169.00  1188.05
                             1228.83  1248.21  1285.56  1333.48  1357.15
                             1378.95  1381.35  1413.21  1426.55  1440.06
                             1457.26  1460.44  1483.12  1543.90  1569.24
                             1582.82  1608.03  1616.29  1630.96  1643.33
                             1658.23  1713.22  1725.76  1752.93  1795.60
                             1827.43  1846.34  1867.08  1913.09  1922.98
                             1930.95  1961.76  1992.99  1996.52  2000.73
                             2008.16  2022.01  2027.56  2043.56  2047.14
                             2071.26  2080.87  2085.23  2125.12  2156.15
                             2160.04  2172.31  2185.91  2187.38  2188.20
                             2201.10  2208.14  2210.21  2215.52  2226.92
                             2232.35  2330.57  2377.28  4277.35  4348.60
                             4358.63  4376.22  4382.34  4385.78  4391.93
                             4408.78  4410.95  4412.64  4429.54  4433.36
                             4451.33  4458.13  4468.51  4475.36  4503.28
                             4530.99  4534.45  4547.17  4583.07  4602.70
                             4639.16  4652.19  5404.28

 Zero-point correction=                           0.381460 (Hartree/Particle)
 Thermal correction to Energy=                    0.401838
 Thermal correction to Enthalpy=                  0.402782
 Thermal correction to Gibbs Free Energy=         0.330175
 Sum of electronic and zero-point Energies=          -1114.502795
 Sum of electronic and thermal Energies=             -1114.482417
 Sum of electronic and thermal Enthalpies=           -1114.481473
 Sum of electronic and thermal Free Energies=        -1114.554079

                     E (Thermal)             CV                S
                      KCal/Mol        Cal/Mol-Kelvin    Cal/Mol-Kelvin
 Total                  252.157             75.758            152.813
 Electronic               0.000              0.000              0.000
 Translational            0.889              2.981             42.647
 Rotational               0.889              2.981             34.141
 Vibrational            250.380             69.796             76.025
 Vibration     1          0.593              1.986              6.693
 Vibration     2          0.593              1.984              5.917
 Vibration     3          0.594              1.982              5.464
 Vibration     4          0.595              1.980              5.122
 Vibration     5          0.596              1.974              4.530
 Vibration     6          0.597              1.973              4.437
 Vibration     7          0.601              1.958              3.707
 Vibration     8          0.608              1.935              3.139
 Vibration     9          0.614              1.916              2.842
 Vibration    10          0.619              1.901              2.649
 Vibration    11          0.625              1.880              2.438
 Vibration    12          0.630              1.865              2.315
 Vibration    13          0.637              1.843              2.152
 Vibration    14          0.655              1.788              1.842
 Vibration    15          0.656              1.782              1.815
 Vibration    16          0.660              1.770              1.763
 Vibration    17          0.667              1.749              1.675
 Vibration    18          0.676              1.723              1.577
 Vibration    19          0.689              1.683              1.446
 Vibration    20          0.718              1.602              1.226
 Vibration    21          0.724              1.583              1.182
 Vibration    22          0.755              1.500              1.016
 Vibration    23          0.768              1.465              0.954
 Vibration    24          0.786              1.417              0.877
 Vibration    25          0.795              1.394              0.843
 Vibration    26          0.807              1.366              0.802
 Vibration    27          0.835              1.297              0.713
 Vibration    28          0.861              1.238              0.645
 Vibration    29          0.902              1.146              0.550
 Vibration    30          0.964              1.021              0.441

 Optimization completed.
    -- Stationary point found.
 Normal termination of Gaussian 16 at Fri Dec 11 22:23:15 2020.

 ----------------------------------------------------------------------
 # B3LYP/6-311++G(d,p) empiricaldispersion=gd3bj scf=xqc pop=npa geom=c
 heck
 ----------------------------------------------------------------------

 ---------------------------------------
 CID_138913060_JID_8610_Energie_neutraal
 ---------------------------------------
 Structure from the checkpoint file:  "JID_8610.chk"
 Charge =  0 Multiplicity = 1

 SCF Done:  E(RB3LYP) =  -1115.11631649     A.U. after   15 cycles
 Normal termination of Gaussian 16 at Fri Dec 11 22:35:13 2020.

 ----------------------------------------------------------------------
 # B3LYP/6-311++G(d,p) empiricaldispersion=gd3bj scf=xqc pop=npa geom=c
 heck
 ----------------------------------------------------------------------

 -------------------------------------
 CID_138913060_JID_8610_Energie_kation
 -------------------------------------
 Structure from the checkpoint file:  "JID_8610.chk"
 Charge =  1 Multiplicity = 2

 SCF Done:  E(UB3LYP) =  -1114.85577821     A.U. after   25 cycles
 Normal termination of Gaussian 16 at Fri Dec 11 23:03:14 2020.
 Gaussian 16:  ES64L-G16RevA.03 25-Dec-2016

 ----------------------------------------------------------------------
 # B3LYP/6-311++G(d,p) empiricaldispersion=gd3bj scf=xqc pop=npa geom=c
 heck
 ----------------------------------------------------------------------

 ------------------------------------
 CID_138913060_JID_8610_Energie_anion
 ------------------------------------
 Structure from the checkpoint file:  "JID_8610.chk"
 Charge = -1 Multiplicity = 2

                         Standard orientation:
 ---------------------------------------------------------------------
 Center     Atomic      Atomic             Coordinates (Angstroms)
 Number     Number       Type             X           Y           Z
 ---------------------------------------------------------------------
      1          6           0        0.989322    3.500199   -0.002865
      2          6           0       -0.428205    3.333279    0.552490
      3          6           0       -1.462422    2.885566   -0.489472
      4          6           0       -1.202048    1.499306   -1.104183
      5          7           0       -1.145097    0.401224   -0.134032
      6          6           0       -2.327992    0.217862    0.695753
      7          6           0       -3.606221    0.007764   -0.127434
      8          6           0       -3.512481   -1.127373   -1.156527
      9          6           0       -3.123199   -2.480686   -0.557979
     10          8           0       -4.033109   -2.931702    0.444174
     11          6           0        0.102463    0.012717    0.380776
     12          6           0        1.181210   -0.204716   -0.494456
     13          6           0        2.435950   -0.596686   -0.020387
     14          6           0        2.632022   -0.813875    1.349561
     15          6           0        1.556929   -0.627730    2.216047
     16          6           0        0.310390   -0.212350    1.755895
     17         16           0        3.713187   -0.790879   -1.250147
     18          6           0        5.059794   -1.590794   -0.320879
     19          1           0        1.411121    2.545760   -0.332773
     20          1           0        1.661694    3.904975    0.761380
     21          1           0        0.999940    4.189974   -0.856325
     22          1           0       -0.408993    2.614720    1.381195
     23          1           0       -0.763291    4.287051    0.980826
     24          1           0       -2.462536    2.901644   -0.037490
     25          1           0       -1.492658    3.611448   -1.314660
     26          1           0       -1.981785    1.283465   -1.843765
     27          1           0       -0.259371    1.516002   -1.651273
     28          1           0       -2.153422   -0.673008    1.306132
     29          1           0       -2.483067    1.050680    1.402942
     30          1           0       -4.421356   -0.203587    0.577120
     31          1           0       -3.890308    0.937316   -0.634038
     32          1           0       -4.483095   -1.229214   -1.656995
     33          1           0       -2.773176   -0.872620   -1.925673
     34          1           0       -3.145969   -3.247102   -1.338851
     35          1           0       -2.093894   -2.444543   -0.171454
     36          1           0       -3.897712   -2.383160    1.230973
     37          1           0        1.029756   -0.101016   -1.564011
     38          1           0        3.595019   -1.117382    1.740958
     39          1           0        1.700007   -0.788257    3.281512
     40          1           0       -0.485701   -0.032843    2.468409
     41          1           0        5.477369   -0.926323    0.440052
     42          1           0        4.721457   -2.522372    0.140214
     43          1           0        5.836467   -1.817383   -1.055281
 ---------------------------------------------------------------------

 SCF Done:  E(UB3LYP) =  -1115.10662036     A.U. after   32 cycles

 The electronic state is 2-A.
 Alpha  occ. eigenvalues --  -88.76252 -19.03199 -14.23387 -10.12589 -10.12533
 Alpha  occ. eigenvalues --  -10.11940 -10.11355 -10.11025 -10.10929 -10.08671
 Alpha  occ. eigenvalues --  -10.08150 -10.08145 -10.07971 -10.07964 -10.07887
 Alpha  occ. eigenvalues --  -10.07693 -10.07589 -10.06911  -7.84857  -5.81262
 Alpha  occ. eigenvalues --   -5.80862  -5.80245  -0.93197  -0.85854  -0.77024
 Alpha  occ. eigenvalues --   -0.71385  -0.71133  -0.69780  -0.66023  -0.65213
 Alpha  occ. eigenvalues --   -0.63909  -0.61038  -0.57760  -0.56351  -0.54596
 Alpha  occ. eigenvalues --   -0.51281  -0.49860  -0.48732  -0.45869  -0.43798
 Alpha  occ. eigenvalues --   -0.42378  -0.40488  -0.40003  -0.38532  -0.37465
 Alpha  occ. eigenvalues --   -0.36738  -0.36171  -0.35678  -0.34662  -0.34041
 Alpha  occ. eigenvalues --   -0.33820  -0.33251  -0.31898  -0.31029  -0.30673
 Alpha  occ. eigenvalues --   -0.30314  -0.29868  -0.28749  -0.27573  -0.27500
 Alpha  occ. eigenvalues --   -0.26667  -0.25852  -0.25736  -0.24675  -0.24572
 Alpha  occ. eigenvalues --   -0.24118  -0.23689  -0.23202  -0.20526  -0.18802
 Alpha  occ. eigenvalues --   -0.18445  -0.12563  -0.11145   0.03746
 Alpha virt. eigenvalues --    0.04993   0.06076   0.06742   0.07007   0.07209
 Alpha virt. eigenvalues --    0.07843   0.08261   0.08383   0.08763   0.08961
 Alpha virt. eigenvalues --    0.09646   0.09869   0.10161   0.10580   0.10740

  Beta  occ. eigenvalues --  -88.76246 -19.03168 -14.23388 -10.12586 -10.12526
  Beta  occ. eigenvalues --  -10.11940 -10.11346 -10.10973 -10.10900 -10.08663
  Beta  occ. eigenvalues --  -10.08150 -10.08119 -10.07960 -10.07953 -10.07873
  Beta  occ. eigenvalues --  -10.07682 -10.07580 -10.06903  -7.84852  -5.81253
  Beta  occ. eigenvalues --   -5.80851  -5.80242  -0.93128  -0.85844  -0.77008
  Beta  occ. eigenvalues --   -0.71353  -0.71103  -0.69751  -0.66002  -0.65182
  Beta  occ. eigenvalues --   -0.63872  -0.61005  -0.57713  -0.56301  -0.54559
  Beta  occ. eigenvalues --   -0.51258  -0.49821  -0.48692  -0.45817  -0.43773
  Beta  occ. eigenvalues --   -0.42333  -0.40457  -0.39975  -0.38511  -0.37434
  Beta  occ. eigenvalues --   -0.36704  -0.36141  -0.35653  -0.34612  -0.34015
  Beta  occ. eigenvalues --   -0.33790  -0.33226  -0.31867  -0.31011  -0.30638
  Beta  occ. eigenvalues --   -0.30294  -0.29847  -0.28731  -0.27540  -0.27482
  Beta  occ. eigenvalues --   -0.26633  -0.25817  -0.25700  -0.24656  -0.24544
  Beta  occ. eigenvalues --   -0.24091  -0.23663  -0.23162  -0.20503  -0.18772
  Beta  occ. eigenvalues --   -0.18424  -0.12546  -0.11128
  Beta virt. eigenvalues --    0.05721   0.05952   0.06768   0.06892   0.07165
  Beta virt. eigenvalues --    0.07535   0.08141   0.08364   0.08455   0.09033
  Beta virt. eigenvalues --    0.09090   0.09952   0.10193   0.10322   0.10775

 Mulliken charges and spin densities:
               1          2
     1  C   -0.102212  -0.561257
     2  C   -0.375299   0.269734
     3  C    0.104576  -0.533619
     4  C   -0.081535  -0.059738
     5  N    0.495926   0.020186
     6  C    0.140239  -0.107596
     7  C    0.070710  -0.945034
     8  C   -0.253206   0.304913
     9  C    0.157544  -0.675683
    10  O   -0.241126   0.018779
    11  C    0.288472  -0.473102
    12  C   -1.097479   0.011405
    13  C   -0.030734   0.847563
    14  C    0.376360   0.137775
    15  C    0.146585  -0.641034
    16  C    0.423488  -0.570956
    17  S   -0.324902  -0.333356
    18  C    0.271254  -0.741643
    19  H    0.224671  -0.052471
    20  H   -0.022215   0.160463
    21  H    0.102963   0.015202
    22  H    0.258455  -0.096129
    23  H   -0.196766   0.376272
    24  H    0.049146   0.103193
    25  H   -0.092374   0.244935
    26  H    0.055647   0.117731
    27  H    0.104527   0.012311
    28  H    0.061809   0.060174
    29  H   -0.638647   0.816256
    30  H   -0.234623   0.445047
    31  H   -0.080364   0.202755
    32  H    0.082073   0.091301
    33  H    0.024367   0.054879
    34  H    0.169362  -0.003379
    35  H    0.146338   0.024036
    36  H    0.013867   0.236523
    37  H    0.150952  -0.000414
    38  H    0.078289   0.089097
    39  H   -0.352266   0.543340
    40  H   -0.168982   0.341522
    41  H   -0.216792   0.399902
    42  H   -0.107752   0.289290
    43  H   -0.380346   0.560825
 Sum of Mulliken charges =  -1.00000   1.00000

 Dipole moment (field-independent basis, Debye):
    X=             -0.1421    Y=              1.5943    Z=             -4.1141  Tot=              4.4145
 Quadrupole moment (field-independent basis, Debye-Ang):
   XX=           -227.5524   YY=           -176.0507   ZZ=           -157.2357
   XY=              3.6573   XZ=             10.2415   YZ=              0.7243

 Summary of Natural Population Analysis:

                                       Natural Population
                Natural  -----------------------------------------------
    Atom  No    Charge         Core      Valence    Rydberg      Total
 -----------------------------------------------------------------------
      C    1   -0.28762      0.99966     2.28363    0.00433     3.28762
      C    2   -0.19488      0.99964     2.18770    0.00755     3.19488
      C    3   -0.19713      0.99962     2.18903    0.00848     3.19713
      C    4   -0.08127      0.99960     2.07111    0.01056     3.08127
      N    5   -0.27051      0.99966     2.75797    0.01288     3.77051
      C    6   -0.08978      0.99961     2.07652    0.01366     3.08978
      C    7   -0.20024      0.99962     2.19046    0.01017     3.20024
      C    8   -0.20359      0.99962     2.19566    0.00831     3.20359
      C    9   -0.01330      0.99960     2.00089    0.01281     3.01330
      O   10   -0.37057      0.99990     3.36432    0.00635     4.37057
      C   11    0.10375      0.99947     1.88456    0.01223     2.89625
      C   12   -0.13536      0.99946     2.12646    0.00943     3.13536
      C   13   -0.07825      0.99942     2.06665    0.01219     3.07825
      C   14   -0.13836      0.99949     2.12777    0.01111     3.13836
      C   15   -0.08189      0.99957     2.07256    0.00977     3.08189
      C   16   -0.13658      0.99951     2.12743    0.00964     3.13658
      S   17    0.12641      4.99954     2.85406    0.01999     7.87359
      C   18   -0.35334      0.99962     2.34735    0.00637     3.35334
      H   19    0.10187      0.00000     0.39684    0.00129     0.39813
      H   20    0.09946      0.00000     0.39974    0.00081     0.40054
      H   21    0.09164      0.00000     0.40744    0.00092     0.40836
      H   22    0.09956      0.00000     0.39870    0.00174     0.40044
      H   23    0.09555      0.00000     0.40348    0.00097     0.40445
      H   24    0.09993      0.00000     0.39876    0.00131     0.40007
      H   25    0.09553      0.00000     0.40347    0.00100     0.40447
      H   26    0.09442      0.00000     0.40450    0.00107     0.40558
      H   27    0.09921      0.00000     0.39960    0.00119     0.40079
      H   28    0.09929      0.00000     0.39858    0.00213     0.40071
      H   29    0.09398      0.00000     0.40402    0.00200     0.40602
      H   30    0.10383      0.00000     0.39467    0.00151     0.39617
      H   31    0.09982      0.00000     0.39898    0.00119     0.40018
      H   32    0.09779      0.00000     0.40125    0.00096     0.40221
      H   33    0.09922      0.00000     0.39960    0.00118     0.40078
      H   34    0.08428      0.00000     0.41474    0.00098     0.41572
      H   35    0.08121      0.00000     0.41749    0.00130     0.41879
      H   36    0.22966      0.00000     0.26694    0.00340     0.27034
      H   37    0.10276      0.00000     0.39556    0.00169     0.39724
      H   38    0.10417      0.00000     0.39445    0.00137     0.39583
      H   39    0.10126      0.00000     0.39780    0.00094     0.39874
      H   40    0.10642      0.00000     0.39174    0.00184     0.39358
      H   41    0.10452      0.00000     0.39355    0.00194     0.39548
      H   42    0.10605      0.00000     0.39231    0.00164     0.39395
      H   43    0.11108      0.00000     0.38766    0.00126     0.38892
 =======================================================================
   * Total *   -0.00000     21.99258    50.78598    0.22145    73.00000

 Normal termination of Gaussian 16 at Fri Dec 11 23:38:55 2020.
