 Gaussian 16, Revision A.03,

 -----------------------------------------------------------
 # opt freq B3LYP/6-31G(d) empiricaldispersion=gd3bj scf=xqc
 -----------------------------------------------------------

 ------------------------------
 CID_69201606_JID_7656_neutraal
 ------------------------------
 Symbolic Z-matrix:
 Charge =  0 Multiplicity = 1

 SCF Done:  E(RB3LYP) =  -822.001201985     A.U. after   15 cycles
 SCF Done:  E(RB3LYP) =  -822.000759125     A.U. after   15 cycles
 SCF Done:  E(RB3LYP) =  -822.004121113     A.U. after   13 cycles
 SCF Done:  E(RB3LYP) =  -822.005047586     A.U. after   13 cycles
 SCF Done:  E(RB3LYP) =  -822.006078395     A.U. after   12 cycles
 SCF Done:  E(RB3LYP) =  -822.006352182     A.U. after   13 cycles
 SCF Done:  E(RB3LYP) =  -822.006452481     A.U. after   13 cycles
 SCF Done:  E(RB3LYP) =  -822.006625784     A.U. after   12 cycles
 SCF Done:  E(RB3LYP) =  -822.006742789     A.U. after   12 cycles
 SCF Done:  E(RB3LYP) =  -822.006813074     A.U. after   13 cycles
 SCF Done:  E(RB3LYP) =  -822.006844491     A.U. after   10 cycles
 SCF Done:  E(RB3LYP) =  -822.006856968     A.U. after   10 cycles
 SCF Done:  E(RB3LYP) =  -822.006858683     A.U. after    9 cycles
 SCF Done:  E(RB3LYP) =  -822.006859868     A.U. after   10 cycles
 SCF Done:  E(RB3LYP) =  -822.006860095     A.U. after    8 cycles
 SCF Done:  E(RB3LYP) =  -822.006860128     A.U. after    7 cycles
 Optimization completed.
    -- Stationary point found.
 Normal termination of Gaussian 16 at Fri Dec 11 13:09:05 2020.

 --------------------------------------------------------------------
 #N Geom=AllCheck Guess=TCheck SCRF=Check GenChk RB3LYP/6-31G(d) Freq
 --------------------------------------------------------------------

 Structure from the checkpoint file:  "JID_7656.chk"
 ------------------------------
 CID_69201606_JID_7656_neutraal
 ------------------------------
 Charge =  0 Multiplicity = 1

 SCF Done:  E(RB3LYP) =  -822.006860128     A.U. after    1 cycles

  Exact polarizability: 188.628   1.405 158.632 -11.142   8.254  88.829
 Approx polarizability: 267.959   9.807 244.584 -26.102  17.497 148.062

                      1                      2                      3
                      A                      A                      A
 Frequencies --     26.1127                39.1667                54.1660
 Red. masses --      4.1803                 5.0291                 5.1714
 Frc consts  --      0.0017                 0.0045                 0.0089
 IR Inten    --      1.1037                 0.3472                 9.7685

                      4                      5                      6
                      A                      A                      A
 Frequencies --     74.8199               107.1538               112.3204
 Red. masses --      3.7223                 2.7614                 2.7616
 Frc consts  --      0.0123                 0.0187                 0.0205
 IR Inten    --      4.1655                 0.4670                 0.1234

                      7                      8                      9
                      A                      A                      A
 Frequencies --    125.2687               150.1736               154.2540
 Red. masses --      2.8419                 3.0586                 3.3287
 Frc consts  --      0.0263                 0.0406                 0.0467
 IR Inten    --      1.7209                 2.7417                 1.1769

                     10                     11                     12
                      A                      A                      A
 Frequencies --    178.7702               216.4532               242.5255
 Red. masses --      4.6112                 1.8587                 4.6294
 Frc consts  --      0.0868                 0.0513                 0.1604
 IR Inten    --      2.8760                 3.1858                 8.1303

                     13                     14                     15
                      A                      A                      A
 Frequencies --    264.4348               272.3419               291.9195
 Red. masses --      1.2270                 1.9422                 4.5551
 Frc consts  --      0.0506                 0.0849                 0.2287
 IR Inten    --      0.6649                 1.8901                 1.0662

                     16                     17                     18
                      A                      A                      A
 Frequencies --    320.9931               333.2572               351.4649
 Red. masses --      4.7304                 4.9092                 3.6623
 Frc consts  --      0.2872                 0.3212                 0.2665
 IR Inten    --     10.8644                 3.4453                 1.1463

                     19                     20                     21
                      A                      A                      A
 Frequencies --    378.4314               392.3731               459.0036
 Red. masses --      2.8508                 6.0690                 3.2847
 Frc consts  --      0.2405                 0.5505                 0.4077
 IR Inten    --     30.0731                 3.6448                 8.3542

                     22                     23                     24
                      A                      A                      A
 Frequencies --    479.5471               511.8186               525.8804
 Red. masses --      1.6271                 4.9464                 4.4983
 Frc consts  --      0.2205                 0.7634                 0.7330
 IR Inten    --    211.2104                 5.9625                28.7058

                     25                     26                     27
                      A                      A                      A
 Frequencies --    567.3412               589.9337               594.0579
 Red. masses --      3.8654                 4.3526                 1.5771
 Frc consts  --      0.7330                 0.8925                 0.3279
 IR Inten    --      3.9160                 2.4786                 9.3951

                     28                     29                     30
                      A                      A                      A
 Frequencies --    644.5040               673.6506               715.7578
 Red. masses --      3.8438                 3.4557                 4.2661
 Frc consts  --      0.9407                 0.9240                 1.2877
 IR Inten    --     33.9488                18.1870                 6.0174

                     31                     32                     33
                      A                      A                      A
 Frequencies --    737.6135               776.2651               798.3998
 Red. masses --      4.3570                 1.7050                 2.6307
 Frc consts  --      1.3967                 0.6053                 0.9880
 IR Inten    --     14.3975                37.0193                 5.1347

                     34                     35                     36
                      A                      A                      A
 Frequencies --    824.9515               831.0555               848.4083
 Red. masses --      1.3882                 4.2136                 1.1582
 Frc consts  --      0.5566                 1.7146                 0.4912
 IR Inten    --      3.4041                 1.2519                 0.0313

                     37                     38                     39
                      A                      A                      A
 Frequencies --    866.5730               898.1552               907.6365
 Red. masses --      3.5470                 1.4141                 2.6535
 Frc consts  --      1.5694                 0.6721                 1.2879
 IR Inten    --      4.3971                 0.7283                16.5882

                     40                     41                     42
                      A                      A                      A
 Frequencies --    955.8675               962.7195              1047.3478
 Red. masses --      1.4550                 2.3367                 3.8170
 Frc consts  --      0.7833                 1.2760                 2.4669
 IR Inten    --      9.3029                42.7036                53.2349

                     43                     44                     45
                      A                      A                      A
 Frequencies --   1062.7734              1107.9825              1124.2835
 Red. masses --      4.1447                 2.8262                 1.8996
 Frc consts  --      2.7582                 2.0442                 1.4147
 IR Inten    --     51.0037                38.4025                15.0667

                     46                     47                     48
                      A                      A                      A
 Frequencies --   1125.7200              1138.5529              1159.4686
 Red. masses --      2.0835                 1.8660                 2.3711
 Frc consts  --      1.5556                 1.4252                 1.8781
 IR Inten    --      2.5896                48.3472                33.8481

                     49                     50                     51
                      A                      A                      A
 Frequencies --   1196.3369              1198.3691              1214.8595
 Red. masses --      1.5086                 1.5458                 1.2814
 Frc consts  --      1.2721                 1.3079                 1.1143
 IR Inten    --      3.3577                 3.3583                 8.1382

                     52                     53                     54
                      A                      A                      A
 Frequencies --   1269.2791              1288.7699              1311.2510
 Red. masses --      3.2389                 3.7488                 2.4699
 Frc consts  --      3.0744                 3.6686                 2.5020
 IR Inten    --     78.0008               357.9841               281.4042

                     55                     56                     57
                      A                      A                      A
 Frequencies --   1317.2391              1334.8113              1366.2324
 Red. masses --      1.1176                 1.1572                 5.1099
 Frc consts  --      1.1425                 1.2148                 5.6197
 IR Inten    --      3.5139                34.3531                44.8660

                     58                     59                     60
                      A                      A                      A
 Frequencies --   1399.0240              1419.4680              1422.9343
 Red. masses --      3.9886                 1.2902                 1.2650
 Frc consts  --      4.5997                 1.5316                 1.5091
 IR Inten    --     22.2365                 5.9365                 3.1320

                     61                     62                     63
                      A                      A                      A
 Frequencies --   1445.9937              1452.3658              1505.2894
 Red. masses --      1.3441                 1.3784                 2.5771
 Frc consts  --      1.6558                 1.7131                 3.4405
 IR Inten    --     57.3283                25.4929                27.0126

                     64                     65                     66
                      A                      A                      A
 Frequencies --   1514.9527              1520.1883              1522.6607
 Red. masses --      1.0405                 1.1116                 2.0365
 Frc consts  --      1.4070                 1.5135                 2.7819
 IR Inten    --      5.2607                20.7046                87.5788

                     67                     68                     69
                      A                      A                      A
 Frequencies --   1531.4044              1531.8795              1547.0337
 Red. masses --      1.0964                 1.1388                 1.1525
 Frc consts  --      1.5150                 1.5745                 1.6252
 IR Inten    --     15.0873                19.5265                36.3784

                     70                     71                     72
                      A                      A                      A
 Frequencies --   1555.2381              1628.6075              1638.1212
 Red. masses --      1.1402                 1.3300                 5.6078
 Frc consts  --      1.6249                 2.0784                 8.8662
 IR Inten    --      7.9428               201.8040                28.5777

                     73                     74                     75
                      A                      A                      A
 Frequencies --   1651.8099              1746.9062              1807.3203
 Red. masses --      6.3539                10.9052                 9.6236
 Frc consts  --     10.2144                19.6076                18.5208
 IR Inten    --     23.2351               223.9446               242.0536

                     76                     77                     78
                      A                      A                      A
 Frequencies --   3018.2241              3056.5036              3064.2693
 Red. masses --      1.0554                 1.1089                 1.0351
 Frc consts  --      5.6644                 6.1036                 5.7267
 IR Inten    --     34.1297                33.4661                13.4119

                     79                     80                     81
                      A                      A                      A
 Frequencies --   3064.6103              3087.6916              3126.9088
 Red. masses --      1.0425                 1.0575                 1.1039
 Frc consts  --      5.7688                 5.9403                 6.3594
 IR Inten    --     24.5436                49.7448                17.6697

                     82                     83                     84
                      A                      A                      A
 Frequencies --   3136.4957              3137.1843              3142.0097
 Red. masses --      1.1004                 1.1019                 1.1041
 Frc consts  --      6.3779                 6.3895                 6.4223
 IR Inten    --     66.6133                 2.2193                24.9715

                     85                     86                     87
                      A                      A                      A
 Frequencies --   3181.7353              3202.0537              3227.0884
 Red. masses --      1.1023                 1.0876                 1.0910
 Frc consts  --      6.5744                 6.5704                 6.6939
 IR Inten    --      3.7250                 9.2271                 5.4109

                     88                     89                     90
                      A                      A                      A
 Frequencies --   3232.2065              3577.4135              3700.9324
 Red. masses --      1.0939                 1.0445                 1.1042
 Frc consts  --      6.7333                 7.8759                 8.9111
 IR Inten    --     12.8060                48.9256                48.9922

 - Thermochemistry -
 -------------------
 Temperature   298.150 Kelvin.  Pressure   1.00000 Atm.
 Atom     1 has atomic number  6 and mass  12.00000

 Molecular mass:   237.10011 amu.
 Principal axes and moments of inertia in atomic units:
                           1         2         3
     Eigenvalues --  2295.036655331.638546973.04977
           X            0.99999   0.00454  -0.00164
           Y           -0.00453   0.99998   0.00323
           Z            0.00166  -0.00322   0.99999
 This molecule is an asymmetric top.
 Rotational symmetry number  1.
 Warning -- assumption of classical behavior for rotation
           may cause significant error
 Rotational temperatures (Kelvin)      0.03774     0.01625     0.01242
 Rotational constants (GHZ):           0.78637     0.33850     0.25882
 Zero-point vibrational energy     683757.6 (Joules/Mol)
                                  163.42199 (Kcal/Mol)
 Warning -- explicit consideration of  27 degrees of freedom as
           vibrations may cause significant error
 Vibrational temperatures:     37.57    56.35    77.93   107.65   154.17
          (Kelvin)            161.60   180.23   216.07   221.94   257.21
                              311.43   348.94   380.46   391.84   420.01
                              461.84   479.48   505.68   544.48   564.54
                              660.40   689.96   736.39   756.62   816.28
                              848.78   854.72   927.30   969.23  1029.82
                             1061.26  1116.87  1148.72  1186.92  1195.70
                             1220.67  1246.81  1292.24  1305.89  1375.28
                             1385.14  1506.90  1529.09  1594.14  1617.59
                             1619.66  1638.12  1668.22  1721.26  1724.19
                             1747.91  1826.21  1854.25  1886.60  1895.21
                             1920.50  1965.70  2012.88  2042.30  2047.29
                             2080.46  2089.63  2165.78  2179.68  2187.21
                             2190.77  2203.35  2204.03  2225.84  2237.64
                             2343.20  2356.89  2376.59  2513.41  2600.33
                             4342.55  4397.63  4408.80  4409.29  4442.50
                             4498.92  4512.72  4513.71  4520.65  4577.81
                             4607.04  4643.06  4650.42  5147.10  5324.82

 Zero-point correction=                           0.260430 (Hartree/Particle)
 Thermal correction to Energy=                    0.277656
 Thermal correction to Enthalpy=                  0.278600
 Thermal correction to Gibbs Free Energy=         0.214684
 Sum of electronic and zero-point Energies=           -821.746431
 Sum of electronic and thermal Energies=              -821.729204
 Sum of electronic and thermal Enthalpies=            -821.728260
 Sum of electronic and thermal Free Energies=         -821.792176

                     E (Thermal)             CV                S
                      KCal/Mol        Cal/Mol-Kelvin    Cal/Mol-Kelvin
 Total                  174.232             63.648            134.522
 Electronic               0.000              0.000              0.000
 Translational            0.889              2.981             42.291
 Rotational               0.889              2.981             32.812
 Vibrational            172.454             57.687             59.419
 Vibration     1          0.593              1.985              6.105
 Vibration     2          0.594              1.981              5.301
 Vibration     3          0.596              1.976              4.659
 Vibration     4          0.599              1.966              4.022
 Vibration     5          0.606              1.944              3.320
 Vibration     6          0.607              1.939              3.228
 Vibration     7          0.610              1.928              3.017
 Vibration     8          0.618              1.902              2.670
 Vibration     9          0.620              1.898              2.619
 Vibration    10          0.629              1.868              2.341
 Vibration    11          0.645              1.816              1.989
 Vibration    12          0.659              1.775              1.784
 Vibration    13          0.671              1.738              1.632
 Vibration    14          0.675              1.724              1.581
 Vibration    15          0.687              1.689              1.463
 Vibration    16          0.706              1.633              1.305
 Vibration    17          0.715              1.609              1.244
 Vibration    18          0.728              1.572              1.160
 Vibration    19          0.749              1.516              1.045
 Vibration    20          0.760              1.486              0.991
 Vibration    21          0.817              1.341              0.769
 Vibration    22          0.836              1.295              0.711
 Vibration    23          0.867              1.224              0.629
 Vibration    24          0.881              1.193              0.596
 Vibration    25          0.923              1.102              0.509
 Vibration    26          0.947              1.053              0.467
 Vibration    27          0.952              1.044              0.460

 Optimization completed.
    -- Stationary point found.
 Normal termination of Gaussian 16 at Fri Dec 11 13:21:16 2020.

 ----------------------------------------------------------------------
 # B3LYP/6-311++G(d,p) empiricaldispersion=gd3bj scf=xqc pop=npa geom=c
 heck
 ----------------------------------------------------------------------

 --------------------------------------
 CID_69201606_JID_7656_Energie_neutraal
 --------------------------------------
 Structure from the checkpoint file:  "JID_7656.chk"
 Charge =  0 Multiplicity = 1

 SCF Done:  E(RB3LYP) =  -822.246839655     A.U. after   16 cycles
 Normal termination of Gaussian 16 at Fri Dec 11 13:26:57 2020.

 ----------------------------------------------------------------------
 # B3LYP/6-311++G(d,p) empiricaldispersion=gd3bj scf=xqc pop=npa geom=c
 heck
 ----------------------------------------------------------------------

 ------------------------------------
 CID_69201606_JID_7656_Energie_kation
 ------------------------------------
 Structure from the checkpoint file:  "JID_7656.chk"
 Charge =  1 Multiplicity = 2

 SCF Done:  E(UB3LYP) =  -821.955717904     A.U. after   31 cycles
 Normal termination of Gaussian 16 at Fri Dec 11 13:42:42 2020.
 Gaussian 16:  ES64L-G16RevA.03 25-Dec-2016

 ----------------------------------------------------------------------
 # B3LYP/6-311++G(d,p) empiricaldispersion=gd3bj scf=xqc pop=npa geom=c
 heck
 ----------------------------------------------------------------------

 -----------------------------------
 CID_69201606_JID_7656_Energie_anion
 -----------------------------------
 Structure from the checkpoint file:  "JID_7656.chk"
 Charge = -1 Multiplicity = 2

                         Standard orientation:
 ---------------------------------------------------------------------
 Center     Atomic      Atomic             Coordinates (Angstroms)
 Number     Number       Type             X           Y           Z
 ---------------------------------------------------------------------
      1          6           0       -4.638925   -0.948926   -0.497735
      2          6           0       -3.751439    0.229502   -0.143577
      3          8           0       -2.402580   -0.173618   -0.368070
      4          6           0       -1.399275    0.701591   -0.066624
      5          6           0       -1.602702    2.010758    0.367923
      6          6           0       -0.516668    2.869635    0.579932
      7          6           0        0.773798    2.420773    0.361763
      8          6           0        0.997844    1.086124   -0.017602
      9          6           0       -0.081082    0.217748   -0.243304
     10          8           0        0.201126   -1.006575   -0.756412
     11          6           0       -0.446724   -2.202506   -0.256848
     12          6           0       -0.642222   -2.234183    1.250222
     13          6           0        2.397585    0.662825   -0.255424
     14          8           0        3.247103    1.438262   -0.676357
     15          6           0        2.866418   -0.748485    0.157602
     16          8           0        2.404581   -1.343358    1.119565
     17          7           0        3.894011   -1.190806   -0.613384
     18          1           0       -4.494788   -1.236320   -1.543697
     19          1           0       -5.691582   -0.686106   -0.350112
     20          1           0       -4.402783   -1.810590    0.134253
     21          1           0       -3.986247    1.102657   -0.768257
     22          1           0       -3.881581    0.520309    0.908256
     23          1           0       -2.610151    2.382233    0.512696
     24          1           0       -0.698541    3.890154    0.902028
     25          1           0        1.630863    3.071471    0.494530
     26          1           0       -1.395906   -2.330472   -0.783299
     27          1           0        0.239777   -2.994826   -0.566127
     28          1           0        0.303133   -2.039310    1.758924
     29          1           0       -1.386319   -1.501269    1.572950
     30          1           0       -1.005504   -3.228340    1.536729
     31          1           0        4.371829   -0.511079   -1.189988
     32          1           0        4.408229   -1.999686   -0.292977
 ---------------------------------------------------------------------

 SCF Done:  E(UB3LYP) =  -822.265021112     A.U. after   29 cycles

 The electronic state is 2-A.
 Alpha  occ. eigenvalues --  -19.03647 -18.99986 -18.93264 -18.91129 -14.18268
 Alpha  occ. eigenvalues --  -10.13258 -10.10558 -10.09490 -10.09420 -10.08439
 Alpha  occ. eigenvalues --  -10.08005 -10.04771 -10.03393 -10.03293 -10.03194
 Alpha  occ. eigenvalues --  -10.01951 -10.01888  -0.95638  -0.91403  -0.88505
 Alpha  occ. eigenvalues --   -0.85136  -0.75627  -0.71340  -0.67832  -0.64078
 Alpha  occ. eigenvalues --   -0.60621  -0.59443  -0.54470  -0.51548  -0.50219
 Alpha  occ. eigenvalues --   -0.46611  -0.45662  -0.42328  -0.40135  -0.39153
 Alpha  occ. eigenvalues --   -0.37592  -0.37243  -0.36047  -0.33643  -0.32946
 Alpha  occ. eigenvalues --   -0.31869  -0.30783  -0.30628  -0.30274  -0.29753
 Alpha  occ. eigenvalues --   -0.28407  -0.26999  -0.25582  -0.25483  -0.25000
 Alpha  occ. eigenvalues --   -0.24233  -0.23957  -0.22304  -0.21952  -0.21357
 Alpha  occ. eigenvalues --   -0.19795  -0.18745  -0.15716  -0.14218  -0.12471
 Alpha  occ. eigenvalues --   -0.10422  -0.08244  -0.06598   0.04396
 Alpha virt. eigenvalues --    0.06306   0.08405   0.09101   0.09534   0.09852
 Alpha virt. eigenvalues --    0.10626   0.11496   0.11756   0.12507   0.12970
 Alpha virt. eigenvalues --    0.13595   0.13829   0.14010   0.14407   0.14803

  Beta  occ. eigenvalues --  -19.03648 -18.99956 -18.93090 -18.90386 -14.18233
  Beta  occ. eigenvalues --  -10.13256 -10.10482 -10.09521 -10.09419 -10.08438
  Beta  occ. eigenvalues --  -10.07838 -10.04323 -10.03391 -10.03340 -10.03005
  Beta  occ. eigenvalues --  -10.01893 -10.01815  -0.95629  -0.91301  -0.88125
  Beta  occ. eigenvalues --   -0.83894  -0.75470  -0.71159  -0.67788  -0.63989
  Beta  occ. eigenvalues --   -0.60273  -0.59312  -0.54364  -0.51306  -0.49530
  Beta  occ. eigenvalues --   -0.46354  -0.45533  -0.42166  -0.40034  -0.39138
  Beta  occ. eigenvalues --   -0.37345  -0.37098  -0.35819  -0.33530  -0.32852
  Beta  occ. eigenvalues --   -0.31788  -0.30650  -0.30355  -0.30171  -0.29658
  Beta  occ. eigenvalues --   -0.28119  -0.26384  -0.25326  -0.25083  -0.24650
  Beta  occ. eigenvalues --   -0.24024  -0.23776  -0.22090  -0.21733  -0.20824
  Beta  occ. eigenvalues --   -0.18905  -0.16785  -0.15385  -0.13534  -0.12100
  Beta  occ. eigenvalues --   -0.09272  -0.07719  -0.05954
  Beta virt. eigenvalues --    0.06257   0.08357   0.09053   0.09437   0.09825
  Beta virt. eigenvalues --    0.10575   0.11295   0.11538   0.11748   0.12484
  Beta virt. eigenvalues --    0.12991   0.13781   0.14023   0.14376   0.14673

 Mulliken charges and spin densities:
               1          2
     1  C   -0.686411  -0.032855
     2  C    0.066070   0.010858
     3  O   -0.116982   0.002455
     4  C   -0.163720  -0.027727
     5  C    0.250666   0.164151
     6  C   -0.765256  -0.035339
     7  C   -0.147895   0.089986
     8  C    0.758949   0.098125
     9  C   -0.445432   0.024511
    10  O   -0.073512   0.003734
    11  C   -0.154861   0.005481
    12  C   -0.569153  -0.003171
    13  C   -0.033320   0.271175
    14  O   -0.405895   0.258167
    15  C   -0.145321   0.079913
    16  O   -0.396744   0.056807
    17  N   -0.249364   0.010408
    18  H    0.152795  -0.000777
    19  H    0.116519   0.008728
    20  H    0.129678   0.013481
    21  H    0.135753  -0.002223
    22  H    0.132422   0.008795
    23  H    0.111555  -0.011059
    24  H    0.114939   0.002906
    25  H    0.163721  -0.005477
    26  H    0.152785   0.000302
    27  H    0.144803  -0.000270
    28  H    0.230669  -0.003607
    29  H    0.127334   0.005536
    30  H    0.093431   0.000984
    31  H    0.262489  -0.004272
    32  H    0.209288   0.010277
 Sum of Mulliken charges =  -1.00000   1.00000

 Dipole moment (field-independent basis, Debye):
    X=             -7.8953    Y=             -2.9046    Z=             -0.2899  Tot=              8.4176
 Quadrupole moment (field-independent basis, Debye-Ang):
   XX=           -124.8019   YY=           -118.7661   ZZ=           -114.7864
   XY=             -7.8714   XZ=             -1.1869   YZ=              5.0212

 Summary of Natural Population Analysis:

                                       Natural Population
                Natural  -----------------------------------------------
    Atom  No    Charge         Core      Valence    Rydberg      Total
 -----------------------------------------------------------------------
      C    1   -0.29157      0.99967     2.28743    0.00448     3.29157
      C    2   -0.00931      0.99960     2.00003    0.00968     3.00931
      O    3   -0.28809      0.99985     3.27612    0.01212     4.28809
      C    4    0.11934      0.99936     1.86833    0.01298     2.88066
      C    5   -0.11137      0.99954     2.10454    0.00729     3.11137
      C    6   -0.12812      0.99958     2.11930    0.00925     3.12812
      C    7   -0.06923      0.99954     2.06074    0.00895     3.06923
      C    8   -0.06010      0.99946     2.05040    0.01024     3.06010
      C    9    0.18035      0.99932     1.80485    0.01548     2.81965
      O   10   -0.27887      0.99985     3.26867    0.01035     4.27887
      C   11   -0.00419      0.99958     1.99473    0.00988     3.00419
      C   12   -0.30790      0.99966     2.30414    0.00410     3.30790
      C   13    0.28964      0.99959     1.68819    0.02258     2.71036
      O   14   -0.23101      0.99988     3.22486    0.00627     4.23101
      C   15    0.32616      0.99969     1.64903    0.02512     2.67384
      O   16   -0.32269      0.99987     3.31519    0.00764     4.32269
      N   17   -0.40660      0.99970     2.89806    0.00884     3.90660
      H   18    0.10021      0.00000     0.39876    0.00103     0.39979
      H   19    0.09455      0.00000     0.40471    0.00073     0.40545
      H   20    0.10070      0.00000     0.39825    0.00105     0.39930
      H   21    0.08058      0.00000     0.41795    0.00147     0.41942
      H   22    0.08025      0.00000     0.41748    0.00227     0.41975
      H   23    0.09090      0.00000     0.40779    0.00131     0.40910
      H   24    0.08985      0.00000     0.40861    0.00154     0.41015
      H   25    0.10289      0.00000     0.39549    0.00162     0.39711
      H   26    0.08037      0.00000     0.41825    0.00138     0.41963
      H   27    0.08464      0.00000     0.41422    0.00114     0.41536
      H   28    0.12367      0.00000     0.37535    0.00098     0.37633
      H   29    0.09818      0.00000     0.40079    0.00103     0.40182
      H   30    0.08985      0.00000     0.40921    0.00094     0.41015
      H   31    0.19895      0.00000     0.29873    0.00231     0.30105
      H   32    0.17799      0.00000     0.31767    0.00434     0.32201
 =======================================================================
   * Total *    0.00000     16.99372    45.79789    0.20839    63.00000

 Normal termination of Gaussian 16 at Fri Dec 11 13:57:41 2020.
