 Gaussian 16, Revision A.03,

 -----------------------------------------------------------
 # opt freq B3LYP/6-31G(d) empiricaldispersion=gd3bj scf=xqc
 -----------------------------------------------------------

 -------------------------------
 CID_130026844_JID_1215_neutraal
 -------------------------------
 Symbolic Z-matrix:
 Charge =  0 Multiplicity = 1

 SCF Done:  E(RB3LYP) =  -483.198936598     A.U. after   14 cycles
 SCF Done:  E(RB3LYP) =  -483.203013067     A.U. after   13 cycles
 SCF Done:  E(RB3LYP) =  -483.202582540     A.U. after   13 cycles
 SCF Done:  E(RB3LYP) =  -483.203912632     A.U. after   12 cycles
 SCF Done:  E(RB3LYP) =  -483.204344155     A.U. after   12 cycles
 SCF Done:  E(RB3LYP) =  -483.204498833     A.U. after   11 cycles
 SCF Done:  E(RB3LYP) =  -483.204552039     A.U. after   11 cycles
 SCF Done:  E(RB3LYP) =  -483.204574281     A.U. after   10 cycles
 SCF Done:  E(RB3LYP) =  -483.204596727     A.U. after   10 cycles
 SCF Done:  E(RB3LYP) =  -483.204615434     A.U. after   10 cycles
 SCF Done:  E(RB3LYP) =  -483.204621662     A.U. after   10 cycles
 SCF Done:  E(RB3LYP) =  -483.204624332     A.U. after    8 cycles
 SCF Done:  E(RB3LYP) =  -483.204625074     A.U. after    8 cycles
 SCF Done:  E(RB3LYP) =  -483.204625642     A.U. after    7 cycles
 SCF Done:  E(RB3LYP) =  -483.204626134     A.U. after    8 cycles
 SCF Done:  E(RB3LYP) =  -483.204626182     A.U. after    7 cycles
 Optimization completed.
    -- Stationary point found.
 Normal termination of Gaussian 16 at Tue Dec  8 19:29:23 2020.

 --------------------------------------------------------------------
 #N Geom=AllCheck Guess=TCheck SCRF=Check GenChk RB3LYP/6-31G(d) Freq
 --------------------------------------------------------------------

 Structure from the checkpoint file:  "JID_1215.chk"
 -------------------------------
 CID_130026844_JID_1215_neutraal
 -------------------------------
 Charge =  0 Multiplicity = 1

 SCF Done:  E(RB3LYP) =  -483.204626182     A.U. after    1 cycles

  Exact polarizability: 100.979   1.640 101.898  -0.499   0.921  93.546
 Approx polarizability: 135.585  -0.466 134.902  -6.029   3.464 147.871

                      1                      2                      3
                      A                      A                      A
 Frequencies --     62.0945                74.4153               101.3853
 Red. masses --      2.9640                 2.5454                 2.3522
 Frc consts  --      0.0067                 0.0083                 0.0142
 IR Inten    --      3.5591                 1.0280                 1.2890

                      4                      5                      6
                      A                      A                      A
 Frequencies --    126.9183               151.1451               178.6664
 Red. masses --      1.3640                 2.9014                 1.9578
 Frc consts  --      0.0129                 0.0391                 0.0368
 IR Inten    --      0.6488                 0.2169                 0.0753

                      7                      8                      9
                      A                      A                      A
 Frequencies --    236.2973               241.8378               267.2678
 Red. masses --      2.2732                 1.7868                 1.5414
 Frc consts  --      0.0748                 0.0616                 0.0649
 IR Inten    --      3.2144                 0.1898                 2.8488

                     10                     11                     12
                      A                      A                      A
 Frequencies --    300.6803               317.2683               339.7519
 Red. masses --      2.3616                 1.2339                 3.3179
 Frc consts  --      0.1258                 0.0732                 0.2256
 IR Inten    --      1.1874                 0.3312                 0.3657

                     13                     14                     15
                      A                      A                      A
 Frequencies --    413.5012               449.5044               458.0938
 Red. masses --      2.6757                 3.0722                 2.3293
 Frc consts  --      0.2695                 0.3657                 0.2880
 IR Inten    --      4.9700                 5.1298                 1.3412

                     16                     17                     18
                      A                      A                      A
 Frequencies --    545.3630               599.8731               656.3041
 Red. masses --      3.0168                 3.6282                 2.4196
 Frc consts  --      0.5287                 0.7692                 0.6140
 IR Inten    --      4.7475                16.2694                 1.4628

                     19                     20                     21
                      A                      A                      A
 Frequencies --    690.7456               777.5271               812.9103
 Red. masses --      2.3801                 2.3481                 2.0499
 Frc consts  --      0.6691                 0.8364                 0.7981
 IR Inten    --      0.8064                 5.5745                 3.0488

                     22                     23                     24
                      A                      A                      A
 Frequencies --    840.1889               906.3640               917.3102
 Red. masses --      3.0036                 3.0692                 1.8925
 Frc consts  --      1.2492                 1.4855                 0.9382
 IR Inten    --      0.8420                11.8944                 3.3832

                     25                     26                     27
                      A                      A                      A
 Frequencies --    938.1530               953.5571               998.1425
 Red. masses --      2.3928                 2.3754                 1.7528
 Frc consts  --      1.2408                 1.2726                 1.0289
 IR Inten    --      2.9734                 3.2626                 9.4706

                     28                     29                     30
                      A                      A                      A
 Frequencies --   1024.3517              1046.1214              1058.9717
 Red. masses --      1.8128                 1.8922                 1.9347
 Frc consts  --      1.1207                 1.2200                 1.2783
 IR Inten    --      4.0345                 4.1608                29.5625

                     31                     32                     33
                      A                      A                      A
 Frequencies --   1082.0961              1086.8698              1129.7676
 Red. masses --      1.6551                 1.9764                 1.7269
 Frc consts  --      1.1419                 1.3756                 1.2987
 IR Inten    --      8.2990                 2.4063                 6.4151

                     34                     35                     36
                      A                      A                      A
 Frequencies --   1138.5748              1183.5032              1200.0465
 Red. masses --      1.6609                 1.4258                 1.9185
 Frc consts  --      1.2686                 1.1767                 1.6278
 IR Inten    --      8.1370                15.9530                41.3221

                     37                     38                     39
                      A                      A                      A
 Frequencies --   1206.4130              1214.3679              1238.1604
 Red. masses --      1.5749                 1.5148                 1.7913
 Frc consts  --      1.3505                 1.3162                 1.6180
 IR Inten    --      3.1550                 6.1298                33.5196

                     40                     41                     42
                      A                      A                      A
 Frequencies --   1265.2136              1282.2439              1305.7202
 Red. masses --      1.3333                 1.4450                 1.5539
 Frc consts  --      1.2575                 1.3998                 1.5609
 IR Inten    --      6.1061                19.2189                 6.3242

                     43                     44                     45
                      A                      A                      A
 Frequencies --   1327.8825              1340.1909              1350.2539
 Red. masses --      1.4154                 1.6376                 1.4045
 Frc consts  --      1.4705                 1.7330                 1.5087
 IR Inten    --      4.3561                16.6598                 0.9501

                     46                     47                     48
                      A                      A                      A
 Frequencies --   1365.2418              1383.5660              1403.1120
 Red. masses --      1.4034                 1.4845                 1.4653
 Frc consts  --      1.5411                 1.6743                 1.6996
 IR Inten    --      0.3801                10.3777                57.9227

                     49                     50                     51
                      A                      A                      A
 Frequencies --   1439.2158              1472.6003              1497.8262
 Red. masses --      1.2883                 1.1514                 1.0635
 Frc consts  --      1.5722                 1.4711                 1.4057
 IR Inten    --     15.2338                 0.5351                 4.7737

                     52                     53                     54
                      A                      A                      A
 Frequencies --   1504.2114              1510.2200              1511.1462
 Red. masses --      1.1468                 1.0541                 1.0720
 Frc consts  --      1.5288                 1.4165                 1.4423
 IR Inten    --      3.3996                 8.2984                 3.2965

                     55                     56                     57
                      A                      A                      A
 Frequencies --   1514.4243              1526.6568              1531.9620
 Red. masses --      1.0793                 1.0713                 1.0614
 Frc consts  --      1.4584                 1.4711                 1.4677
 IR Inten    --      1.4666                 1.1229                18.1714

                     58                     59                     60
                      A                      A                      A
 Frequencies --   1537.7621              1548.6253              1556.7749
 Red. masses --      1.0554                 1.0645                 1.0764
 Frc consts  --      1.4704                 1.5042                 1.5370
 IR Inten    --      8.2944                 7.6001                 2.9347

                     61                     62                     63
                      A                      A                      A
 Frequencies --   1807.4188              2947.4665              2966.1116
 Red. masses --     10.4430                 1.0603                 1.0608
 Frc consts  --     20.0998                 5.4272                 5.4989
 IR Inten    --    126.6737                64.0101                94.2318

                     64                     65                     66
                      A                      A                      A
 Frequencies --   3033.3587              3047.2699              3056.1220
 Red. masses --      1.0829                 1.0671                 1.0376
 Frc consts  --      5.8707                 5.8384                 5.7096
 IR Inten    --      6.1647                17.8062                 5.3318

                     67                     68                     69
                      A                      A                      A
 Frequencies --   3070.3519              3072.0378              3074.3291
 Red. masses --      1.0787                 1.0631                 1.0727
 Frc consts  --      5.9914                 5.9109                 5.9733
 IR Inten    --     25.7429                32.2681                75.6398

                     70                     71                     72
                      A                      A                      A
 Frequencies --   3081.5782              3087.6390              3093.6185
 Red. masses --      1.0712                 1.0792                 1.0959
 Frc consts  --      5.9935                 6.0617                 6.1797
 IR Inten    --     25.2492                37.9838                21.3682

                     73                     74                     75
                      A                      A                      A
 Frequencies --   3110.7191              3118.2093              3122.3189
 Red. masses --      1.1024                 1.1037                 1.0998
 Frc consts  --      6.2848                 6.3231                 6.3169
 IR Inten    --     20.4701                33.9624                 7.7526

                     76                     77                     78
                      A                      A                      A
 Frequencies --   3130.5411              3163.9207              3167.7476
 Red. masses --      1.1020                 1.1030                 1.0963
 Frc consts  --      6.3632                 6.5055                 6.4814
 IR Inten    --     40.4018                12.8169                 8.2333

 - Thermochemistry -
 -------------------
 Temperature   298.150 Kelvin.  Pressure   1.00000 Atm.
 Atom     1 has atomic number  6 and mass  12.00000

 Molecular mass:   155.13101 amu.
 Principal axes and moments of inertia in atomic units:
                           1         2         3
     Eigenvalues --  1386.220551696.452292306.32677
           X            0.99924   0.02230   0.03195
           Y           -0.02251   0.99973   0.00626
           Z           -0.03181  -0.00697   0.99947
 This molecule is an asymmetric top.
 Rotational symmetry number  1.
 Warning -- assumption of classical behavior for rotation
           may cause significant error
 Rotational temperatures (Kelvin)      0.06248     0.05106     0.03755
 Rotational constants (GHZ):           1.30191     1.06383     0.78252
 Zero-point vibrational energy     665662.7 (Joules/Mol)
                                  159.09721 (Kcal/Mol)
 Warning -- explicit consideration of  17 degrees of freedom as
           vibrations may cause significant error
 Vibrational temperatures:     89.34   107.07   145.87   182.61   217.46
          (Kelvin)            257.06   339.98   347.95   384.54   432.61
                              456.48   488.83   594.94   646.74   659.09
                              784.66   863.08   944.28   993.83  1118.69
                             1169.60  1208.84  1304.06  1319.80  1349.79
                             1371.96  1436.10  1473.81  1505.14  1523.62
                             1556.89  1563.76  1625.48  1638.16  1702.80
                             1726.60  1735.76  1747.20  1781.44  1820.36
                             1844.86  1878.64  1910.53  1928.24  1942.71
                             1964.28  1990.64  2018.77  2070.71  2118.74
                             2155.04  2164.22  2172.87  2174.20  2178.92
                             2196.52  2204.15  2212.50  2228.13  2239.85
                             2600.47  4240.75  4267.57  4364.33  4384.34
                             4397.08  4417.55  4419.98  4423.27  4433.70
                             4442.42  4451.03  4475.63  4486.41  4492.32
                             4504.15  4552.18  4557.68

 Zero-point correction=                           0.253538 (Hartree/Particle)
 Thermal correction to Energy=                    0.265570
 Thermal correction to Enthalpy=                  0.266514
 Thermal correction to Gibbs Free Energy=         0.215904
 Sum of electronic and zero-point Energies=           -482.951089
 Sum of electronic and thermal Energies=              -482.939057
 Sum of electronic and thermal Enthalpies=            -482.938112
 Sum of electronic and thermal Free Energies=         -482.988723

                     E (Thermal)             CV                S
                      KCal/Mol        Cal/Mol-Kelvin    Cal/Mol-Kelvin
 Total                  166.647             45.144            106.518
 Electronic               0.000              0.000              0.000
 Translational            0.889              2.981             41.027
 Rotational               0.889              2.981             30.074
 Vibrational            164.870             39.183             35.418
 Vibration     1          0.597              1.972              4.389
 Vibration     2          0.599              1.966              4.033
 Vibration     3          0.604              1.948              3.428
 Vibration     4          0.611              1.926              2.992
 Vibration     5          0.619              1.901              2.658
 Vibration     6          0.629              1.869              2.342
 Vibration     7          0.655              1.785              1.831
 Vibration     8          0.658              1.776              1.789
 Vibration     9          0.672              1.733              1.614
 Vibration    10          0.693              1.672              1.413
 Vibration    11          0.704              1.641              1.324
 Vibration    12          0.720              1.596              1.213
 Vibration    13          0.777              1.441              0.914
 Vibration    14          0.808              1.362              0.797
 Vibration    15          0.816              1.343              0.772
 Vibration    16          0.901              1.150              0.554
 Vibration    17          0.958              1.032              0.450

 Optimization completed.
    -- Stationary point found.
 Normal termination of Gaussian 16 at Tue Dec  8 19:35:40 2020.

 ----------------------------------------------------------------------
 # B3LYP/6-311++G(d,p) empiricaldispersion=gd3bj scf=xqc pop=npa geom=c
 heck
 ----------------------------------------------------------------------

 ---------------------------------------
 CID_130026844_JID_1215_Energie_neutraal
 ---------------------------------------
 Structure from the checkpoint file:  "JID_1215.chk"
 Charge =  0 Multiplicity = 1

 SCF Done:  E(RB3LYP) =  -483.341136574     A.U. after   13 cycles
 Normal termination of Gaussian 16 at Tue Dec  8 19:37:49 2020.

 ----------------------------------------------------------------------
 # B3LYP/6-311++G(d,p) empiricaldispersion=gd3bj scf=xqc pop=npa geom=c
 heck
 ----------------------------------------------------------------------

 -------------------------------------
 CID_130026844_JID_1215_Energie_kation
 -------------------------------------
 Structure from the checkpoint file:  "JID_1215.chk"
 Charge =  1 Multiplicity = 2

 SCF Done:  E(UB3LYP) =  -483.047685464     A.U. after   21 cycles
 Normal termination of Gaussian 16 at Tue Dec  8 19:42:22 2020.
 Gaussian 16:  ES64L-G16RevA.03 25-Dec-2016

 ----------------------------------------------------------------------
 # B3LYP/6-311++G(d,p) empiricaldispersion=gd3bj scf=xqc pop=npa geom=c
 heck
 ----------------------------------------------------------------------

 ------------------------------------
 CID_130026844_JID_1215_Energie_anion
 ------------------------------------
 Structure from the checkpoint file:  "JID_1215.chk"
 Charge = -1 Multiplicity = 2

                         Standard orientation:
 ---------------------------------------------------------------------
 Center     Atomic      Atomic             Coordinates (Angstroms)
 Number     Number       Type             X           Y           Z
 ---------------------------------------------------------------------
      1          6           0       -2.425810   -1.098954   -0.838005
      2          6           0       -1.840007    0.022266   -0.004206
      3          8           0       -2.280958    0.293719    1.097866
      4          6           0       -0.658478    0.773602   -0.614005
      5          6           0       -0.205610    2.028914    0.163839
      6          6           0        1.345561    2.014478    0.168933
      7          6           0        1.762994    0.885673   -0.795505
      8          6           0        0.599021   -0.136544   -0.795899
      9          7           0        0.669486   -1.228133    0.184902
     10          6           0        1.623426   -2.255224   -0.204826
     11          6           0        0.869821   -0.833840    1.575339
     12          1           0       -3.361773   -1.443059   -0.393336
     13          1           0       -1.703279   -1.922840   -0.848199
     14          1           0       -2.593637   -0.784275   -1.874435
     15          1           0       -0.964298    1.065778   -1.627416
     16          1           0       -0.595643    2.932005   -0.315979
     17          1           0       -0.620315    2.007207    1.174637
     18          1           0        1.720321    1.813356    1.176875
     19          1           0        1.766093    2.978410   -0.134526
     20          1           0        2.719467    0.423190   -0.527803
     21          1           0        1.875627    1.284217   -1.811483
     22          1           0        0.541866   -0.638585   -1.767418
     23          1           0        2.677456   -1.918904   -0.175419
     24          1           0        1.530019   -3.110749    0.472966
     25          1           0        1.406301   -2.599775   -1.221675
     26          1           0        1.873671   -0.417262    1.774468
     27          1           0        0.116473   -0.105375    1.877718
     28          1           0        0.747402   -1.718384    2.209793
 ---------------------------------------------------------------------

 SCF Done:  E(UB3LYP) =  -483.328326565     A.U. after   30 cycles

 The electronic state is 2-A.
 Alpha  occ. eigenvalues --  -19.00497 -14.20098 -10.15272 -10.09438 -10.08042
 Alpha  occ. eigenvalues --  -10.08020 -10.06818 -10.05911 -10.05765 -10.05480
 Alpha  occ. eigenvalues --  -10.05445  -0.93739  -0.82134  -0.72009  -0.64924
 Alpha  occ. eigenvalues --   -0.61195  -0.60400  -0.59776  -0.52851  -0.48002
 Alpha  occ. eigenvalues --   -0.45305  -0.41541  -0.39461  -0.37918  -0.36586
 Alpha  occ. eigenvalues --   -0.34387  -0.33567  -0.32636  -0.32312  -0.31529
 Alpha  occ. eigenvalues --   -0.29340  -0.28945  -0.28574  -0.26408  -0.26037
 Alpha  occ. eigenvalues --   -0.25428  -0.23488  -0.23251  -0.22612  -0.22365
 Alpha  occ. eigenvalues --   -0.21135  -0.14515  -0.11088   0.04625
 Alpha virt. eigenvalues --    0.07069   0.07665   0.08571   0.08656   0.09643
 Alpha virt. eigenvalues --    0.10013   0.10423   0.10476   0.11313   0.12814
 Alpha virt. eigenvalues --    0.12892   0.13092   0.13608   0.14038   0.14637

  Beta  occ. eigenvalues --  -19.00483 -14.20096 -10.15260 -10.09420 -10.08023
  Beta  occ. eigenvalues --  -10.07981 -10.06800 -10.05881 -10.05752 -10.05450
  Beta  occ. eigenvalues --  -10.05434  -0.93709  -0.82116  -0.71972  -0.64877
  Beta  occ. eigenvalues --   -0.61153  -0.60348  -0.59721  -0.52789  -0.47955
  Beta  occ. eigenvalues --   -0.45233  -0.41497  -0.39384  -0.37875  -0.36545
  Beta  occ. eigenvalues --   -0.34343  -0.33538  -0.32598  -0.32271  -0.31492
  Beta  occ. eigenvalues --   -0.29303  -0.28908  -0.28545  -0.26364  -0.25996
  Beta  occ. eigenvalues --   -0.25379  -0.23448  -0.23217  -0.22561  -0.22322
  Beta  occ. eigenvalues --   -0.21097  -0.14493  -0.11063
  Beta virt. eigenvalues --    0.07055   0.07946   0.08308   0.08767   0.09127
  Beta virt. eigenvalues --    0.10042   0.10592   0.10835   0.11126   0.11701
  Beta virt. eigenvalues --    0.13177   0.13366   0.13435   0.13985   0.14610

 Mulliken charges and spin densities:
               1          2
     1  C    1.078455  -1.605443
     2  C   -1.839301   1.811288
     3  O   -0.235356  -0.027423
     4  C    1.200387  -1.021015
     5  C   -0.066314  -0.563564
     6  C   -0.141289   0.047508
     7  C    0.774728  -1.526083
     8  C   -0.621747   0.574421
     9  N   -0.036091   0.128821
    10  C    0.923238  -1.167059
    11  C    0.314739  -0.725309
    12  H   -0.076140   0.237205
    13  H    0.006541   0.174356
    14  H   -0.348593   0.504332
    15  H   -0.566698   0.832587
    16  H   -0.120312   0.252201
    17  H    0.142905   0.051067
    18  H    0.087142   0.021263
    19  H   -0.207451   0.391196
    20  H    0.062845   0.074297
    21  H   -0.527606   0.691272
    22  H   -0.221676   0.437586
    23  H   -0.160249   0.272998
    24  H   -0.205823   0.333955
    25  H   -0.466717   0.614781
    26  H   -0.100591   0.236633
    27  H    0.169293  -0.009118
    28  H    0.181680  -0.042752
 Sum of Mulliken charges =  -1.00000   1.00000

 Dipole moment (field-independent basis, Debye):
    X=             -0.1077    Y=              0.1626    Z=              5.2813  Tot=              5.2849
 Quadrupole moment (field-independent basis, Debye-Ang):
   XX=           -113.8864   YY=           -113.2550   ZZ=           -114.6540
   XY=              1.7943   XZ=              3.2377   YZ=              1.9110

 Summary of Natural Population Analysis:

                                       Natural Population
                Natural  -----------------------------------------------
    Atom  No    Charge         Core      Valence    Rydberg      Total
 -----------------------------------------------------------------------
      C    1   -0.33594      0.99961     2.33002    0.00631     3.33594
      C    2    0.31117      0.99965     1.66691    0.02228     2.68883
      O    3   -0.29646      0.99987     3.29033    0.00626     4.29646
      C    4   -0.16360      0.99952     2.15075    0.01332     3.16360
      C    5   -0.19489      0.99963     2.18627    0.00899     3.19489
      C    6   -0.19258      0.99964     2.18530    0.00764     3.19258
      C    7   -0.20341      0.99961     2.19494    0.00886     3.20341
      C    8    0.00412      0.99956     1.97906    0.01726     2.99588
      N    9   -0.28804      0.99972     2.77512    0.01320     3.78804
      C   10   -0.17349      0.99964     2.16523    0.00862     3.17349
      C   11   -0.18136      0.99963     2.17345    0.00828     3.18136
      H   12    0.10495      0.00000     0.39406    0.00099     0.39505
      H   13    0.12027      0.00000     0.37801    0.00172     0.37973
      H   14    0.10947      0.00000     0.38867    0.00186     0.39053
      H   15    0.11757      0.00000     0.37870    0.00373     0.38243
      H   16    0.10034      0.00000     0.39866    0.00101     0.39966
      H   17    0.10667      0.00000     0.39199    0.00135     0.39333
      H   18    0.09339      0.00000     0.40531    0.00130     0.40661
      H   19    0.09935      0.00000     0.39962    0.00103     0.40065
      H   20    0.10168      0.00000     0.39712    0.00120     0.39832
      H   21    0.10479      0.00000     0.39276    0.00245     0.39521
      H   22    0.10655      0.00000     0.38978    0.00367     0.39345
      H   23    0.08041      0.00000     0.41802    0.00157     0.41959
      H   24    0.09328      0.00000     0.40561    0.00111     0.40672
      H   25    0.09878      0.00000     0.39974    0.00148     0.40122
      H   26    0.07961      0.00000     0.41928    0.00111     0.42039
      H   27    0.10325      0.00000     0.39546    0.00129     0.39675
      H   28    0.09413      0.00000     0.40509    0.00078     0.40587
 =======================================================================
   * Total *   -0.00000     10.99608    31.85526    0.14866    43.00000

 Normal termination of Gaussian 16 at Tue Dec  8 19:48:47 2020.
