 Gaussian 16, Revision A.03,

 -----------------------------------------------------------
 # opt freq B3LYP/6-31G(d) empiricaldispersion=gd3bj scf=xqc
 -----------------------------------------------------------

 ------------------------------
 CID_67428401_JID_4186_neutraal
 ------------------------------
 Symbolic Z-matrix:
 Charge =  0 Multiplicity = 1

 SCF Done:  E(RB3LYP) =  -632.163615115     A.U. after   16 cycles
 SCF Done:  E(RB3LYP) =  -632.176638888     A.U. after   13 cycles
 SCF Done:  E(RB3LYP) =  -632.177885433     A.U. after   13 cycles
 SCF Done:  E(RB3LYP) =  -632.178075910     A.U. after   12 cycles
 SCF Done:  E(RB3LYP) =  -632.178218058     A.U. after   12 cycles
 SCF Done:  E(RB3LYP) =  -632.178400504     A.U. after   12 cycles
 SCF Done:  E(RB3LYP) =  -632.177881633     A.U. after   15 cycles
 SCF Done:  E(RB3LYP) =  -632.178691797     A.U. after   12 cycles
 SCF Done:  E(RB3LYP) =  -632.178792058     A.U. after   12 cycles
 SCF Done:  E(RB3LYP) =  -632.178907737     A.U. after   11 cycles
 SCF Done:  E(RB3LYP) =  -632.178954803     A.U. after   11 cycles
 SCF Done:  E(RB3LYP) =  -632.178961652     A.U. after   11 cycles
 SCF Done:  E(RB3LYP) =  -632.178964250     A.U. after   10 cycles
 SCF Done:  E(RB3LYP) =  -632.178964379     A.U. after    8 cycles
 SCF Done:  E(RB3LYP) =  -632.178964400     A.U. after    7 cycles
 Optimization completed.
    -- Stationary point found.
 Normal termination of Gaussian 16 at Thu Dec 10 09:22:21 2020.

 --------------------------------------------------------------------
 #N Geom=AllCheck Guess=TCheck SCRF=Check GenChk RB3LYP/6-31G(d) Freq
 --------------------------------------------------------------------

 Structure from the checkpoint file:  "JID_4186.chk"
 ------------------------------
 CID_67428401_JID_4186_neutraal
 ------------------------------
 Charge =  0 Multiplicity = 1

 SCF Done:  E(RB3LYP) =  -632.178964400     A.U. after    1 cycles

  Exact polarizability: 162.284  -1.641 141.155 -16.007  -1.344  73.954
 Approx polarizability: 243.804  -0.550 254.974 -37.227  -5.019 112.423

                      1                      2                      3
                      A                      A                      A
 Frequencies --     15.7765                26.5661                60.0224
 Red. masses --      3.5237                 3.8360                 3.0840
 Frc consts  --      0.0005                 0.0016                 0.0065
 IR Inten    --      0.9505                 0.6993                 2.8465

                      4                      5                      6
                      A                      A                      A
 Frequencies --    112.5955               167.2223               184.3223
 Red. masses --      3.1285                 1.9902                 5.5335
 Frc consts  --      0.0234                 0.0328                 0.1108
 IR Inten    --      2.2904                 1.8497                 0.7578

                      7                      8                      9
                      A                      A                      A
 Frequencies --    223.8195               231.7274               278.4472
 Red. masses --      3.4841                 2.6965                 1.4243
 Frc consts  --      0.1028                 0.0853                 0.0651
 IR Inten    --      0.5163                 1.4035                 0.9512

                     10                     11                     12
                      A                      A                      A
 Frequencies --    299.8442               331.7990               357.8756
 Red. masses --      4.5436                 4.9078                 2.2722
 Frc consts  --      0.2407                 0.3183                 0.1715
 IR Inten    --      0.4275                 3.8274                 0.6887

                     13                     14                     15
                      A                      A                      A
 Frequencies --    454.3455               498.2961               550.3335
 Red. masses --      2.8502                 3.8664                 3.6974
 Frc consts  --      0.3467                 0.5656                 0.6598
 IR Inten    --      1.3213                 0.9190                 1.9165

                     16                     17                     18
                      A                      A                      A
 Frequencies --    567.4691               594.6499               610.9088
 Red. masses --      5.0861                 6.2316                 5.3608
 Frc consts  --      0.9650                 1.2983                 1.1788
 IR Inten    --      2.9826                 0.5234                 1.2695

                     19                     20                     21
                      A                      A                      A
 Frequencies --    614.9472               689.6050               747.9940
 Red. masses --      4.3790                 4.9403                 2.1125
 Frc consts  --      0.9757                 1.3842                 0.6964
 IR Inten    --      2.5487                 4.5051                28.3603

                     22                     23                     24
                      A                      A                      A
 Frequencies --    752.9248               767.3236               806.5410
 Red. masses --      1.2501                 1.4739                 2.1150
 Frc consts  --      0.4175                 0.5113                 0.8106
 IR Inten    --      9.4140                 0.5793                35.1882

                     25                     26                     27
                      A                      A                      A
 Frequencies --    829.7147               857.9385               888.7243
 Red. masses --      2.3074                 2.8964                 1.9392
 Frc consts  --      0.9359                 1.2561                 0.9024
 IR Inten    --      1.2217                25.6005                13.5324

                     28                     29                     30
                      A                      A                      A
 Frequencies --    892.4089               930.9011               950.4163
 Red. masses --      1.4692                 5.8957                 9.1862
 Frc consts  --      0.6894                 3.0102                 4.8889
 IR Inten    --      7.1175                20.0811                 5.5013

                     31                     32                     33
                      A                      A                      A
 Frequencies --    965.2827               971.3952               992.1088
 Red. masses --      1.2702                 1.9640                 1.7764
 Frc consts  --      0.6973                 1.0919                 1.0302
 IR Inten    --      0.3688                 5.4566                19.2597

                     34                     35                     36
                      A                      A                      A
 Frequencies --   1020.1369              1074.5511              1096.1599
 Red. masses --      1.9777                 1.9141                 2.1757
 Frc consts  --      1.2126                 1.3022                 1.5403
 IR Inten    --     21.1651                 8.1087                 5.8564

                     37                     38                     39
                      A                      A                      A
 Frequencies --   1141.2026              1146.8665              1165.7068
 Red. masses --      2.1420                 1.9040                 2.6200
 Frc consts  --      1.6436                 1.4755                 2.0976
 IR Inten    --     65.4529                22.7951                11.9470

                     40                     41                     42
                      A                      A                      A
 Frequencies --   1170.7842              1209.9102              1265.1026
 Red. masses --      2.3203                 1.4506                 1.1760
 Frc consts  --      1.8739                 1.2511                 1.1089
 IR Inten    --     28.2419                22.6021                 3.5011

                     43                     44                     45
                      A                      A                      A
 Frequencies --   1282.1163              1290.2185              1327.2376
 Red. masses --      1.8230                 1.3004                 2.3739
 Frc consts  --      1.7656                 1.2754                 2.4638
 IR Inten    --     70.4784                 0.9304               168.8401

                     46                     47                     48
                      A                      A                      A
 Frequencies --   1340.0183              1365.6381              1392.9674
 Red. masses --      1.1474                 3.5419                 1.3879
 Frc consts  --      1.2139                 3.8919                 1.5867
 IR Inten    --     28.9040                88.9659                 2.7588

                     49                     50                     51
                      A                      A                      A
 Frequencies --   1410.1608              1415.7895              1436.0925
 Red. masses --      1.5493                 4.2226                 1.4264
 Frc consts  --      1.8152                 4.9869                 1.7333
 IR Inten    --      0.4160                11.0800                42.7594

                     52                     53                     54
                      A                      A                      A
 Frequencies --   1442.6882              1445.0446              1483.1789
 Red. masses --      3.4255                 1.3159                 3.4863
 Frc consts  --      4.2007                 1.6189                 4.5186
 IR Inten    --      5.4427                 6.0580                 4.8603

                     55                     56                     57
                      A                      A                      A
 Frequencies --   1504.2093              1520.8705              1528.8307
 Red. masses --      1.0890                 1.0664                 1.0681
 Frc consts  --      1.4517                 1.4532                 1.4708
 IR Inten    --      3.0375                 2.0105                 6.3312

                     58                     59                     60
                      A                      A                      A
 Frequencies --   1534.1859              1546.8241              1591.9806
 Red. masses --      1.0824                 1.0786                 5.1829
 Frc consts  --      1.5011                 1.5205                 7.7393
 IR Inten    --     27.6097                29.9971               168.4822

                     61                     62                     63
                      A                      A                      A
 Frequencies --   1611.6543              1693.2107              3038.7407
 Red. masses --      5.1004                 7.1963                 1.0613
 Frc consts  --      7.8055                12.1557                 5.7741
 IR Inten    --      7.8240                24.7475                22.0589

                     64                     65                     66
                      A                      A                      A
 Frequencies --   3044.4944              3050.0673              3067.9546
 Red. masses --      1.0385                 1.0647                 1.0682
 Frc consts  --      5.6716                 5.8359                 5.9240
 IR Inten    --     18.3171                34.9867                 9.1368

                     67                     68                     69
                      A                      A                      A
 Frequencies --   3080.8403              3091.1178              3112.2517
 Red. masses --      1.0941                 1.0965                 1.1009
 Frc consts  --      6.1186                 6.1727                 6.2827
 IR Inten    --     22.4879                25.8794                50.7847

                     70                     71                     72
                      A                      A                      A
 Frequencies --   3117.0608              3126.6560              3197.1295
 Red. masses --      1.1020                 1.1058                 1.0868
 Frc consts  --      6.3085                 6.3692                 6.5452
 IR Inten    --     64.0478                25.9685                 8.9517

                     73                     74                     75
                      A                      A                      A
 Frequencies --   3215.5497              3222.9664              3292.3992
 Red. masses --      1.0906                 1.0962                 1.0983
 Frc consts  --      6.6441                 6.7089                 7.0143
 IR Inten    --     11.4134                11.9955                 0.0213

 - Thermochemistry -
 -------------------
 Temperature   298.150 Kelvin.  Pressure   1.00000 Atm.
 Atom     1 has atomic number  6 and mass  12.00000

 Molecular mass:   191.09463 amu.
 Principal axes and moments of inertia in atomic units:
                           1         2         3
     Eigenvalues --  1438.408834335.142135246.62534
           X            0.99990  -0.01308   0.00611
           Y            0.01302   0.99987   0.00926
           Z           -0.00624  -0.00918   0.99994
 This molecule is an asymmetric top.
 Rotational symmetry number  1.
 Warning -- assumption of classical behavior for rotation
           may cause significant error
 Rotational temperatures (Kelvin)      0.06022     0.01998     0.01651
 Rotational constants (GHZ):           1.25468     0.41630     0.34398
 Zero-point vibrational energy     588172.8 (Joules/Mol)
                                  140.57667 (Kcal/Mol)
 Warning -- explicit consideration of  19 degrees of freedom as
           vibrations may cause significant error
 Vibrational temperatures:     22.70    38.22    86.36   162.00   240.60
          (Kelvin)            265.20   322.03   333.40   400.62   431.41
                              477.38   514.90   653.70   716.94   791.81
                              816.46   855.57   878.96   884.77   992.19
                             1076.20  1083.29  1104.01  1160.43  1193.77
                             1234.38  1278.68  1283.98  1339.36  1367.44
                             1388.83  1397.62  1427.42  1467.75  1546.04
                             1577.13  1641.94  1650.09  1677.19  1684.50
                             1740.79  1820.20  1844.68  1856.34  1909.60
                             1927.99  1964.85  2004.17  2028.91  2037.01
                             2066.22  2075.71  2079.10  2133.96  2164.22
                             2188.19  2199.65  2207.35  2225.53  2290.50
                             2318.81  2436.15  4372.07  4380.35  4388.37
                             4414.10  4432.64  4447.43  4477.84  4484.76
                             4498.56  4599.96  4626.46  4637.13  4737.03

 Zero-point correction=                           0.224023 (Hartree/Particle)
 Thermal correction to Energy=                    0.236589
 Thermal correction to Enthalpy=                  0.237533
 Thermal correction to Gibbs Free Energy=         0.182747
 Sum of electronic and zero-point Energies=           -631.954941
 Sum of electronic and thermal Energies=              -631.942375
 Sum of electronic and thermal Enthalpies=            -631.941431
 Sum of electronic and thermal Free Energies=         -631.996217

                     E (Thermal)             CV                S
                      KCal/Mol        Cal/Mol-Kelvin    Cal/Mol-Kelvin
 Total                  148.462             47.697            115.308
 Electronic               0.000              0.000              0.000
 Translational            0.889              2.981             41.648
 Rotational               0.889              2.981             31.859
 Vibrational            146.685             41.735             41.800
 Vibration     1          0.593              1.986              7.105
 Vibration     2          0.593              1.984              6.071
 Vibration     3          0.597              1.973              4.456
 Vibration     4          0.607              1.939              3.224
 Vibration     5          0.624              1.883              2.466
 Vibration     6          0.631              1.861              2.284
 Vibration     7          0.649              1.805              1.928
 Vibration     8          0.653              1.792              1.866
 Vibration     9          0.679              1.713              1.543
 Vibration    10          0.692              1.674              1.418
 Vibration    11          0.714              1.612              1.251
 Vibration    12          0.733              1.559              1.131
 Vibration    13          0.813              1.351              0.783
 Vibration    14          0.854              1.254              0.662
 Vibration    15          0.906              1.139              0.543
 Vibration    16          0.923              1.102              0.509
 Vibration    17          0.952              1.043              0.459
 Vibration    18          0.970              1.009              0.431
 Vibration    19          0.974              1.000              0.425

                           ! Non-Optimized Parameters !
 Normal termination of Gaussian 16 at Thu Dec 10 09:29:10 2020.

 ----------------------------------------------------------------------
 # B3LYP/6-311++G(d,p) empiricaldispersion=gd3bj scf=xqc pop=npa geom=c
 heck
 ----------------------------------------------------------------------

 --------------------------------------
 CID_67428401_JID_4186_Energie_neutraal
 --------------------------------------
 Structure from the checkpoint file:  "JID_4186.chk"
 Charge =  0 Multiplicity = 1

 SCF Done:  E(RB3LYP) =  -632.346709849     A.U. after   16 cycles
 Normal termination of Gaussian 16 at Thu Dec 10 09:31:57 2020.

 ----------------------------------------------------------------------
 # B3LYP/6-311++G(d,p) empiricaldispersion=gd3bj scf=xqc pop=npa geom=c
 heck
 ----------------------------------------------------------------------

 ------------------------------------
 CID_67428401_JID_4186_Energie_kation
 ------------------------------------
 Structure from the checkpoint file:  "JID_4186.chk"
 Charge =  1 Multiplicity = 2

 SCF Done:  E(UB3LYP) =  -632.064077284     A.U. after   22 cycles
 Normal termination of Gaussian 16 at Thu Dec 10 09:36:49 2020.
 Gaussian 16:  ES64L-G16RevA.03 25-Dec-2016

 ----------------------------------------------------------------------
 # B3LYP/6-311++G(d,p) empiricaldispersion=gd3bj scf=xqc pop=npa geom=c
 heck
 ----------------------------------------------------------------------

 -----------------------------------
 CID_67428401_JID_4186_Energie_anion
 -----------------------------------
 Structure from the checkpoint file:  "JID_4186.chk"
 Charge = -1 Multiplicity = 2

                         Standard orientation:
 ---------------------------------------------------------------------
 Center     Atomic      Atomic             Coordinates (Angstroms)
 Number     Number       Type             X           Y           Z
 ---------------------------------------------------------------------
      1          6           0        3.776772    0.269701    1.539431
      2          6           0        3.855706    0.357434    0.012526
      3          6           0        3.153285   -0.796497   -0.717378
      4          6           0        1.665765   -0.913112   -0.423743
      5          8           0        1.055579    0.332117   -0.817239
      6          6           0       -0.210487    0.616001   -0.430133
      7          6           0       -0.590473    1.936303   -0.366134
      8          6           0       -1.916247    2.342506   -0.021244
      9          6           0       -2.898860    1.438603    0.280786
     10          6           0       -2.548901    0.059988    0.228126
     11          6           0       -3.206763   -1.129916    0.431985
     12          8           0       -2.371955   -2.156307    0.221918
     13          7           0       -1.108065   -1.698273   -0.136248
     14          6           0       -1.215843   -0.370362   -0.128303
     15          1           0        2.745658    0.366282    1.897066
     16          1           0        4.360720    1.069094    2.008628
     17          1           0        4.168432   -0.688083    1.904547
     18          1           0        3.418955    1.304973   -0.322754
     19          1           0        4.908434    0.371600   -0.297228
     20          1           0        3.287703   -0.680971   -1.800107
     21          1           0        3.616611   -1.753693   -0.440538
     22          1           0        1.211933   -1.737238   -0.980431
     23          1           0        1.477577   -1.086752    0.641234
     24          1           0        0.160630    2.686072   -0.592304
     25          1           0       -2.132931    3.406314    0.004346
     26          1           0       -3.903495    1.750061    0.545281
     27          1           0       -4.216493   -1.390121    0.713057
 ---------------------------------------------------------------------

 SCF Done:  E(UB3LYP) =  -632.353214475     A.U. after   33 cycles
 SCF Done:  E(UB3LYP) =  -632.353286560     a.u. after    6 cycles

 The electronic state is 2-A.
 Alpha  occ. eigenvalues --  -19.02672 -19.00423 -14.17153 -10.09202 -10.06707
 Alpha  occ. eigenvalues --  -10.06470 -10.06213 -10.06177 -10.05250 -10.04230
 Alpha  occ. eigenvalues --  -10.02187 -10.01600 -10.00875 -10.00777  -0.97233
 Alpha  occ. eigenvalues --   -0.92086  -0.71365  -0.69277  -0.67138  -0.62853
 Alpha  occ. eigenvalues --   -0.60719  -0.57592  -0.53315  -0.48582  -0.47136
 Alpha  occ. eigenvalues --   -0.45550  -0.42810  -0.38791  -0.36944  -0.35991
 Alpha  occ. eigenvalues --   -0.34868  -0.32439  -0.32143  -0.31559  -0.30361
 Alpha  occ. eigenvalues --   -0.30025  -0.28615  -0.27019  -0.25028  -0.24216
 Alpha  occ. eigenvalues --   -0.23527  -0.22790  -0.22021  -0.21610  -0.21158
 Alpha  occ. eigenvalues --   -0.19158  -0.17248  -0.13946  -0.13455  -0.10906
 Alpha  occ. eigenvalues --   -0.05459   0.05379
 Alpha virt. eigenvalues --    0.06790   0.08998   0.09278   0.09692   0.10581
 Alpha virt. eigenvalues --    0.11075   0.12070   0.12660   0.13150   0.13522
 Alpha virt. eigenvalues --    0.14030   0.14879   0.15485   0.16292   0.16562

  Beta  occ. eigenvalues --  -19.02109 -19.00367 -14.16735 -10.09200 -10.06466
  Beta  occ. eigenvalues --  -10.06420 -10.06209 -10.06176 -10.04855 -10.04285
  Beta  occ. eigenvalues --  -10.02309 -10.01566 -10.00724 -10.00621  -0.96333
  Beta  occ. eigenvalues --   -0.91920  -0.70998  -0.69202  -0.66576  -0.62708
  Beta  occ. eigenvalues --   -0.60405  -0.57230  -0.53213  -0.48002  -0.46970
  Beta  occ. eigenvalues --   -0.45376  -0.42546  -0.38601  -0.36851  -0.35728
  Beta  occ. eigenvalues --   -0.34709  -0.32216  -0.31930  -0.31017  -0.29976
  Beta  occ. eigenvalues --   -0.28752  -0.28538  -0.26943  -0.24774  -0.24022
  Beta  occ. eigenvalues --   -0.23431  -0.22608  -0.21904  -0.21199  -0.20750
  Beta  occ. eigenvalues --   -0.18740  -0.16663  -0.13298  -0.11908  -0.09769
  Beta  occ. eigenvalues --   -0.03441
  Beta virt. eigenvalues --    0.06853   0.08931   0.09194   0.09655   0.10543
  Beta virt. eigenvalues --    0.11011   0.11647   0.11984   0.12576   0.13058
  Beta virt. eigenvalues --    0.13445   0.13935   0.15033   0.15586   0.16319

 Mulliken charges and spin densities:
               1          2
     1  C   -0.383449  -0.177261
     2  C   -0.155206   0.029912
     3  C   -0.525630  -0.030170
     4  C   -0.155794  -0.037567
     5  O   -0.148937   0.012561
     6  C   -0.201294   0.123569
     7  C   -0.152627   0.099634
     8  C   -0.246365   0.044721
     9  C   -1.247016   0.197540
    10  C    0.477854  -0.093047
    11  C    0.065124   0.352078
    12  O    0.260453   0.106507
    13  N   -0.556900   0.208930
    14  C    0.530886  -0.083377
    15  H    0.135056   0.026253
    16  H    0.034233   0.086116
    17  H    0.078112   0.037861
    18  H    0.152356   0.002664
    19  H    0.013290   0.115959
    20  H    0.152495  -0.007485
    21  H    0.080529   0.045895
    22  H    0.212066  -0.000909
    23  H    0.182142  -0.014163
    24  H    0.102216  -0.007309
    25  H    0.107883  -0.003496
    26  H    0.068954  -0.015049
    27  H    0.119569  -0.020367
 Sum of Mulliken charges =  -1.00000   1.00000

 Dipole moment (field-independent basis, Debye):
    X=              3.9437    Y=              0.5875    Z=              0.3836  Tot=              4.0056
 Quadrupole moment (field-independent basis, Debye-Ang):
   XX=           -115.4141   YY=           -106.8160   ZZ=            -95.8238
   XY=             -3.5602   XZ=             -2.1483   YZ=              0.2158

 Summary of Natural Population Analysis:

                                       Natural Population
                Natural  -----------------------------------------------
    Atom  No    Charge         Core      Valence    Rydberg      Total
 -----------------------------------------------------------------------
      C    1   -0.28895      0.99967     2.28419    0.00509     3.28895
      C    2   -0.19626      0.99964     2.18577    0.01085     3.19626
      C    3   -0.19579      0.99963     2.18802    0.00814     3.19579
      C    4   -0.01202      0.99957     2.00224    0.01021     3.01202
      O    5   -0.28405      0.99985     3.27366    0.01054     4.28405
      C    6    0.19616      0.99933     1.79054    0.01397     2.80384
      C    7   -0.13256      0.99955     2.12374    0.00927     3.13256
      C    8   -0.10974      0.99959     2.10024    0.00991     3.10974
      C    9   -0.07238      0.99954     2.06343    0.00941     3.07238
      C   10   -0.10792      0.99951     2.10007    0.00833     3.10792
      C   11    0.14225      0.99952     1.84316    0.01507     2.85775
      O   12   -0.10998      0.99986     3.09909    0.01103     4.10998
      N   13   -0.05785      0.99968     2.54395    0.01421     3.55785
      C   14    0.02921      0.99951     1.95933    0.01194     2.97079
      H   15    0.10270      0.00000     0.39597    0.00133     0.39730
      H   16    0.09476      0.00000     0.40417    0.00107     0.40524
      H   17    0.09109      0.00000     0.40765    0.00126     0.40891
      H   18    0.10332      0.00000     0.39529    0.00139     0.39668
      H   19    0.08885      0.00000     0.40998    0.00118     0.41115
      H   20    0.09675      0.00000     0.40202    0.00124     0.40325
      H   21    0.09217      0.00000     0.40637    0.00146     0.40783
      H   22    0.09748      0.00000     0.40111    0.00141     0.40252
      H   23    0.08409      0.00000     0.41304    0.00287     0.41591
      H   24    0.09330      0.00000     0.40565    0.00106     0.40670
      H   25    0.08717      0.00000     0.41179    0.00105     0.41283
      H   26    0.08697      0.00000     0.41137    0.00166     0.41303
      H   27    0.08122      0.00000     0.41774    0.00103     0.41878
 =======================================================================
   * Total *   -0.00000     13.99444    36.83956    0.16600    51.00000

 Normal termination of Gaussian 16 at Thu Dec 10 10:15:26 2020.
