 Gaussian 16, Revision A.03,

 ----------------------------------------------------------------------
 # opt=(cartesian,calcfc,maxcycle=500) freq B3LYP/6-31G(d) empiricaldis
 persion=gd3bj scf=xqc
 ----------------------------------------------------------------------

 ------------------------------
 CID_53655600_JID_1474_neutraal
 ------------------------------
 Symbolic Z-matrix:
 Charge =  0 Multiplicity = 1

 SCF Done:  E(RB3LYP) =  -511.631143811     A.U. after   15 cycles
 SCF Done:  E(RB3LYP) =  -511.631416396     A.U. after   11 cycles
 SCF Done:  E(RB3LYP) =  -511.631854741     A.U. after   11 cycles
 SCF Done:  E(RB3LYP) =  -511.632450005     A.U. after   11 cycles
 SCF Done:  E(RB3LYP) =  -511.627772457     A.U. after   13 cycles
 SCF Done:  E(RB3LYP) =  -511.632263531     A.U. after   12 cycles
 SCF Done:  E(RB3LYP) =  -511.632488822     A.U. after    7 cycles
 SCF Done:  E(RB3LYP) =  -511.632852918     A.U. after   11 cycles
 SCF Done:  E(RB3LYP) =  -511.633674716     A.U. after   12 cycles
 SCF Done:  E(RB3LYP) =  -511.633680018     A.U. after   12 cycles
 SCF Done:  E(RB3LYP) =  -511.640688783     A.U. after    7 cycles
 SCF Done:  E(RB3LYP) =  -511.640688916     A.U. after    7 cycles
 SCF Done:  E(RB3LYP) =  -511.640688916     A.U. after    8 cycles
 SCF Done:  E(RB3LYP) =  -511.640688906     A.U. after    8 cycles
 SCF Done:  E(RB3LYP) =  -511.640689018     A.U. after    7 cycles
 Optimization completed.
    -- Stationary point found.
 Normal termination of Gaussian 16 at Wed Feb 24 13:46:37 2021.

 --------------------------------------------------------------------
 #N Geom=AllCheck Guess=TCheck SCRF=Check GenChk RB3LYP/6-31G(d) Freq
 --------------------------------------------------------------------

 Structure from the checkpoint file:  "JID_1474.chk"
 ------------------------------
 CID_53655600_JID_1474_neutraal
 ------------------------------
 Charge =  0 Multiplicity = 1

 SCF Done:  E(RB3LYP) =  -511.640689018     A.U. after    1 cycles

  Exact polarizability: 122.584  -2.397 108.301   3.277   3.379  50.414
 Approx polarizability: 190.348 -10.701 172.017   9.798   8.384  79.542

                      1                      2                      3
                      A                      A                      A
 Frequencies --     87.0019               102.4451               123.3110
 Red. masses --      3.1260                 2.4126                 2.6172
 Frc consts  --      0.0139                 0.0149                 0.0234
 IR Inten    --      1.4021                 0.3387                 2.9258

                      4                      5                      6
                      A                      A                      A
 Frequencies --    137.6499               173.5770               264.0867
 Red. masses --      1.6159                 3.2178                 4.2350
 Frc consts  --      0.0180                 0.0571                 0.1740
 IR Inten    --      0.6828                 1.8244                 4.8683

                      7                      8                      9
                      A                      A                      A
 Frequencies --    285.7177               317.5767               416.2457
 Red. masses --      3.6092                 3.5766                 5.1317
 Frc consts  --      0.1736                 0.2125                 0.5239
 IR Inten    --      1.2139                 3.9227                 1.8717

                     10                     11                     12
                      A                      A                      A
 Frequencies --    448.6428               465.0576               530.0918
 Red. masses --      3.1036                 4.7899                 5.8745
 Frc consts  --      0.3681                 0.6104                 0.9726
 IR Inten    --      8.1420                 6.6460                 3.0418

                     13                     14                     15
                      A                      A                      A
 Frequencies --    594.2249               647.6781               721.0224
 Red. masses --      4.7517                 1.2882                 4.4846
 Frc consts  --      0.9886                 0.3184                 1.3736
 IR Inten    --      0.3985                59.9710                 2.7520

                     16                     17                     18
                      A                      A                      A
 Frequencies --    739.9965               780.7553               783.2203
 Red. masses --      6.2832                 6.5876                 9.3147
 Frc consts  --      2.0272                 2.3660                 3.3666
 IR Inten    --     10.2901                15.1433                25.7490

                     19                     20                     21
                      A                      A                      A
 Frequencies --    834.5978               878.5180               940.1700
 Red. masses --      1.1337                 4.3894                 5.8476
 Frc consts  --      0.4653                 1.9960                 3.0454
 IR Inten    --     19.7150                12.6474                11.7082

                     22                     23                     24
                      A                      A                      A
 Frequencies --    977.8192               988.3678              1014.4627
 Red. masses --      3.0659                 1.3978                 1.6543
 Frc consts  --      1.7271                 0.8045                 1.0031
 IR Inten    --     20.9983                 2.2543                18.8816

                     25                     26                     27
                      A                      A                      A
 Frequencies --   1056.7444              1080.6664              1120.3348
 Red. masses --      1.1012                 1.4186                 3.7674
 Frc consts  --      0.7246                 0.9761                 2.7860
 IR Inten    --      1.5115                 1.9542                 7.3549

                     28                     29                     30
                      A                      A                      A
 Frequencies --   1130.3425              1145.9850              1165.6964
 Red. masses --      1.4621                 1.3122                 1.6023
 Frc consts  --      1.1007                 1.0154                 1.2828
 IR Inten    --      0.7731                 1.5244                 3.8315

                     31                     32                     33
                      A                      A                      A
 Frequencies --   1190.6085              1204.8579              1264.4120
 Red. masses --      1.4102                 2.8128                 2.6637
 Frc consts  --      1.1778                 2.4058                 2.5091
 IR Inten    --      1.9392                30.8233                 8.1298

                     34                     35                     36
                      A                      A                      A
 Frequencies --   1344.6090              1387.5205              1429.0895
 Red. masses --      1.7043                 2.9264                 2.7558
 Frc consts  --      1.8154                 3.3195                 3.3160
 IR Inten    --     39.5998               100.8943                43.4838

                     37                     38                     39
                      A                      A                      A
 Frequencies --   1450.3701              1493.7098              1515.2874
 Red. masses --      1.2844                 3.3726                 1.0455
 Frc consts  --      1.5919                 4.4335                 1.4144
 IR Inten    --      0.2716                32.3004                 9.6180

                     40                     41                     42
                      A                      A                      A
 Frequencies --   1517.3147              1527.5290              1547.5983
 Red. masses --      1.0787                 1.1053                 1.3474
 Frc consts  --      1.4632                 1.5196                 1.9014
 IR Inten    --      0.9878                25.7808                94.1336

                     43                     44                     45
                      A                      A                      A
 Frequencies --   1593.2431              1678.6139              1818.2157
 Red. masses --      3.5037                 7.7063                10.0189
 Frc consts  --      5.2401                12.7938                19.5147
 IR Inten    --    586.4992                97.1711               721.2582

                     46                     47                     48
                      A                      A                      A
 Frequencies --   3038.5827              3090.3820              3123.9741
 Red. masses --      1.0404                 1.0974                 1.0977
 Frc consts  --      5.6600                 6.1751                 6.3115
 IR Inten    --     37.1082                19.3616                 1.3403

                     49                     50                     51
                      A                      A                      A
 Frequencies --   3128.3933              3131.2263              3143.3511
 Red. masses --      1.0920                 1.0527                 1.0534
 Frc consts  --      6.2968                 6.0810                 6.1322
 IR Inten    --     56.0276                 9.3417                19.0325

                     52                     53                     54
                      A                      A                      A
 Frequencies --   3220.2863              3235.3851              3597.1380
 Red. masses --      1.1202                 1.1203                 1.0773
 Frc consts  --      6.8446                 6.9094                 8.2130
 IR Inten    --      3.4249                15.8505                36.1683

 - Thermochemistry -
 -------------------
 Temperature   298.150 Kelvin.  Pressure   1.00000 Atm.
 Atom     1 has atomic number  6 and mass  12.00000

 Molecular mass:   151.07456 amu.
 Principal axes and moments of inertia in atomic units:
                           1         2         3
     Eigenvalues --   985.433901901.782212793.60120
           X            0.99993   0.01019  -0.00539
           Y           -0.01020   0.99995  -0.00232
           Z            0.00536   0.00238   0.99998
 This molecule is an asymmetric top.
 Rotational symmetry number  1.
 Warning -- assumption of classical behavior for rotation
           may cause significant error
 Rotational temperatures (Kelvin)      0.08789     0.04554     0.03100
 Rotational constants (GHZ):           1.83142     0.94897     0.64603
 Zero-point vibrational energy     422423.6 (Joules/Mol)
                                  100.96165 (Kcal/Mol)
 Warning -- explicit consideration of  13 degrees of freedom as
           vibrations may cause significant error
 Vibrational temperatures:    125.18   147.40   177.42   198.05   249.74
          (Kelvin)            379.96   411.08   456.92   598.88   645.50
                              669.11   762.68   854.96   931.86  1037.39
                             1064.69  1123.33  1126.88  1200.80  1263.99
                             1352.69  1406.86  1422.04  1459.59  1520.42
                             1554.84  1611.91  1626.31  1648.82  1677.18
                             1713.02  1733.52  1819.21  1934.59  1996.33
                             2056.14  2086.76  2149.12  2180.16  2183.08
                             2197.77  2226.65  2292.32  2415.15  2616.01
                             4371.84  4446.37  4494.70  4501.06  4505.14
                             4522.58  4633.27  4655.00  5175.48

 Zero-point correction=                           0.160893 (Hartree/Particle)
 Thermal correction to Energy=                    0.170695
 Thermal correction to Enthalpy=                  0.171639
 Thermal correction to Gibbs Free Energy=         0.125515
 Sum of electronic and zero-point Energies=           -511.479796
 Sum of electronic and thermal Energies=              -511.469994
 Sum of electronic and thermal Enthalpies=            -511.469050
 Sum of electronic and thermal Free Energies=         -511.515174

                     E (Thermal)             CV                S
                      KCal/Mol        Cal/Mol-Kelvin    Cal/Mol-Kelvin
 Total                  107.112             36.661             97.075
 Electronic               0.000              0.000              0.000
 Translational            0.889              2.981             40.948
 Rotational               0.889              2.981             30.038
 Vibrational            105.335             30.699             26.089
 Vibration     1          0.601              1.958              3.726
 Vibration     2          0.605              1.947              3.407
 Vibration     3          0.610              1.930              3.048
 Vibration     4          0.614              1.916              2.836
 Vibration     5          0.627              1.875              2.396
 Vibration     6          0.671              1.739              1.635
 Vibration     7          0.684              1.700              1.499
 Vibration     8          0.704              1.640              1.323
 Vibration     9          0.779              1.435              0.905
 Vibration    10          0.808              1.364              0.800
 Vibration    11          0.823              1.328              0.752
 Vibration    12          0.885              1.183              0.587
 Vibration    13          0.952              1.044              0.460

 Normal termination of Gaussian 16 at Wed Feb 24 13:51:04 2021.

 ----------------------------------------------------------------------
 # B3LYP/6-311++G(d,p) empiricaldispersion=gd3bj scf=xqc pop=npa geom=c
 heck
 ----------------------------------------------------------------------

 --------------------------------------
 CID_53655600_JID_1474_Energie_neutraal
 --------------------------------------
 Structure from the checkpoint file:  "JID_1474.chk"
 Charge =  0 Multiplicity = 1

 SCF Done:  E(RB3LYP) =  -511.783804278     A.U. after   16 cycles
 Normal termination of Gaussian 16 at Wed Feb 24 13:52:48 2021.

 ----------------------------------------------------------------------
 # B3LYP/6-311++G(d,p) empiricaldispersion=gd3bj scf=xqc pop=npa geom=c
 heck
 ----------------------------------------------------------------------

 ------------------------------------
 CID_53655600_JID_1474_Energie_kation
 ------------------------------------
 Structure from the checkpoint file:  "JID_1474.chk"
 Charge =  1 Multiplicity = 2

 SCF Done:  E(UB3LYP) =  -511.485895448     A.U. after   22 cycles
 Normal termination of Gaussian 16 at Wed Feb 24 13:56:11 2021.
 Gaussian 16:  ES64L-G16RevA.03 25-Dec-2016

 ----------------------------------------------------------------------
 # B3LYP/6-311++G(d,p) empiricaldispersion=gd3bj scf=xqc pop=npa geom=c
 heck
 ----------------------------------------------------------------------

 -----------------------------------
 CID_53655600_JID_1474_Energie_anion
 -----------------------------------
 Structure from the checkpoint file:  "JID_1474.chk"
 Charge = -1 Multiplicity = 2

                         Standard orientation:
 ---------------------------------------------------------------------
 Center     Atomic      Atomic             Coordinates (Angstroms)
 Number     Number       Type             X           Y           Z
 ---------------------------------------------------------------------
      1          6           0       -1.156026    2.334390   -0.136065
      2          6           0       -0.097248    1.268465   -0.053601
      3          6           0       -0.369986   -0.076404   -0.221158
      4          7           0        0.662665   -0.958684   -0.182210
      5          6           0        2.032862   -0.610088    0.018058
      6          8           0        2.862555   -1.502462    0.018087
      7          7           0        2.282666    0.734446    0.201993
      8          6           0        1.272663    1.572286    0.156380
      9          7           0       -1.631503   -0.579623   -0.511848
     10          6           0       -2.160550   -1.764040    0.159405
     11          6           0       -2.748297   -0.414952    0.413836
     12          1           0       -1.790280    2.203270   -1.020368
     13          1           0       -1.818368    2.349853    0.739247
     14          1           0       -0.688519    3.321600   -0.204424
     15          1           0        0.493530   -1.945033   -0.339948
     16          1           0        1.531267    2.624831    0.296020
     17          1           0       -2.672364   -2.473110   -0.485214
     18          1           0       -1.564652   -2.204960    0.957565
     19          1           0       -2.536164    0.042030    1.377678
     20          1           0       -3.692193   -0.129701   -0.041924
 ---------------------------------------------------------------------

 SCF Done:  E(UB3LYP) =  -511.786441864     A.U. after   33 cycles
 SCF Done:  E(UB3LYP) =  -511.786441864     a.u. after    1 cycles

 The electronic state is 2-A.
 Alpha  occ. eigenvalues --  -18.94651 -14.22924 -14.22672 -14.15035 -10.15340
 Alpha  occ. eigenvalues --  -10.12154 -10.10640 -10.10311 -10.07099 -10.06069
 Alpha  occ. eigenvalues --  -10.04782  -0.91623  -0.88926  -0.82315  -0.76382
 Alpha  occ. eigenvalues --   -0.68290  -0.61719  -0.56048  -0.53443  -0.51613
 Alpha  occ. eigenvalues --   -0.48182  -0.43350  -0.40113  -0.39783  -0.38579
 Alpha  occ. eigenvalues --   -0.32494  -0.31746  -0.30088  -0.29493  -0.28416
 Alpha  occ. eigenvalues --   -0.28051  -0.27655  -0.24832  -0.23989  -0.23348
 Alpha  occ. eigenvalues --   -0.19462  -0.15662  -0.13961  -0.12185  -0.08932
 Alpha  occ. eigenvalues --    0.04288
 Alpha virt. eigenvalues --    0.07093   0.07988   0.09133   0.09251   0.11156
 Alpha virt. eigenvalues --    0.11612   0.11945   0.12844   0.13566   0.14306
 Alpha virt. eigenvalues --    0.14796   0.16119   0.16459   0.17494   0.17809

  Beta  occ. eigenvalues --  -18.94643 -14.22916 -14.22500 -14.14856 -10.15339
  Beta  occ. eigenvalues --  -10.11802 -10.10583 -10.10215 -10.06839 -10.06056
  Beta  occ. eigenvalues --  -10.04891  -0.91477  -0.88800  -0.82068  -0.75949
  Beta  occ. eigenvalues --   -0.68092  -0.61512  -0.55832  -0.53217  -0.51299
  Beta  occ. eigenvalues --   -0.48010  -0.43203  -0.39929  -0.39645  -0.38378
  Beta  occ. eigenvalues --   -0.31997  -0.31610  -0.29878  -0.29464  -0.28330
  Beta  occ. eigenvalues --   -0.27973  -0.27588  -0.24650  -0.23844  -0.22606
  Beta  occ. eigenvalues --   -0.18314  -0.15191  -0.13843  -0.12011  -0.08382
  Beta virt. eigenvalues --    0.07442   0.08240   0.09523   0.09762   0.09836
  Beta virt. eigenvalues --    0.11244   0.11946   0.12060   0.12971   0.14019
  Beta virt. eigenvalues --    0.14576   0.15027   0.16091   0.16444   0.17504

 Mulliken charges and spin densities:
               1          2
     1  C   -0.856783   0.183911
     2  C    0.237322   0.661542
     3  C    0.154805  -0.388367
     4  N   -0.467604   0.090257
     5  C    0.143061   0.080886
     6  O   -0.401397   0.003674
     7  N   -0.261106   0.071995
     8  C   -0.217438   0.000201
     9  N   -0.227395   0.270319
    10  C    0.363926  -0.702518
    11  C    1.072383  -1.298726
    12  H    0.177145  -0.017093
    13  H    0.035729   0.102120
    14  H   -0.000051   0.124711
    15  H    0.273237   0.032304
    16  H    0.154202  -0.026879
    17  H   -0.352614   0.508977
    18  H   -0.002699   0.152783
    19  H   -0.231169   0.391543
    20  H   -0.593553   0.758360
 Sum of Mulliken charges =  -1.00000   1.00000

 Dipole moment (field-independent basis, Debye):
    X=             -1.1871    Y=              2.0407    Z=             -0.7996  Tot=              2.4926
 Quadrupole moment (field-independent basis, Debye-Ang):
   XX=           -134.5754   YY=            -84.8287   ZZ=            -81.7502
   XY=             -1.8459   XZ=              0.9393   YZ=              0.8785

 Summary of Natural Population Analysis:

                                       Natural Population
                Natural  -----------------------------------------------
    Atom  No    Charge         Core      Valence    Rydberg      Total
 -----------------------------------------------------------------------
      C    1   -0.28585      0.99965     2.28188    0.00432     3.28585
      C    2   -0.12805      0.99946     2.11950    0.00908     3.12805
      C    3    0.28040      0.99943     1.70704    0.01312     2.71960
      N    4   -0.27958      0.99963     2.77223    0.00772     3.77958
      C    5    0.38913      0.99970     1.58575    0.02542     2.61087
      O    6   -0.33991      0.99987     3.33399    0.00605     4.33991
      N    7   -0.27033      0.99967     2.75822    0.01245     3.77033
      C    8    0.10933      0.99959     1.87640    0.01468     2.89067
      N    9   -0.24871      0.99967     2.73637    0.01267     3.74871
      C   10   -0.10054      0.99963     2.08881    0.01210     3.10054
      C   11   -0.08814      0.99963     2.07567    0.01283     3.08814
      H   12    0.10044      0.00000     0.39822    0.00134     0.39956
      H   13    0.09678      0.00000     0.40167    0.00155     0.40322
      H   14    0.09878      0.00000     0.40028    0.00093     0.40122
      H   15    0.19582      0.00000     0.30120    0.00299     0.30418
      H   16    0.07551      0.00000     0.42283    0.00167     0.42449
      H   17    0.09851      0.00000     0.40022    0.00128     0.40149
      H   18    0.09710      0.00000     0.40144    0.00146     0.40290
      H   19    0.10003      0.00000     0.39798    0.00199     0.39997
      H   20    0.09929      0.00000     0.39837    0.00234     0.40071
 =======================================================================
   * Total *    0.00000     10.99594    28.85807    0.14599    40.00000

 Normal termination of Gaussian 16 at Wed Feb 24 14:01:08 2021.
