 Gaussian 16, Revision A.03,

 -----------------------------------------------------------
 # opt freq B3LYP/6-31G(d) empiricaldispersion=gd3bj scf=xqc
 -----------------------------------------------------------

 ------------------------------
 CID_87274671_JID_6624_neutraal
 ------------------------------
 Symbolic Z-matrix:
 Charge =  0 Multiplicity = 1

 SCF Done:  E(RB3LYP) =  -775.207831001     A.U. after   15 cycles
 SCF Done:  E(RB3LYP) =  -775.238714561     A.U. after   15 cycles
 SCF Done:  E(RB3LYP) =  -775.246269717     A.U. after   15 cycles
 SCF Done:  E(RB3LYP) =  -775.244604663     A.U. after   16 cycles
 SCF Done:  E(RB3LYP) =  -775.249868370     A.U. after   14 cycles
 SCF Done:  E(RB3LYP) =  -775.252590714     A.U. after   15 cycles
 SCF Done:  E(RB3LYP) =  -775.254007962     A.U. after   15 cycles
 SCF Done:  E(RB3LYP) =  -775.255554602     A.U. after   13 cycles
 SCF Done:  E(RB3LYP) =  -775.256609537     A.U. after   13 cycles
 SCF Done:  E(RB3LYP) =  -775.257984742     A.U. after   16 cycles
 SCF Done:  E(RB3LYP) =  -775.267361784     A.U. after    9 cycles
 SCF Done:  E(RB3LYP) =  -775.267362749     A.U. after    9 cycles
 SCF Done:  E(RB3LYP) =  -775.267363269     A.U. after    8 cycles
 SCF Done:  E(RB3LYP) =  -775.267363457     A.U. after    8 cycles
 SCF Done:  E(RB3LYP) =  -775.267363558     A.U. after    7 cycles
 Optimization completed.
    -- Stationary point found.
 Normal termination of Gaussian 16 at Fri Dec 11 00:42:24 2020.

 --------------------------------------------------------------------
 #N Geom=AllCheck Guess=TCheck SCRF=Check GenChk RB3LYP/6-31G(d) Freq
 --------------------------------------------------------------------

 Structure from the checkpoint file:  "JID_6624.chk"
 ------------------------------
 CID_87274671_JID_6624_neutraal
 ------------------------------
 Charge =  0 Multiplicity = 1

 SCF Done:  E(RB3LYP) =  -775.267363558     A.U. after    1 cycles

  Exact polarizability: 158.987  19.026 145.926  14.147 -12.215  69.109
 Approx polarizability: 281.877  60.751 271.944  24.247 -23.700 101.248

                      1                      2                      3
                      A                      A                      A
 Frequencies --     37.3343                38.6123                40.4170
 Red. masses --     11.9735                11.6375                 9.3688
 Frc consts  --      0.0098                 0.0102                 0.0090
 IR Inten    --      0.2491                 0.3401                 0.0650

                      4                      5                      6
                      A                      A                      A
 Frequencies --     68.6180                74.7964                88.0765
 Red. masses --      7.8227                 9.3976                 8.2119
 Frc consts  --      0.0217                 0.0310                 0.0375
 IR Inten    --      0.0365                 0.2702                 1.0556

                      7                      8                      9
                      A                      A                      A
 Frequencies --    108.6033               123.9800               129.5224
 Red. masses --      8.7274                 7.7237                 6.1838
 Frc consts  --      0.0606                 0.0699                 0.0611
 IR Inten    --      1.1096                 2.4875                 4.3131

                     10                     11                     12
                      A                      A                      A
 Frequencies --    168.1298               200.4874               240.3713
 Red. masses --      5.6769                 1.0756                 1.3455
 Frc consts  --      0.0945                 0.0255                 0.0458
 IR Inten    --      1.5582                 1.2170                66.7559

                     13                     14                     15
                      A                      A                      A
 Frequencies --    253.4412               303.5000               315.4319
 Red. masses --      2.4856                 7.8871                 5.3400
 Frc consts  --      0.0941                 0.4280                 0.3130
 IR Inten    --     15.8781                 3.0715                 1.0339

                     16                     17                     18
                      A                      A                      A
 Frequencies --    322.3895               429.9266               481.7006
 Red. masses --      4.0677                 8.0728                 5.5722
 Frc consts  --      0.2491                 0.8791                 0.7618
 IR Inten    --      5.4654                 2.8717                 2.3553

                     19                     20                     21
                      A                      A                      A
 Frequencies --    536.7749               547.3553               548.2026
 Red. masses --      5.5159                 6.4789                 6.1824
 Frc consts  --      0.9364                 1.1436                 1.0947
 IR Inten    --     13.6109                 4.9594                 7.1479

                     22                     23                     24
                      A                      A                      A
 Frequencies --    557.2204               563.8168               578.3147
 Red. masses --      9.6633                 4.6260                 3.3641
 Frc consts  --      1.7678                 0.8664                 0.6629
 IR Inten    --     27.5742                 1.5864                34.4492

                     25                     26                     27
                      A                      A                      A
 Frequencies --    595.0092               610.6047               636.3337
 Red. masses --      6.6945                 5.9076                11.4878
 Frc consts  --      1.3964                 1.2977                 2.7407
 IR Inten    --     11.7650                 1.8508                14.2054

                     28                     29                     30
                      A                      A                      A
 Frequencies --    672.5016               733.1566               797.3137
 Red. masses --      8.0555                 4.7636                 1.3217
 Frc consts  --      2.1465                 1.5086                 0.4951
 IR Inten    --     41.4460                 4.3180                24.8774

                     31                     32                     33
                      A                      A                      A
 Frequencies --    808.7963               851.2849               909.4234
 Red. masses --      6.1979                 1.4383                 1.3444
 Frc consts  --      2.3888                 0.6141                 0.6551
 IR Inten    --      7.1332               282.1719                 5.1491

                     34                     35                     36
                      A                      A                      A
 Frequencies --    946.2360               970.1369              1045.8009
 Red. masses --      3.4988                 1.2549                 1.8506
 Frc consts  --      1.8457                 0.6959                 1.1925
 IR Inten    --     34.0085                 0.5405                 4.0373

                     37                     38                     39
                      A                      A                      A
 Frequencies --   1075.0756              1105.4863              1161.7670
 Red. masses --      1.4947                 2.2670                 3.2790
 Frc consts  --      1.0179                 1.6324                 2.6076
 IR Inten    --      3.3563                15.6073                 9.0113

                     40                     41                     42
                      A                      A                      A
 Frequencies --   1196.8009              1226.4124              1290.3697
 Red. masses --      1.2848                 2.9108                 1.9608
 Frc consts  --      1.0843                 2.5795                 1.9235
 IR Inten    --      3.6241                27.3795                 0.7116

                     43                     44                     45
                      A                      A                      A
 Frequencies --   1334.4391              1341.1626              1443.7357
 Red. masses --     10.1882                 8.3701                 1.2861
 Frc consts  --     10.6892                 8.8704                 1.5795
 IR Inten    --      1.4622                 3.5929                 3.0207

                     46                     47                     48
                      A                      A                      A
 Frequencies --   1447.3240              1486.7864              1516.4935
 Red. masses --      2.6847                 3.4754                 1.0506
 Frc consts  --      3.3134                 4.5264                 1.4235
 IR Inten    --      6.4770                 1.4123                 7.8263

                     49                     50                     51
                      A                      A                      A
 Frequencies --   1527.4838              1552.2889              1578.3764
 Red. masses --      1.1512                 5.3759                 6.9939
 Frc consts  --      1.5826                 7.6322                10.2657
 IR Inten    --      2.4931                41.9981                81.2433

                     52                     53                     54
                      A                      A                      A
 Frequencies --   1632.7696              1648.0864              2341.9727
 Red. masses --      7.1421                 5.7746                10.5630
 Frc consts  --     11.2183                 9.2413                34.1351
 IR Inten    --     40.5561                20.7589               205.2406

                     55                     56                     57
                      A                      A                      A
 Frequencies --   2349.8633              2385.4971              3048.9769
 Red. masses --     12.6910                12.6212                 1.0384
 Frc consts  --     41.2886                42.3165                 5.6877
 IR Inten    --    927.4400              1802.3870                12.0599

                     58                     59                     60
                      A                      A                      A
 Frequencies --   3103.8507              3141.7947              3197.8179
 Red. masses --      1.1008                 1.1002                 1.0875
 Frc consts  --      6.2482                 6.3984                 6.5520
 IR Inten    --      6.9926                12.3139                 2.9019

                     61                     62                     63
                      A                      A                      A
 Frequencies --   3212.6747              3229.4172              3604.7736
 Red. masses --      1.0925                 1.0950                 1.0834
 Frc consts  --      6.6437                 6.7284                 8.2946
 IR Inten    --     12.1247                 4.2061               179.1715

 - Thermochemistry -
 -------------------
 Temperature   298.150 Kelvin.  Pressure   1.00000 Atm.
 Atom     1 has atomic number  6 and mass  12.00000

 Molecular mass:   217.04874 amu.
 Principal axes and moments of inertia in atomic units:
                           1         2         3
     Eigenvalues --  3054.918513481.821484463.12519
           X            0.99941   0.02449   0.02409
           Y           -0.02365   0.99913  -0.03443
           Z           -0.02491   0.03384   0.99912
 This molecule is an asymmetric top.
 Rotational symmetry number  1.
 Warning -- assumption of classical behavior for rotation
           may cause significant error
 Rotational temperatures (Kelvin)      0.02835     0.02488     0.01941
 Rotational constants (GHZ):           0.59077     0.51833     0.40437
 Zero-point vibrational energy     415792.7 (Joules/Mol)
                                   99.37685 (Kcal/Mol)
 Warning -- explicit consideration of  26 degrees of freedom as
           vibrations may cause significant error
 Vibrational temperatures:     53.72    55.55    58.15    98.73   107.62
          (Kelvin)            126.72   156.26   178.38   186.35   241.90
                              288.46   345.84   364.65   436.67   453.84
                              463.85   618.57   693.06   772.30   787.52
                              788.74   801.72   811.21   832.07   856.09
                              878.52   915.54   967.58  1054.85  1147.16
                             1163.68  1224.81  1308.46  1361.42  1395.81
                             1504.67  1546.79  1590.55  1671.52  1721.93
                             1764.53  1856.55  1919.96  1929.63  2077.21
                             2082.38  2139.15  2181.90  2197.71  2233.40
                             2270.93  2349.19  2371.23  3369.58  3380.93
                             3432.20  4386.80  4465.75  4520.34  4600.95
                             4622.32  4646.41  5186.47

 Zero-point correction=                           0.158367 (Hartree/Particle)
 Thermal correction to Energy=                    0.174449
 Thermal correction to Enthalpy=                  0.175394
 Thermal correction to Gibbs Free Energy=         0.112846
 Sum of electronic and zero-point Energies=           -775.108996
 Sum of electronic and thermal Energies=              -775.092914
 Sum of electronic and thermal Enthalpies=            -775.091970
 Sum of electronic and thermal Free Energies=         -775.154518

                     E (Thermal)             CV                S
                      KCal/Mol        Cal/Mol-Kelvin    Cal/Mol-Kelvin
 Total                  109.469             55.679            131.643
 Electronic               0.000              0.000              0.000
 Translational            0.889              2.981             42.028
 Rotational               0.889              2.981             32.229
 Vibrational            107.691             49.718             57.386
 Vibration     1          0.594              1.982              5.396
 Vibration     2          0.594              1.981              5.329
 Vibration     3          0.594              1.981              5.239
 Vibration     4          0.598              1.969              4.193
 Vibration     5          0.599              1.966              4.023
 Vibration     6          0.601              1.958              3.702
 Vibration     7          0.606              1.942              3.294
 Vibration     8          0.610              1.929              3.037
 Vibration     9          0.612              1.924              2.953
 Vibration    10          0.625              1.882              2.456
 Vibration    11          0.638              1.839              2.129
 Vibration    12          0.657              1.779              1.800
 Vibration    13          0.665              1.757              1.707
 Vibration    14          0.695              1.667              1.398
 Vibration    15          0.703              1.644              1.334
 Vibration    16          0.707              1.631              1.298
 Vibration    17          0.791              1.405              0.859
 Vibration    18          0.838              1.291              0.705
 Vibration    19          0.892              1.169              0.572
 Vibration    20          0.903              1.145              0.550
 Vibration    21          0.903              1.144              0.548
 Vibration    22          0.913              1.124              0.529
 Vibration    23          0.920              1.110              0.516
 Vibration    24          0.935              1.078              0.488
 Vibration    25          0.953              1.042              0.458
 Vibration    26          0.970              1.009              0.432

                           ! Non-Optimized Parameters !
 Normal termination of Gaussian 16 at Fri Dec 11 00:49:46 2020.

 ----------------------------------------------------------------------
 # B3LYP/6-311++G(d,p) empiricaldispersion=gd3bj scf=xqc pop=npa geom=c
 heck
 ----------------------------------------------------------------------

 --------------------------------------
 CID_87274671_JID_6624_Energie_neutraal
 --------------------------------------
 Structure from the checkpoint file:  "JID_6624.chk"
 Charge =  0 Multiplicity = 1

 SCF Done:  E(RB3LYP) =  -775.494078848     A.U. after   16 cycles
 Normal termination of Gaussian 16 at Fri Dec 11 00:52:16 2020.

 ----------------------------------------------------------------------
 # B3LYP/6-311++G(d,p) empiricaldispersion=gd3bj scf=xqc pop=npa geom=c
 heck
 ----------------------------------------------------------------------

 ------------------------------------
 CID_87274671_JID_6624_Energie_kation
 ------------------------------------
 Structure from the checkpoint file:  "JID_6624.chk"
 Charge =  1 Multiplicity = 2

 SCF Done:  E(UB3LYP) =  -775.174491957     A.U. after   25 cycles
 Normal termination of Gaussian 16 at Fri Dec 11 00:57:33 2020.
 Gaussian 16:  ES64L-G16RevA.03 25-Dec-2016

 ----------------------------------------------------------------------
 # B3LYP/6-311++G(d,p) empiricaldispersion=gd3bj scf=xqc pop=npa geom=c
 heck
 ----------------------------------------------------------------------

 -----------------------------------
 CID_87274671_JID_6624_Energie_anion
 -----------------------------------
 Structure from the checkpoint file:  "JID_6624.chk"
 Charge = -1 Multiplicity = 2

                         Standard orientation:
 ---------------------------------------------------------------------
 Center     Atomic      Atomic             Coordinates (Angstroms)
 Number     Number       Type             X           Y           Z
 ---------------------------------------------------------------------
      1          6           0        1.307453   -1.974977    1.352216
      2          6           0        1.249285   -0.507521    1.026071
      3          6           0        0.027675    0.093842    0.662918
      4          6           0       -0.032796    1.468819    0.346775
      5          6           0        1.134493    2.237608    0.374028
      6          6           0        2.346600    1.645663    0.723223
      7          6           0        2.397460    0.288816    1.047935
      8          7           0       -1.227896    2.076424   -0.015571
      9          6           0       -2.378224    1.697996   -0.152406
     10          8           0       -3.523383    1.514226   -0.331135
     11          7           0       -1.165590   -0.613018    0.593075
     12          6           0       -1.574458   -1.753767    0.545099
     13          8           0       -2.107881   -2.798365    0.507419
     14          6           0        1.035746   -0.821705   -2.132456
     15          7           0        1.656002    0.182350   -2.425334
     16          8           0        0.453087   -1.836879   -1.996988
     17          1           0        0.620528   -2.235036    2.166753
     18          1           0        1.033437   -2.584576    0.482771
     19          1           0        2.315814   -2.263363    1.659465
     20          1           0        1.067341    3.290482    0.123696
     21          1           0        3.251814    2.244230    0.748180
     22          1           0        3.344423   -0.167594    1.319778
     23          1           0        1.875039    0.915064   -1.760618
 ---------------------------------------------------------------------

 SCF Done:  E(UB3LYP) =  -775.495957132     A.U. after   33 cycles
 SCF Done:  E(UB3LYP) =  -775.495957261     a.u. after    2 cycles

 The electronic state is 2-A.
 Alpha  occ. eigenvalues --  -19.06232 -19.04118 -19.03621 -14.21645 -14.21430
 Alpha  occ. eigenvalues --  -14.21424 -10.19940 -10.17315 -10.16608 -10.08003
 Alpha  occ. eigenvalues --  -10.07193 -10.05629 -10.05521 -10.04392 -10.03218
 Alpha  occ. eigenvalues --  -10.02674  -0.99795  -0.98096  -0.97662  -0.84688
 Alpha  occ. eigenvalues --   -0.82733  -0.82213  -0.72412  -0.65386  -0.62976
 Alpha  occ. eigenvalues --   -0.58085  -0.52717  -0.49323  -0.48133  -0.43168
 Alpha  occ. eigenvalues --   -0.41297  -0.40027  -0.38313  -0.37960  -0.36804
 Alpha  occ. eigenvalues --   -0.35730  -0.35041  -0.34235  -0.33435  -0.33085
 Alpha  occ. eigenvalues --   -0.32266  -0.31570  -0.30361  -0.29434  -0.27639
 Alpha  occ. eigenvalues --   -0.26354  -0.24589  -0.23109  -0.21901  -0.20575
 Alpha  occ. eigenvalues --   -0.19362  -0.18756  -0.18448  -0.17741  -0.11621
 Alpha  occ. eigenvalues --   -0.09961   0.05418
 Alpha virt. eigenvalues --    0.08000   0.09041   0.09770   0.10517   0.10858
 Alpha virt. eigenvalues --    0.11299   0.11762   0.12146   0.13052   0.13459
 Alpha virt. eigenvalues --    0.13861   0.14448   0.15189   0.15539   0.16478

  Beta  occ. eigenvalues --  -19.06227 -19.04014 -19.03467 -14.21637 -14.21556
  Beta  occ. eigenvalues --  -14.21504 -10.19934 -10.17152 -10.16352 -10.07766
  Beta  occ. eigenvalues --  -10.06759 -10.05668 -10.05521 -10.04473 -10.03076
  Beta  occ. eigenvalues --  -10.02349  -0.99781  -0.97886  -0.97351  -0.84499
  Beta  occ. eigenvalues --   -0.82718  -0.82087  -0.72051  -0.65180  -0.62321
  Beta  occ. eigenvalues --   -0.57787  -0.52254  -0.49116  -0.48110  -0.43023
  Beta  occ. eigenvalues --   -0.40981  -0.40013  -0.38112  -0.37696  -0.36642
  Beta  occ. eigenvalues --   -0.35334  -0.35011  -0.33703  -0.32892  -0.32708
  Beta  occ. eigenvalues --   -0.32135  -0.31378  -0.30161  -0.29353  -0.27553
  Beta  occ. eigenvalues --   -0.25363  -0.24422  -0.22986  -0.21788  -0.19984
  Beta  occ. eigenvalues --   -0.19043  -0.18447  -0.18224  -0.17714  -0.10899
  Beta  occ. eigenvalues --   -0.08281
  Beta virt. eigenvalues --    0.08005   0.09067   0.09816   0.10624   0.10953
  Beta virt. eigenvalues --    0.11209   0.11392   0.11763   0.12187   0.13201
  Beta virt. eigenvalues --    0.13488   0.13936   0.14468   0.15192   0.15519

 Mulliken charges and spin densities:
               1          2
     1  C   -0.355567  -0.161465
     2  C    0.207896   0.126171
     3  C   -0.320445   0.510798
     4  C   -0.339538   0.232029
     5  C    0.157221  -0.383172
     6  C   -0.480483   0.179246
     7  C   -0.110746  -0.150360
     8  N   -0.046366  -0.040403
     9  C    0.404969   0.088011
    10  O   -0.332413   0.030851
    11  N   -0.085622  -0.075905
    12  C    0.246765   0.118421
    13  O   -0.308302   0.047482
    14  C    0.266043  -0.011396
    15  N   -0.330185  -0.011234
    16  O   -0.247746  -0.005744
    17  H    0.168470  -0.009010
    18  H    0.160678   0.019244
    19  H    0.084909   0.047292
    20  H    0.105688   0.049543
    21  H   -0.126532   0.235750
    22  H   -0.003227   0.107490
    23  H    0.284533   0.056359
 Sum of Mulliken charges =  -1.00000   1.00000

 Dipole moment (field-independent basis, Debye):
    X=              1.3882    Y=             -0.3487    Z=              0.5265  Tot=              1.5251
 Quadrupole moment (field-independent basis, Debye-Ang):
   XX=           -129.8688   YY=           -117.6212   ZZ=           -108.2338
   XY=             -6.3712   XZ=             -0.1884   YZ=             -1.7077

 Summary of Natural Population Analysis:

                                       Natural Population
                Natural  -----------------------------------------------
    Atom  No    Charge         Core      Valence    Rydberg      Total
 -----------------------------------------------------------------------
      C    1   -0.29599      0.99963     2.29129    0.00507     3.29599
      C    2   -0.03123      0.99949     2.02233    0.00940     3.03123
      C    3    0.11924      0.99935     1.87073    0.01067     2.88076
      C    4    0.09662      0.99940     1.89094    0.01305     2.90338
      C    5   -0.13333      0.99954     2.12259    0.01120     3.13333
      C    6   -0.06298      0.99958     2.05233    0.01107     3.06298
      C    7   -0.09022      0.99952     2.07937    0.01132     3.09022
      N    8   -0.28683      0.99949     2.77886    0.00848     3.78683
      C    9    0.44977      0.99962     1.53256    0.01805     2.55023
      O   10   -0.25985      0.99986     3.25267    0.00732     4.25985
      N   11   -0.29700      0.99949     2.78852    0.00899     3.79700
      C   12    0.46280      0.99960     1.52028    0.01732     2.53720
      O   13   -0.25613      0.99987     3.24942    0.00684     4.25613
      C   14    0.42027      0.99971     1.56017    0.01985     2.57973
      N   15   -0.38250      0.99958     2.87539    0.00754     3.88250
      O   16   -0.26330      0.99986     3.25655    0.00689     4.26330
      H   17    0.10089      0.00000     0.39803    0.00108     0.39911
      H   18    0.10782      0.00000     0.39061    0.00158     0.39218
      H   19    0.10012      0.00000     0.39906    0.00082     0.39988
      H   20    0.10001      0.00000     0.39895    0.00104     0.39999
      H   21    0.09289      0.00000     0.40621    0.00089     0.40711
      H   22    0.09163      0.00000     0.40743    0.00094     0.40837
      H   23    0.21732      0.00000     0.28044    0.00223     0.28268
 =======================================================================
   * Total *    0.00000     15.99361    39.82474    0.18165    56.00000

 Normal termination of Gaussian 16 at Fri Dec 11 01:11:36 2020.
