 Gaussian 16, Revision A.03,

 -----------------------------------------------------------
 # opt freq B3LYP/6-31G(d) empiricaldispersion=gd3bj scf=xqc
 -----------------------------------------------------------

 ------------------------------
 CID_54264619_JID_4740_neutraal
 ------------------------------
 Symbolic Z-matrix:
 Charge =  0 Multiplicity = 1

 SCF Done:  E(RB3LYP) =  -705.294509122     A.U. after   15 cycles
 SCF Done:  E(RB3LYP) =  -705.299899562     A.U. after   13 cycles
 SCF Done:  E(RB3LYP) =  -705.300344733     A.U. after   13 cycles
 SCF Done:  E(RB3LYP) =  -705.300151512     A.U. after   12 cycles
 SCF Done:  E(RB3LYP) =  -705.300760281     A.U. after   12 cycles
 SCF Done:  E(RB3LYP) =  -705.300647965     A.U. after   12 cycles
 SCF Done:  E(RB3LYP) =  -705.300908519     A.U. after   12 cycles
 SCF Done:  E(RB3LYP) =  -705.300936668     A.U. after   13 cycles
 SCF Done:  E(RB3LYP) =  -705.300999453     A.U. after   11 cycles
 SCF Done:  E(RB3LYP) =  -705.301062489     A.U. after   11 cycles
 SCF Done:  E(RB3LYP) =  -705.301573122     A.U. after   12 cycles
 SCF Done:  E(RB3LYP) =  -705.301578226     A.U. after   11 cycles
 SCF Done:  E(RB3LYP) =  -705.301578670     A.U. after    9 cycles
 SCF Done:  E(RB3LYP) =  -705.301578869     A.U. after    9 cycles
 SCF Done:  E(RB3LYP) =  -705.301578911     A.U. after    7 cycles
 Optimization completed.
    -- Stationary point found.
 Normal termination of Gaussian 16 at Thu Dec 10 10:38:20 2020.

 --------------------------------------------------------------------
 #N Geom=AllCheck Guess=TCheck SCRF=Check GenChk RB3LYP/6-31G(d) Freq
 --------------------------------------------------------------------

 Structure from the checkpoint file:  "JID_4740.chk"
 ------------------------------
 CID_54264619_JID_4740_neutraal
 ------------------------------
 Charge =  0 Multiplicity = 1

 SCF Done:  E(RB3LYP) =  -705.301578911     A.U. after    1 cycles

  Exact polarizability: 109.817   0.626 104.002   4.841  -1.273  90.129
 Approx polarizability: 172.672   9.073 138.398  17.589   4.967 143.670

                      1                      2                      3
                      A                      A                      A
 Frequencies --     21.8177                54.8359                83.1880
 Red. masses --      7.8844                 5.4102                 9.9184
 Frc consts  --      0.0022                 0.0096                 0.0404
 IR Inten    --      2.1518                 3.8802                 0.0822

                      4                      5                      6
                      A                      A                      A
 Frequencies --    112.3740               148.9038               160.9790
 Red. masses --      3.1354                 4.3393                 2.3596
 Frc consts  --      0.0233                 0.0567                 0.0360
 IR Inten    --      4.9288                 0.0574                 0.7032

                      7                      8                      9
                      A                      A                      A
 Frequencies --    195.4874               263.7609               274.9584
 Red. masses --      2.7292                 3.4373                 2.9787
 Frc consts  --      0.0614                 0.1409                 0.1327
 IR Inten    --      4.7858                 2.8188                 0.9337

                     10                     11                     12
                      A                      A                      A
 Frequencies --    338.7911               370.1639               398.4345
 Red. masses --      4.9984                 7.7283                 5.7328
 Frc consts  --      0.3380                 0.6239                 0.5362
 IR Inten    --      5.1894                11.6427                 5.2758

                     13                     14                     15
                      A                      A                      A
 Frequencies --    422.7653               465.7600               556.4226
 Red. masses --      4.8349                 5.8936                 2.4945
 Frc consts  --      0.5091                 0.7533                 0.4550
 IR Inten    --      6.6253                 6.6886                 5.8458

                     16                     17                     18
                      A                      A                      A
 Frequencies --    563.8792               576.6813               594.6996
 Red. masses --      4.1549                 3.0972                 2.1104
 Frc consts  --      0.7784                 0.6069                 0.4398
 IR Inten    --      6.2865                18.7983                21.0741

                     19                     20                     21
                      A                      A                      A
 Frequencies --    608.7920               639.1769               678.5793
 Red. masses --      3.6897                 1.5548                 2.9782
 Frc consts  --      0.8057                 0.3742                 0.8080
 IR Inten    --      9.7614                53.2517                47.4797

                     22                     23                     24
                      A                      A                      A
 Frequencies --    722.8831               765.6369               817.6595
 Red. masses --      3.9146                 4.2457                 2.1395
 Frc consts  --      1.2052                 1.4664                 0.8428
 IR Inten    --      6.0756                20.6987                 2.8667

                     25                     26                     27
                      A                      A                      A
 Frequencies --    869.9989               882.8724               921.1546
 Red. masses --      2.0995                 1.9891                 2.0247
 Frc consts  --      0.9363                 0.9135                 1.0122
 IR Inten    --      8.2981                 0.6025                 5.0003

                     28                     29                     30
                      A                      A                      A
 Frequencies --    944.9216               967.1501               977.3049
 Red. masses --      2.3452                 2.7813                 2.8247
 Frc consts  --      1.2337                 1.5328                 1.5896
 IR Inten    --      5.3446                 5.3201                15.7782

                     31                     32                     33
                      A                      A                      A
 Frequencies --   1024.8737              1038.8460              1056.5151
 Red. masses --      1.9786                 2.3353                 3.2098
 Frc consts  --      1.2245                 1.4849                 2.1110
 IR Inten    --      8.5731                 2.9882                 1.7482

                     34                     35                     36
                      A                      A                      A
 Frequencies --   1115.6431              1150.7872              1165.5915
 Red. masses --      3.4089                 2.1512                 2.4194
 Frc consts  --      2.4999                 1.6785                 1.9367
 IR Inten    --     42.9017                 5.7514               171.0881

                     37                     38                     39
                      A                      A                      A
 Frequencies --   1189.0609              1202.8492              1218.4265
 Red. masses --      1.4553                 2.2056                 1.6237
 Frc consts  --      1.2123                 1.8802                 1.4202
 IR Inten    --     47.1568               112.4709                13.0695

                     40                     41                     42
                      A                      A                      A
 Frequencies --   1229.6581              1246.0749              1266.1682
 Red. masses --      1.7601                 1.6773                 1.5562
 Frc consts  --      1.5681                 1.5344                 1.4700
 IR Inten    --      0.9700                17.9027                14.7558

                     43                     44                     45
                      A                      A                      A
 Frequencies --   1286.5755              1336.0255              1345.4970
 Red. masses --      1.9100                 1.4324                 1.3952
 Frc consts  --      1.8627                 1.5064                 1.4882
 IR Inten    --      7.0272                 2.9944                 1.0803

                     46                     47                     48
                      A                      A                      A
 Frequencies --   1358.0052              1364.5726              1370.5848
 Red. masses --      1.5310                 1.4791                 1.9353
 Frc consts  --      1.6635                 1.6227                 2.1420
 IR Inten    --     12.4743                 4.3340                23.5260

                     49                     50                     51
                      A                      A                      A
 Frequencies --   1395.7675              1434.9952              1479.0370
 Red. masses --      1.6194                 6.3558                 1.1026
 Frc consts  --      1.8588                 7.7111                 1.4211
 IR Inten    --     10.1600               211.2896                23.9355

                     52                     53                     54
                      A                      A                      A
 Frequencies --   1511.5896              1522.4776              1529.3289
 Red. masses --      1.0827                 1.0840                 1.0945
 Frc consts  --      1.4575                 1.4804                 1.5082
 IR Inten    --     10.9911                 7.0117                 1.9941

                     55                     56                     57
                      A                      A                      A
 Frequencies --   1551.8598              1791.2545              1830.9127
 Red. masses --      1.0909                11.4972                12.4791
 Frc consts  --      1.5478                21.7349                24.6472
 IR Inten    --      1.2248               341.5329               324.3928

                     58                     59                     60
                      A                      A                      A
 Frequencies --   1848.9319              3058.6271              3060.8980
 Red. masses --     10.8562                 1.0655                 1.0687
 Frc consts  --     21.8659                 5.8730                 5.8993
 IR Inten    --     74.5991                 5.2035                32.3909

                     61                     62                     63
                      A                      A                      A
 Frequencies --   3066.5392              3079.8278              3096.2140
 Red. masses --      1.0672                 1.0648                 1.0644
 Frc consts  --      5.9128                 5.9507                 6.0118
 IR Inten    --     10.5293                17.5374                 7.6745

                     64                     65                     66
                      A                      A                      A
 Frequencies --   3102.4458              3122.5290              3134.7981
 Red. masses --      1.0990                 1.0964                 1.1028
 Frc consts  --      6.2325                 6.2986                 6.3852
 IR Inten    --      6.9666                13.2410                25.2293

                     67                     68                     69
                      A                      A                      A
 Frequencies --   3147.8951              3155.2445              3679.0419
 Red. masses --      1.0959                 1.1035                 1.0642
 Frc consts  --      6.3985                 6.4729                 8.4866
 IR Inten    --      7.6260                12.2913                63.1306

 - Thermochemistry -
 -------------------
 Temperature   298.150 Kelvin.  Pressure   1.00000 Atm.
 Atom     1 has atomic number  6 and mass  12.00000

 Molecular mass:   197.06881 amu.
 Principal axes and moments of inertia in atomic units:
                           1         2         3
     Eigenvalues --  2076.145742365.852392860.41480
           X            0.99448  -0.10481  -0.00556
           Y            0.10418   0.99216  -0.06899
           Z            0.01275   0.06803   0.99760
 This molecule is an asymmetric top.
 Rotational symmetry number  1.
 Warning -- assumption of classical behavior for rotation
           may cause significant error
 Rotational temperatures (Kelvin)      0.04172     0.03661     0.03028
 Rotational constants (GHZ):           0.86927     0.76283     0.63094
 Zero-point vibrational energy     526153.5 (Joules/Mol)
                                  125.75371 (Kcal/Mol)
 Warning -- explicit consideration of  19 degrees of freedom as
           vibrations may cause significant error
 Vibrational temperatures:     31.39    78.90   119.69   161.68   214.24
          (Kelvin)            231.61   281.26   379.49   395.60   487.44
                              532.58   573.26   608.26   670.12   800.57
                              811.30   829.72   855.64   875.92   919.63
                              976.32  1040.07  1101.58  1176.43  1251.73
                             1270.26  1325.34  1359.53  1391.51  1406.12
                             1474.56  1494.67  1520.09  1605.16  1655.73
                             1677.03  1710.79  1730.63  1753.04  1769.20
                             1792.82  1821.73  1851.10  1922.24  1935.87
                             1953.87  1963.32  1971.97  2008.20  2064.64
                             2128.00  2174.84  2190.51  2200.36  2232.78
                             2577.22  2634.27  2660.20  4400.68  4403.95
                             4412.07  4431.19  4454.76  4463.73  4492.62
                             4510.28  4529.12  4539.69  5293.32

 Zero-point correction=                           0.200401 (Hartree/Particle)
 Thermal correction to Energy=                    0.212780
 Thermal correction to Enthalpy=                  0.213724
 Thermal correction to Gibbs Free Energy=         0.160568
 Sum of electronic and zero-point Energies=           -705.101178
 Sum of electronic and thermal Energies=              -705.088799
 Sum of electronic and thermal Enthalpies=            -705.087855
 Sum of electronic and thermal Free Energies=         -705.141010

                     E (Thermal)             CV                S
                      KCal/Mol        Cal/Mol-Kelvin    Cal/Mol-Kelvin
 Total                  133.521             46.655            111.875
 Electronic               0.000              0.000              0.000
 Translational            0.889              2.981             41.740
 Rotational               0.889              2.981             31.019
 Vibrational            131.744             40.693             39.116
 Vibration     1          0.593              1.985              6.461
 Vibration     2          0.596              1.976              4.635
 Vibration     3          0.600              1.961              3.814
 Vibration     4          0.607              1.939              3.227
 Vibration     5          0.618              1.904              2.686
 Vibration     6          0.622              1.890              2.538
 Vibration     7          0.636              1.846              2.175
 Vibration     8          0.670              1.739              1.637
 Vibration     9          0.677              1.720              1.565
 Vibration    10          0.719              1.598              1.218
 Vibration    11          0.742              1.534              1.079
 Vibration    12          0.765              1.473              0.968
 Vibration    13          0.785              1.421              0.883
 Vibration    14          0.823              1.326              0.750
 Vibration    15          0.912              1.126              0.531
 Vibration    16          0.920              1.109              0.516
 Vibration    17          0.933              1.082              0.492
 Vibration    18          0.952              1.043              0.459
 Vibration    19          0.968              1.013              0.435

 Optimization completed.
    -- Stationary point found.
 Normal termination of Gaussian 16 at Thu Dec 10 10:46:03 2020.

 ----------------------------------------------------------------------
 # B3LYP/6-311++G(d,p) empiricaldispersion=gd3bj scf=xqc pop=npa geom=c
 heck
 ----------------------------------------------------------------------

 --------------------------------------
 CID_54264619_JID_4740_Energie_neutraal
 --------------------------------------
 Structure from the checkpoint file:  "JID_4740.chk"
 Charge =  0 Multiplicity = 1

 SCF Done:  E(RB3LYP) =  -705.512532733     A.U. after   15 cycles
 Normal termination of Gaussian 16 at Thu Dec 10 10:48:59 2020.

 ----------------------------------------------------------------------
 # B3LYP/6-311++G(d,p) empiricaldispersion=gd3bj scf=xqc pop=npa geom=c
 heck
 ----------------------------------------------------------------------

 ------------------------------------
 CID_54264619_JID_4740_Energie_kation
 ------------------------------------
 Structure from the checkpoint file:  "JID_4740.chk"
 Charge =  1 Multiplicity = 2

 SCF Done:  E(UB3LYP) =  -705.187083835     A.U. after   26 cycles
 Normal termination of Gaussian 16 at Thu Dec 10 10:55:32 2020.
 Gaussian 16:  ES64L-G16RevA.03 25-Dec-2016

 ----------------------------------------------------------------------
 # B3LYP/6-311++G(d,p) empiricaldispersion=gd3bj scf=xqc pop=npa geom=c
 heck
 ----------------------------------------------------------------------

 -----------------------------------
 CID_54264619_JID_4740_Energie_anion
 -----------------------------------
 Structure from the checkpoint file:  "JID_4740.chk"
 Charge = -1 Multiplicity = 2

                         Standard orientation:
 ---------------------------------------------------------------------
 Center     Atomic      Atomic             Coordinates (Angstroms)
 Number     Number       Type             X           Y           Z
 ---------------------------------------------------------------------
      1          6           0       -0.356574    2.514792   -0.638417
      2          6           0       -1.211473    1.295714   -1.023012
      3          6           0       -0.542572    0.149411   -0.234710
      4          6           0       -0.672141   -1.232064   -0.910254
      5          8           0       -1.555456   -1.478196   -1.699393
      6          6           0        0.429120   -2.222285   -0.551744
      7          6           0        1.404008   -1.701960    0.516181
      8          6           0        1.867875   -0.281530    0.210753
      9          8           0        3.026556    0.097259    0.303832
     10          7           0        0.859782    0.539187   -0.214852
     11          6           0        1.071698    1.956004   -0.528045
     12          6           0       -1.117657    0.106674    1.192897
     13          8           0       -0.564636    0.536058    2.177471
     14          8           0       -2.346485   -0.454579    1.209244
     15          1           0       -0.677525    2.906886    0.332191
     16          1           0       -0.431093    3.324111   -1.369195
     17          1           0       -2.270944    1.399085   -0.782967
     18          1           0       -1.132822    1.065300   -2.089547
     19          1           0       -0.046842   -3.161706   -0.249251
     20          1           0        0.966943   -2.439849   -1.483379
     21          1           0        2.292122   -2.332745    0.581880
     22          1           0        0.930672   -1.703056    1.506084
     23          1           0        1.664166    2.427254    0.259975
     24          1           0        1.630187    2.047296   -1.467140
     25          1           0       -2.656865   -0.419747    2.134189
 ---------------------------------------------------------------------

 SCF Done:  E(UB3LYP) =  -705.512371066     A.U. after   33 cycles
 SCF Done:  E(UB3LYP) =  -705.512371066     a.u. after    1 cycles

 The electronic state is 2-A.
 Alpha  occ. eigenvalues --  -19.04464 -18.98917 -18.97304 -18.95999 -14.22415
 Alpha  occ. eigenvalues --  -10.17114 -10.15434 -10.10849 -10.10013 -10.09757
 Alpha  occ. eigenvalues --  -10.07123 -10.06522 -10.06442 -10.05844  -0.98695
 Alpha  occ. eigenvalues --   -0.92580  -0.90129  -0.89886  -0.83750  -0.69954
 Alpha  occ. eigenvalues --   -0.67289  -0.64124  -0.57174  -0.53797  -0.50822
 Alpha  occ. eigenvalues --   -0.49207  -0.46276  -0.41467  -0.38277  -0.37226
 Alpha  occ. eigenvalues --   -0.36459  -0.35658  -0.34669  -0.33076  -0.32641
 Alpha  occ. eigenvalues --   -0.31622  -0.30421  -0.29844  -0.28803  -0.28030
 Alpha  occ. eigenvalues --   -0.27365  -0.26106  -0.25375  -0.24915  -0.23936
 Alpha  occ. eigenvalues --   -0.22779  -0.21737  -0.20583  -0.16292  -0.14419
 Alpha  occ. eigenvalues --   -0.14090  -0.10739   0.04967
 Alpha virt. eigenvalues --    0.07473   0.07876   0.08958   0.10164   0.10495
 Alpha virt. eigenvalues --    0.11189   0.11709   0.12032   0.12300   0.13106
 Alpha virt. eigenvalues --    0.13445   0.14014   0.14759   0.16303   0.16483

  Beta  occ. eigenvalues --  -19.04370 -18.98790 -18.97306 -18.95666 -14.22384
  Beta  occ. eigenvalues --  -10.16917 -10.15435 -10.10894 -10.09754 -10.09602
  Beta  occ. eigenvalues --  -10.07116 -10.06520 -10.06383 -10.05878  -0.98445
  Beta  occ. eigenvalues --   -0.92564  -0.89692  -0.89440  -0.83679  -0.69889
  Beta  occ. eigenvalues --   -0.67089  -0.64041  -0.56955  -0.53541  -0.50713
  Beta  occ. eigenvalues --   -0.49051  -0.45862  -0.41260  -0.38096  -0.37030
  Beta  occ. eigenvalues --   -0.36234  -0.35470  -0.34552  -0.32840  -0.32385
  Beta  occ. eigenvalues --   -0.31393  -0.30265  -0.29582  -0.28519  -0.27612
  Beta  occ. eigenvalues --   -0.27271  -0.25938  -0.25263  -0.24841  -0.23786
  Beta  occ. eigenvalues --   -0.22647  -0.20385  -0.19966  -0.16127  -0.14310
  Beta  occ. eigenvalues --   -0.14048  -0.10468
  Beta virt. eigenvalues --    0.07491   0.08673   0.09127   0.10114   0.10370
  Beta virt. eigenvalues --    0.10720   0.11625   0.11904   0.12421   0.12855
  Beta virt. eigenvalues --    0.13318   0.13729   0.14744   0.14945   0.16233

 Mulliken charges and spin densities:
               1          2
     1  C   -0.092041  -0.434396
     2  C   -0.282313   0.113518
     3  C   -0.025597  -0.067853
     4  C   -0.267841   0.146166
     5  O   -0.314882   0.128352
     6  C   -0.018632  -0.181223
     7  C   -0.255614  -0.067953
     8  C    0.015996  -0.044200
     9  O   -0.375138   0.003614
    10  N    0.282591   0.078613
    11  C   -0.123839   0.046702
    12  C    0.365665  -0.402579
    13  O   -0.283597   0.062497
    14  O   -0.152838   0.064667
    15  H    0.146449   0.007401
    16  H   -0.021620   0.185706
    17  H    0.003160   0.178483
    18  H    0.079983   0.104736
    19  H   -0.162480   0.368580
    20  H    0.200128  -0.034895
    21  H    0.165628   0.035591
    22  H    0.119088   0.075904
    23  H    0.186671  -0.005350
    24  H    0.125584   0.030679
    25  H   -0.314511   0.607238
 Sum of Mulliken charges =  -1.00000   1.00000

 Dipole moment (field-independent basis, Debye):
    X=              2.3573    Y=              2.9816    Z=             -1.9595  Tot=              4.2763
 Quadrupole moment (field-independent basis, Debye-Ang):
   XX=           -125.8244   YY=           -102.4204   ZZ=           -110.9615
   XY=             -9.2992   XZ=             -1.6195   YZ=             -2.6036

 Summary of Natural Population Analysis:

                                       Natural Population
                Natural  -----------------------------------------------
    Atom  No    Charge         Core      Valence    Rydberg      Total
 -----------------------------------------------------------------------
      C    1   -0.19728      0.99963     2.19098    0.00667     3.19728
      C    2   -0.17696      0.99960     2.16855    0.00881     3.17696
      C    3   -0.01086      0.99948     1.99526    0.01611     3.01086
      C    4    0.34808      0.99962     1.62935    0.02296     2.65192
      O    5   -0.26092      0.99987     3.25474    0.00632     4.26092
      C    6   -0.23682      0.99959     2.22841    0.00883     3.23682
      C    7   -0.23591      0.99960     2.22773    0.00858     3.23591
      C    8    0.35493      0.99964     1.62234    0.02310     2.64507
      O    9   -0.33217      0.99988     3.32699    0.00531     4.33217
      N   10   -0.25121      0.99961     2.74163    0.00998     3.75121
      C   11   -0.07906      0.99964     2.07041    0.00901     3.07906
      C   12    0.42747      0.99964     1.54599    0.02689     2.57253
      O   13   -0.30454      0.99987     3.29832    0.00635     4.30454
      O   14   -0.34015      0.99987     3.33258    0.00770     4.34015
      H   15    0.10053      0.00000     0.39821    0.00126     0.39947
      H   16    0.09866      0.00000     0.40019    0.00115     0.40134
      H   17    0.11055      0.00000     0.38843    0.00103     0.38945
      H   18    0.10670      0.00000     0.39202    0.00128     0.39330
      H   19    0.11495      0.00000     0.38317    0.00188     0.38505
      H   20    0.10843      0.00000     0.39057    0.00100     0.39157
      H   21    0.10774      0.00000     0.39130    0.00095     0.39226
      H   22    0.11370      0.00000     0.38475    0.00155     0.38630
      H   23    0.10249      0.00000     0.39629    0.00123     0.39751
      H   24    0.09177      0.00000     0.40668    0.00155     0.40823
      H   25    0.23989      0.00000     0.24647    0.01363     0.26011
 =======================================================================
   * Total *   -0.00000     13.99553    37.81135    0.19311    52.00000

 Normal termination of Gaussian 16 at Thu Dec 10 11:04:04 2020.
