 Gaussian 16, Revision A.03,

 -----------------------------------------------------------
 # opt freq B3LYP/6-31G(d) empiricaldispersion=gd3bj scf=xqc
 -----------------------------------------------------------

 -------------------------------
 CID_140224918_JID_1559_neutraal
 -------------------------------
 Symbolic Z-matrix:
 Charge =  0 Multiplicity = 1

 SCF Done:  E(RB3LYP) =  -537.722299994     A.U. after   14 cycles
 SCF Done:  E(RB3LYP) =  -537.728674356     A.U. after   12 cycles
 SCF Done:  E(RB3LYP) =  -537.729261238     A.U. after   11 cycles
 SCF Done:  E(RB3LYP) =  -537.729354423     A.U. after   10 cycles
 SCF Done:  E(RB3LYP) =  -537.729312060     A.U. after   10 cycles
 SCF Done:  E(RB3LYP) =  -537.729366064     A.U. after   10 cycles
 SCF Done:  E(RB3LYP) =  -537.729391757     A.U. after   10 cycles
 SCF Done:  E(RB3LYP) =  -537.729393280     A.U. after    9 cycles
 SCF Done:  E(RB3LYP) =  -537.729397508     A.U. after    9 cycles
 SCF Done:  E(RB3LYP) =  -537.729427070     A.U. after   10 cycles
 SCF Done:  E(RB3LYP) =  -537.730332539     A.U. after   11 cycles
 SCF Done:  E(RB3LYP) =  -537.730355518     A.U. after   10 cycles
 SCF Done:  E(RB3LYP) =  -537.730360321     A.U. after    9 cycles
 SCF Done:  E(RB3LYP) =  -537.730360883     A.U. after    8 cycles
 SCF Done:  E(RB3LYP) =  -537.730360937     A.U. after    7 cycles
 Optimization completed.
    -- Stationary point found.

 1\1\GINC-NODE105\FOpt\RB3LYP\6-31G(d)\C8H12O3\VSC10255\08-Dec-2020\0\\
 # opt freq B3LYP/6-31G(d) empiricaldispersion=gd3bj scf=xqc\\CID_14022
 4918_JID_1559_neutraal\\0,1\C,0.0136194772,1.0197609504,-0.1144116887\
 C,0.9999712524,-0.0965349567,0.333783906\C,-0.1031508465,-1.1076499577
 ,-0.0407732187\C,-1.160145769,0.0122726333,0.050369494\O,-0.2601902052
 ,-2.3445593041,0.6805103298\C,-0.4289952778,-2.3022773806,2.0070691291
 \O,-0.477301717,-1.3210794093,2.7169215211\O,-0.5265484168,-3.57762010
 06,2.4332330886\C,-0.7643335057,-3.7206574957,3.8261746911\C,-2.186276

 Normal termination of Gaussian 16 at Tue Dec  8 20:25:26 2020.

 --------------------------------------------------------------------
 #N Geom=AllCheck Guess=TCheck SCRF=Check GenChk RB3LYP/6-31G(d) Freq
 --------------------------------------------------------------------

 Structure from the checkpoint file:  "JID_1559.chk"
 -------------------------------
 CID_140224918_JID_1559_neutraal
 -------------------------------
 Charge =  0 Multiplicity = 1

 SCF Done:  E(RB3LYP) =  -537.730360937     A.U. after    1 cycles

  Exact polarizability: 112.285  -0.259  76.871  -1.364  -1.037  73.942
 Approx polarizability: 127.322  -1.271 119.398  -1.965  -8.151 107.740

                      1                      2                      3
                      A                      A                      A
 Frequencies --     34.2675                60.4371                93.4262
 Red. masses --      3.3746                 3.9499                 4.1368
 Frc consts  --      0.0023                 0.0085                 0.0213
 IR Inten    --      0.3933                 2.0380                 0.0435

                      4                      5                      6
                      A                      A                      A
 Frequencies --     95.6086               149.0435               161.8137
 Red. masses --      3.1501                 4.2846                 2.7114
 Frc consts  --      0.0170                 0.0561                 0.0418
 IR Inten    --      0.3570                 0.1581                 2.2351

                      7                      8                      9
                      A                      A                      A
 Frequencies --    258.3871               321.5261               384.3330
 Red. masses --      3.1764                 6.0138                 3.8448
 Frc consts  --      0.1249                 0.3663                 0.3346
 IR Inten    --      7.6365                 7.4091                 2.8388

                     10                     11                     12
                      A                      A                      A
 Frequencies --    404.8872               432.6428               510.5911
 Red. masses --      3.3924                 3.0955                 2.2154
 Frc consts  --      0.3277                 0.3414                 0.3403
 IR Inten    --     10.0271                 3.5034                 0.0206

                     13                     14                     15
                      A                      A                      A
 Frequencies --    649.9140               735.3236               763.5556
 Red. masses --      3.1020                 3.5899                 1.4295
 Frc consts  --      0.7720                 1.1436                 0.4910
 IR Inten    --      0.4889                 1.0444                 3.7611

                     16                     17                     18
                      A                      A                      A
 Frequencies --    772.7772               782.2902               803.9236
 Red. masses --      1.3718                 7.2954                 1.1817
 Frc consts  --      0.4827                 2.6305                 0.4500
 IR Inten    --      2.1931                24.7349                 0.0676

                     19                     20                     21
                      A                      A                      A
 Frequencies --    831.4725               859.2246               912.5675
 Red. masses --      1.3488                 2.5840                 2.5701
 Frc consts  --      0.5494                 1.1240                 1.2610
 IR Inten    --      6.2060                14.9226                13.2687

                     22                     23                     24
                      A                      A                      A
 Frequencies --    928.0352               941.6621               965.4655
 Red. masses --      2.7478                 3.2950                 3.0172
 Frc consts  --      1.3943                 1.7214                 1.6570
 IR Inten    --      0.3840                10.2064                30.5338

                     25                     26                     27
                      A                      A                      A
 Frequencies --    973.6308              1007.2110              1045.2041
 Red. masses --      1.2595                 2.9581                 2.9772
 Frc consts  --      0.7035                 1.7681                 1.9163
 IR Inten    --      4.7853                18.9189                34.4560

                     28                     29                     30
                      A                      A                      A
 Frequencies --   1067.8938              1076.9474              1082.6728
 Red. masses --      1.5136                 1.9989                 1.4654
 Frc consts  --      1.0170                 1.3659                 1.0121
 IR Inten    --     22.7452                 4.0269                 3.1085

                     31                     32                     33
                      A                      A                      A
 Frequencies --   1120.8915              1136.9603              1180.0913
 Red. masses --      1.3065                 2.9017                 2.2951
 Frc consts  --      0.9671                 2.2100                 1.8831
 IR Inten    --      3.7408                33.7988                89.6749

                     34                     35                     36
                      A                      A                      A
 Frequencies --   1203.4355              1208.7426              1210.2398
 Red. masses --      1.3475                 2.6443                 1.3382
 Frc consts  --      1.1498                 2.2763                 1.1549
 IR Inten    --      0.7709                 0.8191                 0.1704

                     37                     38                     39
                      A                      A                      A
 Frequencies --   1253.5466              1267.1379              1271.4087
 Red. masses --      1.8446                 1.3986                 1.2826
 Frc consts  --      1.7078                 1.3231                 1.2216
 IR Inten    --     11.9215                98.7970                 0.2673

                     40                     41                     42
                      A                      A                      A
 Frequencies --   1273.9500              1301.5102              1310.4346
 Red. masses --      1.1914                 1.6003                 4.1004
 Frc consts  --      1.1393                 1.5972                 4.1486
 IR Inten    --      0.6842                39.5917              1077.6361

                     43                     44                     45
                      A                      A                      A
 Frequencies --   1324.3684              1414.4357              1443.8633
 Red. masses --      1.4096                 1.3862                 1.3926
 Frc consts  --      1.4567                 1.6339                 1.7105
 IR Inten    --      0.5443                 3.1567                45.4753

                     46                     47                     48
                      A                      A                      A
 Frequencies --   1481.7304              1503.2452              1514.8309
 Red. masses --      1.0923                 1.0942                 1.0873
 Frc consts  --      1.4129                 1.4568                 1.4700
 IR Inten    --      2.4708                 2.5511                 4.7744

                     49                     50                     51
                      A                      A                      A
 Frequencies --   1529.5300              1540.8415              1819.7875
 Red. masses --      1.4521                 1.1444                11.7857
 Frc consts  --      2.0016                 1.6009                22.9958
 IR Inten    --      8.3642                10.5059               240.2623

                     52                     53                     54
                      A                      A                      A
 Frequencies --   3082.6221              3094.9007              3097.4602
 Red. masses --      1.0610                 1.0628                 1.0671
 Frc consts  --      5.9403                 5.9978                 6.0321
 IR Inten    --     32.8053                64.5451                 9.1484

                     55                     56                     57
                      A                      A                      A
 Frequencies --   3116.1660              3135.9000              3157.5772
 Red. masses --      1.0863                 1.1070                 1.0511
 Frc consts  --      6.2149                 6.4136                 6.1744
 IR Inten    --     27.0743                13.0118                12.7495

                     58                     59                     60
                      A                      A                      A
 Frequencies --   3160.1328              3169.0954              3175.1512
 Red. masses --      1.0582                 1.1037                 1.1025
 Frc consts  --      6.2264                 6.5308                 6.5490
 IR Inten    --      3.8983                 3.9386                30.5605

                     61                     62                     63
                      A                      A                      A
 Frequencies --   3202.6882              3236.6589              3249.5449
 Red. masses --      1.0920                 1.1205                 1.1159
 Frc consts  --      6.5991                 6.9158                 6.9424
 IR Inten    --      7.3401                 0.5610                14.1542

 - Thermochemistry -
 -------------------
 Temperature   298.150 Kelvin.  Pressure   1.00000 Atm.
 Atom     1 has atomic number  6 and mass  12.00000

 Molecular mass:   156.07864 amu.
 Principal axes and moments of inertia in atomic units:
                           1         2         3
     Eigenvalues --   497.452703542.447043638.73662
           X            1.00000   0.00099   0.00103
           Y           -0.00107   0.99671   0.08108
           Z           -0.00094  -0.08108   0.99671
 This molecule is an asymmetric top.
 Rotational symmetry number  1.
 Warning -- assumption of classical behavior for rotation
           may cause significant error
 Rotational temperatures (Kelvin)      0.17411     0.02445     0.02380
 Rotational constants (GHZ):           3.62797     0.50946     0.49598
 Zero-point vibrational energy     510181.1 (Joules/Mol)
                                  121.93620 (Kcal/Mol)
 Warning -- explicit consideration of  12 degrees of freedom as
           vibrations may cause significant error
 Vibrational temperatures:     49.30    86.96   134.42   137.56   214.44
          (Kelvin)            232.81   371.76   462.60   552.97   582.54
                              622.48   734.63   935.08  1057.97  1098.59
                             1111.85  1125.54  1156.67  1196.30  1236.23
                             1312.98  1335.24  1354.84  1389.09  1400.84
                             1449.15  1503.82  1536.46  1549.49  1557.72
                             1612.71  1635.83  1697.89  1731.48  1739.11
                             1741.27  1803.57  1823.13  1829.27  1832.93
                             1872.58  1885.42  1905.47  2035.06  2077.40
                             2131.88  2162.83  2179.50  2200.65  2216.93
                             2618.27  4435.21  4452.87  4456.55  4483.47
                             4511.86  4543.05  4546.73  4559.62  4568.33
                             4607.95  4656.83  4675.37

 Zero-point correction=                           0.194318 (Hartree/Particle)
 Thermal correction to Energy=                    0.204898
 Thermal correction to Enthalpy=                  0.205842
 Thermal correction to Gibbs Free Energy=         0.156678
 Sum of electronic and zero-point Energies=           -537.536043
 Sum of electronic and thermal Energies=              -537.525463
 Sum of electronic and thermal Enthalpies=            -537.524519
 Sum of electronic and thermal Free Energies=         -537.573683

                     E (Thermal)             CV                S
                      KCal/Mol        Cal/Mol-Kelvin    Cal/Mol-Kelvin
 Total                  128.575             38.982            103.474
 Electronic               0.000              0.000              0.000
 Translational            0.889              2.981             41.045
 Rotational               0.889              2.981             30.240
 Vibrational            126.798             33.020             32.189
 Vibration     1          0.594              1.983              5.566
 Vibration     2          0.597              1.973              4.443
 Vibration     3          0.602              1.954              3.587
 Vibration     4          0.603              1.952              3.542
 Vibration     5          0.618              1.904              2.684
 Vibration     6          0.622              1.889              2.528
 Vibration     7          0.667              1.749              1.673
 Vibration     8          0.707              1.632              1.302
 Vibration     9          0.753              1.504              1.022
 Vibration    10          0.770              1.460              0.945
 Vibration    11          0.794              1.399              0.850
 Vibration    12          0.866              1.227              0.632

 Optimization completed.
    -- Stationary point found.

 1\1\GINC-NODE105\Freq\RB3LYP\6-31G(d)\C8H12O3\VSC10255\08-Dec-2020\0\\
 #N Geom=AllCheck Guess=TCheck SCRF=Check GenChk RB3LYP/6-31G(d) Freq\\
 CID_140224918_JID_1559_neutraal\\0,1\C,0.0136194772,1.0197609504,-0.11
 44116887\C,0.9999712524,-0.0965349567,0.333783906\C,-0.1031508465,-1.1
 076499577,-0.0407732187\C,-1.160145769,0.0122726333,0.050369494\O,-0.2
 601902052,-2.3445593041,0.6805103298\C,-0.4289952778,-2.3022773806,2.0
 070691291\O,-0.477301717,-1.3210794093,2.7169215211\O,-0.5265484168,-3
 .5776201006,2.4332330886\C,-0.7643335057,-3.7206574957,3.8261746911\C,

 Normal termination of Gaussian 16 at Tue Dec  8 20:29:32 2020.

 ----------------------------------------------------------------------
 # B3LYP/6-311++G(d,p) empiricaldispersion=gd3bj scf=xqc pop=npa geom=c
 heck
 ----------------------------------------------------------------------

 ---------------------------------------
 CID_140224918_JID_1559_Energie_neutraal
 ---------------------------------------
 Structure from the checkpoint file:  "JID_1559.chk"
 Charge =  0 Multiplicity = 1

 SCF Done:  E(RB3LYP) =  -537.885217041     A.U. after   13 cycles
 Normal termination of Gaussian 16 at Tue Dec  8 20:31:37 2020.

 ----------------------------------------------------------------------
 # B3LYP/6-311++G(d,p) empiricaldispersion=gd3bj scf=xqc pop=npa geom=c
 heck
 ----------------------------------------------------------------------

 -------------------------------------
 CID_140224918_JID_1559_Energie_kation
 -------------------------------------
 Structure from the checkpoint file:  "JID_1559.chk"
 Charge =  1 Multiplicity = 2

 SCF Done:  E(UB3LYP) =  -537.529956453     A.U. after   27 cycles
 Normal termination of Gaussian 16 at Tue Dec  8 20:37:26 2020.
 Gaussian 16:  ES64L-G16RevA.03 25-Dec-2016

 ------------------------------------
 CID_140224918_JID_1559_Energie_anion
 ------------------------------------
 Structure from the checkpoint file:  "JID_1559.chk"
 Charge = -1 Multiplicity = 2

                         Standard orientation:
 ---------------------------------------------------------------------
 Center     Atomic      Atomic             Coordinates (Angstroms)
 Number     Number       Type             X           Y           Z
 ---------------------------------------------------------------------
      1          6           0       -3.599199    0.614425   -0.149214
      2          6           0       -2.720157   -0.413707   -0.917403
      3          6           0       -1.996261   -0.670543    0.420332
      4          6           0       -2.506664    0.683077    0.956030
      5          8           0       -0.597213   -1.011012    0.460339
      6          6           0        0.284427   -0.191376   -0.123570
      7          8           0        0.058167    0.849478   -0.701845
      8          8           0        1.503334   -0.745054    0.035611
      9          6           0        2.577172    0.026302   -0.483205
     10          6           0        3.261550    0.982215    0.443837
     11          6           0        3.919427   -0.331309    0.062307
     12          1           0       -4.530289    0.170863    0.216523
     13          1           0       -3.832357    1.546712   -0.668432
     14          1           0       -3.209801   -1.269165   -1.391230
     15          1           0       -2.065843    0.084873   -1.632816
     16          1           0       -2.455018   -1.501985    0.959327
     17          1           0       -1.793577    1.482959    0.755499
     18          1           0       -2.823331    0.717461    2.002311
     19          1           0        2.453718    0.287276   -1.528823
     20          1           0        3.644890    1.909820    0.029469
     21          1           0        2.860564    1.062107    1.449619
     22          1           0        3.947755   -1.110954    0.817211
     23          1           0        4.767219   -0.321764   -0.616182
 ---------------------------------------------------------------------

 SCF Done:  E(UB3LYP) =  -537.865883663     A.U. after   33 cycles
 SCF Done:  E(UB3LYP) =  -537.865883663     a.u. after    1 cycles

 The electronic state is 2-A.
 Alpha  occ. eigenvalues --  -19.07931 -19.07486 -19.01681 -10.25202 -10.14213
 Alpha  occ. eigenvalues --  -10.13520 -10.08397 -10.08364 -10.07139 -10.06893
 Alpha  occ. eigenvalues --  -10.06823  -1.05118  -0.96597  -0.93155  -0.77208
 Alpha  occ. eigenvalues --   -0.74984  -0.61650  -0.56729  -0.53971  -0.51805
 Alpha  occ. eigenvalues --   -0.49097  -0.47076  -0.42638  -0.40990  -0.40359
 Alpha  occ. eigenvalues --   -0.38987  -0.38328  -0.36523  -0.32691  -0.31734
 Alpha  occ. eigenvalues --   -0.30889  -0.29808  -0.28683  -0.28079  -0.24873
 Alpha  occ. eigenvalues --   -0.23959  -0.23234  -0.22275  -0.21352  -0.20257
 Alpha  occ. eigenvalues --   -0.19079  -0.18786   0.04807
 Alpha virt. eigenvalues --    0.06004   0.07948   0.08189   0.08704   0.08813
 Alpha virt. eigenvalues --    0.09296   0.10710   0.11094   0.11829   0.12001
 Alpha virt. eigenvalues --    0.13029   0.13163   0.14086   0.14891   0.15721

  Beta  occ. eigenvalues --  -19.07929 -19.07485 -19.01675 -10.25200 -10.14203
  Beta  occ. eigenvalues --  -10.13502 -10.08367 -10.08341 -10.07111 -10.06878
  Beta  occ. eigenvalues --  -10.06804  -1.05111  -0.96591  -0.93146  -0.77180
  Beta  occ. eigenvalues --   -0.74951  -0.61625  -0.56681  -0.53929  -0.51730
  Beta  occ. eigenvalues --   -0.49041  -0.47044  -0.42594  -0.40939  -0.40341
  Beta  occ. eigenvalues --   -0.38928  -0.38289  -0.36492  -0.32660  -0.31702
  Beta  occ. eigenvalues --   -0.30863  -0.29784  -0.28660  -0.28043  -0.24853
  Beta  occ. eigenvalues --   -0.23922  -0.23197  -0.22242  -0.21319  -0.20234
  Beta  occ. eigenvalues --   -0.19062  -0.18767
  Beta virt. eigenvalues --    0.07249   0.07614   0.08397   0.08655   0.09136
  Beta virt. eigenvalues --    0.09411   0.09748   0.11306   0.11779   0.11957
  Beta virt. eigenvalues --    0.12381   0.13111   0.13289   0.14272   0.14977

 Mulliken charges and spin densities:
               1          2
     1  C    0.015721  -0.242203
     2  C    1.334763  -1.683911
     3  C   -1.758460   1.927571
     4  C    1.400070  -1.750015
     5  O   -0.051844  -0.041317
     6  C    0.047744  -0.301151
     7  O   -0.203861  -0.019356
     8  O   -0.070977  -0.009004
     9  C   -0.680180   0.612229
    10  C    0.007885  -0.186583
    11  C    1.409094  -1.747544
    12  H   -0.321961   0.470423
    13  H   -0.095431   0.222939
    14  H   -0.240326   0.382380
    15  H    0.107754   0.063097
    16  H   -0.957727   1.220285
    17  H    0.077777   0.090179
    18  H   -0.285483   0.430160
    19  H   -0.173631   0.397349
    20  H   -0.175264   0.319553
    21  H    0.052771   0.094951
    22  H    0.094091   0.059769
    23  H   -0.532525   0.690197
 Sum of Mulliken charges =  -1.00000   1.00000

 Dipole moment (field-independent basis, Debye):
    X=              1.5646    Y=              0.8440    Z=             -0.0954  Tot=              1.7803
 Quadrupole moment (field-independent basis, Debye-Ang):
   XX=           -169.3395   YY=            -97.0318   ZZ=            -95.6263
   XY=            -11.7781   XZ=             15.8566   YZ=              3.3664

 Summary of Natural Population Analysis:

                                       Natural Population
                Natural  -----------------------------------------------
    Atom  No    Charge         Core      Valence    Rydberg      Total
 -----------------------------------------------------------------------
      C    1   -0.18916      0.99965     2.18099    0.00852     3.18916
      C    2   -0.20065      0.99962     2.19256    0.00847     3.20065
      C    3    0.05959      0.99949     1.92492    0.01600     2.94041
      C    4   -0.20056      0.99962     2.19237    0.00857     3.20056
      O    5   -0.27333      0.99985     3.26589    0.00760     4.27333
      C    6    0.51907      0.99972     1.45417    0.02704     2.48093
      O    7   -0.32319      0.99987     3.31836    0.00496     4.32319
      O    8   -0.27400      0.99985     3.26628    0.00788     4.27400
      C    9    0.04934      0.99949     1.93704    0.01414     2.95066
      C   10   -0.20672      0.99962     2.19767    0.00942     3.20672
      C   11   -0.20396      0.99963     2.19428    0.01005     3.20396
      H   12    0.10102      0.00000     0.39554    0.00344     0.39898
      H   13    0.09688      0.00000     0.40228    0.00085     0.40312
      H   14    0.09930      0.00000     0.39927    0.00143     0.40070
      H   15    0.10813      0.00000     0.39053    0.00135     0.39187
      H   16    0.09861      0.00000     0.39865    0.00274     0.40139
      H   17    0.10834      0.00000     0.39030    0.00137     0.39166
      H   18    0.09985      0.00000     0.39848    0.00166     0.40015
      H   19    0.10234      0.00000     0.39638    0.00128     0.39766
      H   20    0.10786      0.00000     0.39066    0.00148     0.39214
      H   21    0.10537      0.00000     0.39371    0.00092     0.39463
      H   22    0.10662      0.00000     0.39234    0.00104     0.39338
      H   23    0.10927      0.00000     0.38747    0.00327     0.39073
 =======================================================================
   * Total *    0.00000     10.99639    30.86014    0.14347    42.00000

 Normal termination of Gaussian 16 at Tue Dec  8 20:44:37 2020.
