 Gaussian 16, Revision A.03,

 -----------------------------------------------------------
 # opt freq B3LYP/6-31G(d) empiricaldispersion=gd3bj scf=xqc
 -----------------------------------------------------------

 ------------------------------
 CID_15814176_JID_4279_neutraal
 ------------------------------
 Symbolic Z-matrix:
 Charge =  0 Multiplicity = 1

 SCF Done:  E(RB3LYP) =  -656.897077774     A.U. after   13 cycles
 SCF Done:  E(RB3LYP) =  -656.900422342     A.U. after   12 cycles
 SCF Done:  E(RB3LYP) =  -656.897008236     A.U. after   12 cycles
 SCF Done:  E(RB3LYP) =  -656.899854593     A.U. after   12 cycles
 SCF Done:  E(RB3LYP) =  -656.901243581     A.U. after   10 cycles
 SCF Done:  E(RB3LYP) =  -656.901743474     A.U. after   11 cycles
 SCF Done:  E(RB3LYP) =  -656.902541010     A.U. after   11 cycles
 SCF Done:  E(RB3LYP) =  -656.902589972     A.U. after   11 cycles
 SCF Done:  E(RB3LYP) =  -656.902734978     A.U. after   11 cycles
 SCF Done:  E(RB3LYP) =  -656.902776453     A.U. after   10 cycles
 SCF Done:  E(RB3LYP) =  -656.902834079     A.U. after    8 cycles
 SCF Done:  E(RB3LYP) =  -656.902835070     A.U. after    7 cycles
 SCF Done:  E(RB3LYP) =  -656.902835888     A.U. after    8 cycles
 SCF Done:  E(RB3LYP) =  -656.902836084     A.U. after    8 cycles
 SCF Done:  E(RB3LYP) =  -656.902836465     A.U. after    7 cycles
 SCF Done:  E(RB3LYP) =  -656.902836719     A.U. after    8 cycles
 Optimization completed.
    -- Stationary point found.
 Normal termination of Gaussian 16 at Thu Dec 10 09:29:25 2020.

 --------------------------------------------------------------------
 #N Geom=AllCheck Guess=TCheck SCRF=Check GenChk RB3LYP/6-31G(d) Freq
 --------------------------------------------------------------------

 Structure from the checkpoint file:  "JID_4279.chk"
 ------------------------------
 CID_15814176_JID_4279_neutraal
 ------------------------------
 Charge =  0 Multiplicity = 1

 SCF Done:  E(RB3LYP) =  -656.902836719     A.U. after    1 cycles

  Exact polarizability: 150.681   9.954 111.962   0.996   9.189 108.818
 Approx polarizability: 176.990  14.034 163.686   5.010  14.272 169.148

                      1                      2                      3
                      A                      A                      A
 Frequencies --     21.0077                48.6829                60.6360
 Red. masses --      3.4743                 3.2022                 2.5076
 Frc consts  --      0.0009                 0.0045                 0.0054
 IR Inten    --      0.5554                 2.5953                 0.2447

                      4                      5                      6
                      A                      A                      A
 Frequencies --     72.7119                84.0460               144.8289
 Red. masses --      3.6224                 3.1852                 4.0177
 Frc consts  --      0.0113                 0.0133                 0.0497
 IR Inten    --      0.8767                 4.1135                 0.0797

                      7                      8                      9
                      A                      A                      A
 Frequencies --    171.5474               202.5563               219.3108
 Red. masses --      4.0956                 1.7314                 2.8129
 Frc consts  --      0.0710                 0.0419                 0.0797
 IR Inten    --      4.6571                 0.6296                 1.6019

                     10                     11                     12
                      A                      A                      A
 Frequencies --    231.3143               259.5765               265.1311
 Red. masses --      2.5080                 2.3734                 2.3807
 Frc consts  --      0.0791                 0.0942                 0.0986
 IR Inten    --      2.3862                 1.6608                 2.1749

                     13                     14                     15
                      A                      A                      A
 Frequencies --    279.9507               297.0912               342.1173
 Red. masses --      1.4461                 1.2689                 2.3771
 Frc consts  --      0.0668                 0.0660                 0.1639
 IR Inten    --      1.9471                 0.2452                 1.7734

                     16                     17                     18
                      A                      A                      A
 Frequencies --    372.5332               396.2104               439.5868
 Red. masses --      2.9623                 2.2435                 2.7780
 Frc consts  --      0.2422                 0.2075                 0.3163
 IR Inten    --      0.7712                 0.7375                 5.6745

                     19                     20                     21
                      A                      A                      A
 Frequencies --    494.3158               525.4728               572.3180
 Red. masses --      3.0561                 3.1223                 2.3844
 Frc consts  --      0.4400                 0.5079                 0.4602
 IR Inten    --     20.0645                10.7410                21.8942

                     22                     23                     24
                      A                      A                      A
 Frequencies --    576.9191               627.1169               652.8138
 Red. masses --      1.2777                 3.5393                 2.1556
 Frc consts  --      0.2506                 0.8201                 0.5413
 IR Inten    --    139.8136                 0.6064                11.8724

                     25                     26                     27
                      A                      A                      A
 Frequencies --    686.6379               765.3570               776.3016
 Red. masses --      1.8381                 2.0377                 3.9237
 Frc consts  --      0.5106                 0.7033                 1.3932
 IR Inten    --      4.2759                 9.6186                 9.3050

                     28                     29                     30
                      A                      A                      A
 Frequencies --    829.6986               859.2350               873.3309
 Red. masses --      2.0486                 2.1402                 2.0925
 Frc consts  --      0.8309                 0.9310                 0.9403
 IR Inten    --      3.3353                21.8943                 3.3691

                     31                     32                     33
                      A                      A                      A
 Frequencies --    888.8623               917.1405               925.5364
 Red. masses --      2.9225                 2.1425                 2.1276
 Frc consts  --      1.3604                 1.0618                 1.0738
 IR Inten    --      4.9687                 3.8610                 5.7395

                     34                     35                     36
                      A                      A                      A
 Frequencies --    934.4456               959.0354               971.8902
 Red. masses --      2.0411                 2.2922                 1.8336
 Frc consts  --      1.0501                 1.2421                 1.0204
 IR Inten    --     22.0372                 8.4317                 4.4513

                     37                     38                     39
                      A                      A                      A
 Frequencies --   1012.1373              1028.9825              1050.0246
 Red. masses --      1.8314                 1.1552                 1.6160
 Frc consts  --      1.1054                 0.7207                 1.0497
 IR Inten    --      6.7482                27.3082                17.1676

                     40                     41                     42
                      A                      A                      A
 Frequencies --   1076.7942              1088.1405              1095.3909
 Red. masses --      3.7252                 2.2006                 3.0562
 Frc consts  --      2.5449                 1.5352                 2.1606
 IR Inten    --     29.6293                16.9103                41.1273

                     43                     44                     45
                      A                      A                      A
 Frequencies --   1106.3815              1119.0417              1130.3407
 Red. masses --      2.9450                 1.5764                 2.0662
 Frc consts  --      2.1239                 1.1631                 1.5554
 IR Inten    --     65.7761                 2.7325                25.8803

                     46                     47                     48
                      A                      A                      A
 Frequencies --   1147.9529              1163.8562              1175.7635
 Red. masses --      1.8789                 1.8215                 2.6962
 Frc consts  --      1.4588                 1.4537                 2.1960
 IR Inten    --    121.3613                 5.4219                41.4448

                     49                     50                     51
                      A                      A                      A
 Frequencies --   1238.9670              1240.0979              1260.5450
 Red. masses --      2.0009                 1.1988                 1.2105
 Frc consts  --      1.8096                 1.0862                 1.1333
 IR Inten    --     50.1465                 6.7896                39.8188

                     52                     53                     54
                      A                      A                      A
 Frequencies --   1269.1208              1285.8458              1300.7700
 Red. masses --      1.4035                 1.5311                 1.3667
 Frc consts  --      1.3319                 1.4916                 1.3625
 IR Inten    --     17.2959                26.2096                23.7756

                     55                     56                     57
                      A                      A                      A
 Frequencies --   1305.2134              1333.4633              1348.9362
 Red. masses --      1.1662                 1.2864                 1.2703
 Frc consts  --      1.1706                 1.3477                 1.3619
 IR Inten    --      2.1497                37.8941                 7.5618

                     58                     59                     60
                      A                      A                      A
 Frequencies --   1377.0776              1391.0068              1396.8227
 Red. masses --      1.3426                 1.3252                 1.5018
 Frc consts  --      1.5001                 1.5107                 1.7265
 IR Inten    --      7.4816                17.2200                17.9391

                     61                     62                     63
                      A                      A                      A
 Frequencies --   1398.9953              1403.4744              1414.4640
 Red. masses --      1.4368                 1.3431                 1.3980
 Frc consts  --      1.6568                 1.5587                 1.6479
 IR Inten    --      3.3521                11.0194                 0.7974

                     64                     65                     66
                      A                      A                      A
 Frequencies --   1435.5582              1440.0318              1462.9565
 Red. masses --      1.3066                 1.2832                 1.4930
 Frc consts  --      1.5865                 1.5678                 1.8827
 IR Inten    --     15.8125                 6.9651                48.5602

                     67                     68                     69
                      A                      A                      A
 Frequencies --   1507.5648              1508.9898              1511.7469
 Red. masses --      1.0731                 1.0712                 1.0907
 Frc consts  --      1.4369                 1.4371                 1.4687
 IR Inten    --      2.4096                 2.8521                 2.4782

                     70                     71                     72
                      A                      A                      A
 Frequencies --   1519.2305              1528.2802              1529.6689
 Red. masses --      1.0721                 1.0408                 1.0660
 Frc consts  --      1.4579                 1.4323                 1.4696
 IR Inten    --      7.6807                 5.6878                 0.5951

                     73                     74                     75
                      A                      A                      A
 Frequencies --   1539.5729              1541.7093              1548.6957
 Red. masses --      1.0536                 1.0859                 1.1027
 Frc consts  --      1.4714                 1.5208                 1.5582
 IR Inten    --      3.8797                 2.7408                 1.1567

                     76                     77                     78
                      A                      A                      A
 Frequencies --   1760.3460              2935.9707              3011.2629
 Red. masses --      5.9457                 1.0819                 1.0606
 Frc consts  --     10.8554                 5.4945                 5.6660
 IR Inten    --      4.1887                85.7146                40.0180

                     79                     80                     81
                      A                      A                      A
 Frequencies --   3021.1713              3029.4774              3034.0287
 Red. masses --      1.0723                 1.1005                 1.0660
 Frc consts  --      5.7666                 5.9509                 5.7813
 IR Inten    --     43.7429                22.6098                65.3258

                     82                     83                     84
                      A                      A                      A
 Frequencies --   3049.4696              3049.7703              3067.6577
 Red. masses --      1.0603                 1.0372                 1.0442
 Frc consts  --      5.8096                 5.6839                 5.7894
 IR Inten    --     25.0737                29.1493                14.9838

                     85                     86                     87
                      A                      A                      A
 Frequencies --   3071.0208              3088.1832              3114.5286
 Red. masses --      1.0552                 1.0979                 1.1039
 Frc consts  --      5.8635                 6.1692                 6.3091
 IR Inten    --     10.2005                34.5201                27.9852

                     88                     89                     90
                      A                      A                      A
 Frequencies --   3114.8751              3119.9329              3121.6078
 Red. masses --      1.1025                 1.1023                 1.0967
 Frc consts  --      6.3026                 6.3218                 6.2964
 IR Inten    --     32.9344                41.4152                34.4573

                     91                     92                     93
                      A                      A                      A
 Frequencies --   3131.8216              3139.4085              3158.4614
 Red. masses --      1.0981                 1.1034                 1.0884
 Frc consts  --      6.3457                 6.4074                 6.3972
 IR Inten    --     34.4966                27.6025                17.2633

                     94                     95                     96
                      A                      A                      A
 Frequencies --   3170.2485              3183.0173              3679.0481
 Red. masses --      1.1014                 1.0875                 1.0667
 Frc consts  --      6.5218                 6.4916                 8.5071
 IR Inten    --      2.7689                 9.2144               258.8888

 - Thermochemistry -
 -------------------
 Temperature   298.150 Kelvin.  Pressure   1.00000 Atm.
 Atom     1 has atomic number  6 and mass  12.00000

 Molecular mass:   200.14124 amu.
 Principal axes and moments of inertia in atomic units:
                           1         2         3
     Eigenvalues --  1262.995845373.808025673.76010
           X            0.99990   0.01222  -0.00676
           Y           -0.01146   0.99463   0.10289
           Z            0.00798  -0.10280   0.99467
 This molecule is an asymmetric top.
 Rotational symmetry number  1.
 Warning -- assumption of classical behavior for rotation
           may cause significant error
 Rotational temperatures (Kelvin)      0.06858     0.01612     0.01527
 Rotational constants (GHZ):           1.42894     0.33584     0.31809
 Zero-point vibrational energy     795697.2 (Joules/Mol)
                                  190.17620 (Kcal/Mol)
 Warning -- explicit consideration of  22 degrees of freedom as
           vibrations may cause significant error
 Vibrational temperatures:     30.23    70.04    87.24   104.62   120.92
          (Kelvin)            208.38   246.82   291.43   315.54   332.81
                              373.47   381.46   402.79   427.45   492.23
                              535.99   570.06   632.47   711.21   756.04
                              823.44   830.06   902.28   939.25   987.92
                             1101.18  1116.92  1193.75  1236.25  1256.53
                             1278.87  1319.56  1331.64  1344.46  1379.84
                             1398.33  1456.24  1480.48  1510.75  1549.27
                             1565.59  1576.02  1591.84  1610.05  1626.31
                             1651.65  1674.53  1691.66  1782.60  1784.22
                             1813.64  1825.98  1850.05  1871.52  1877.91
                             1918.56  1940.82  1981.31  2001.35  2009.72
                             2012.84  2019.29  2035.10  2065.45  2071.88
                             2104.87  2169.05  2171.10  2175.07  2185.83
                             2198.85  2200.85  2215.10  2218.18  2228.23
                             2532.75  4224.21  4332.54  4346.79  4358.74
                             4365.29  4387.51  4387.94  4413.68  4418.51
                             4443.21  4481.11  4481.61  4488.89  4491.30
                             4505.99  4516.91  4544.32  4561.28  4579.65
                             5293.33

 Zero-point correction=                           0.303065 (Hartree/Particle)
 Thermal correction to Energy=                    0.318313
 Thermal correction to Enthalpy=                  0.319257
 Thermal correction to Gibbs Free Energy=         0.259722
 Sum of electronic and zero-point Energies=           -656.599772
 Sum of electronic and thermal Energies=              -656.584523
 Sum of electronic and thermal Enthalpies=            -656.583579
 Sum of electronic and thermal Free Energies=         -656.643115

                     E (Thermal)             CV                S
                      KCal/Mol        Cal/Mol-Kelvin    Cal/Mol-Kelvin
 Total                  199.745             57.491            125.303
 Electronic               0.000              0.000              0.000
 Translational            0.889              2.981             41.786
 Rotational               0.889              2.981             32.021
 Vibrational            197.967             51.529             51.496
 Vibration     1          0.593              1.986              6.537
 Vibration     2          0.595              1.978              4.870
 Vibration     3          0.597              1.973              4.436
 Vibration     4          0.599              1.967              4.079
 Vibration     5          0.601              1.960              3.794
 Vibration     6          0.616              1.908              2.739
 Vibration     7          0.626              1.878              2.418
 Vibration     8          0.639              1.836              2.110
 Vibration     9          0.647              1.812              1.965
 Vibration    10          0.653              1.793              1.869
 Vibration    11          0.668              1.747              1.665
 Vibration    12          0.671              1.737              1.628
 Vibration    13          0.680              1.711              1.534
 Vibration    14          0.691              1.679              1.433
 Vibration    15          0.721              1.591              1.202
 Vibration    16          0.744              1.529              1.069
 Vibration    17          0.763              1.478              0.977
 Vibration    18          0.800              1.384              0.828
 Vibration    19          0.850              1.263              0.672
 Vibration    20          0.880              1.194              0.597
 Vibration    21          0.929              1.091              0.500
 Vibration    22          0.933              1.081              0.491

                           ! Non-Optimized Parameters !
 Normal termination of Gaussian 16 at Thu Dec 10 09:40:20 2020.

 ----------------------------------------------------------------------
 # B3LYP/6-311++G(d,p) empiricaldispersion=gd3bj scf=xqc pop=npa geom=c
 heck
 ----------------------------------------------------------------------

 --------------------------------------
 CID_15814176_JID_4279_Energie_neutraal
 --------------------------------------
 Structure from the checkpoint file:  "JID_4279.chk"
 Charge =  0 Multiplicity = 1

 SCF Done:  E(RB3LYP) =  -657.099321148     A.U. after   13 cycles
 Normal termination of Gaussian 16 at Thu Dec 10 09:45:07 2020.

 ----------------------------------------------------------------------
 # B3LYP/6-311++G(d,p) empiricaldispersion=gd3bj scf=xqc pop=npa geom=c
 heck
 ----------------------------------------------------------------------

 ------------------------------------
 CID_15814176_JID_4279_Energie_kation
 ------------------------------------
 Structure from the checkpoint file:  "JID_4279.chk"
 Charge =  1 Multiplicity = 2

 SCF Done:  E(UB3LYP) =  -656.788717366     A.U. after   24 cycles
 Normal termination of Gaussian 16 at Thu Dec 10 09:57:51 2020.
 Gaussian 16:  ES64L-G16RevA.03 25-Dec-2016

 ----------------------------------------------------------------------
 # B3LYP/6-311++G(d,p) empiricaldispersion=gd3bj scf=xqc pop=npa geom=c
 heck
 ----------------------------------------------------------------------

 -----------------------------------
 CID_15814176_JID_4279_Energie_anion
 -----------------------------------
 Structure from the checkpoint file:  "JID_4279.chk"
 Charge = -1 Multiplicity = 2

                         Standard orientation:
 ---------------------------------------------------------------------
 Center     Atomic      Atomic             Coordinates (Angstroms)
 Number     Number       Type             X           Y           Z
 ---------------------------------------------------------------------
      1          6           0       -4.711957   -0.809841    0.748197
      2          6           0       -3.985090   -0.904671   -0.593644
      3          6           0       -2.740441   -0.067195   -0.723729
      4          6           0       -2.241190    0.753311    0.201449
      5          6           0       -0.989046    1.577042    0.041933
      6          6           0        0.025437    1.272222    1.163998
      7          6           0        0.553582   -0.167685    1.234379
      8          6           0        1.549106   -0.586761    0.125897
      9          8           0        2.672488   -1.200672    0.763300
     10          6           0        3.841574   -0.765006    0.085303
     11          6           0        3.481396    0.671803   -0.275183
     12          8           0        2.091837    0.565631   -0.572202
     13          6           0        0.944363   -1.514983   -0.918287
     14          8           0       -0.451878    1.400097   -1.261116
     15          1           0       -4.060967   -1.119671    1.573757
     16          1           0       -5.597207   -1.454357    0.757505
     17          1           0       -5.040971    0.215826    0.949730
     18          1           0       -3.720281   -1.954563   -0.792122
     19          1           0       -4.677193   -0.631602   -1.404922
     20          1           0       -2.212731   -0.138943   -1.672411
     21          1           0       -2.742290    0.877057    1.161101
     22          1           0       -1.273276    2.638472    0.169865
     23          1           0        0.866555    1.970540    1.081013
     24          1           0       -0.469038    1.496908    2.117696
     25          1           0       -0.292618   -0.862992    1.233732
     26          1           0        1.079040   -0.298113    2.185168
     27          1           0        4.033893   -1.364811   -0.816501
     28          1           0        4.689076   -0.857805    0.768713
     29          1           0        3.998038    1.056203   -1.158709
     30          1           0        3.647771    1.351552    0.572165
     31          1           0        1.701856   -1.802079   -1.653986
     32          1           0        0.560520   -2.416373   -0.431127
     33          1           0        0.125136   -1.004582   -1.428183
     34          1           0        0.518697    1.429474   -1.194217
 ---------------------------------------------------------------------

 SCF Done:  E(UB3LYP) =  -657.084694404     A.U. after   32 cycles

 The electronic state is 2-A.
 Alpha  occ. eigenvalues --  -19.04334 -19.03853 -19.01287 -10.18514 -10.12733
 Alpha  occ. eigenvalues --  -10.12672 -10.12657 -10.08146 -10.07608 -10.07177
 Alpha  occ. eigenvalues --  -10.06992 -10.06843 -10.06737 -10.06354  -1.00098
 Alpha  occ. eigenvalues --   -0.92191  -0.90577  -0.72030  -0.70988  -0.67674
 Alpha  occ. eigenvalues --   -0.63772  -0.61756  -0.58651  -0.55144  -0.53839
 Alpha  occ. eigenvalues --   -0.50718  -0.47260  -0.44622  -0.42646  -0.41377
 Alpha  occ. eigenvalues --   -0.38982  -0.37867  -0.37142  -0.36410  -0.35632
 Alpha  occ. eigenvalues --   -0.34551  -0.33942  -0.32970  -0.32700  -0.30377
 Alpha  occ. eigenvalues --   -0.29800  -0.29092  -0.27982  -0.26871  -0.26428
 Alpha  occ. eigenvalues --   -0.26134  -0.25717  -0.25181  -0.25010  -0.23900
 Alpha  occ. eigenvalues --   -0.21945  -0.18445  -0.18036  -0.16971  -0.15006
 Alpha  occ. eigenvalues --    0.04280
 Alpha virt. eigenvalues --    0.05632   0.06760   0.07860   0.07995   0.08116
 Alpha virt. eigenvalues --    0.08692   0.09691   0.09943   0.10279   0.10726
 Alpha virt. eigenvalues --    0.11067   0.11426   0.12171   0.12820   0.13044

  Beta  occ. eigenvalues --  -19.04331 -19.03850 -19.01283 -10.18515 -10.12692
  Beta  occ. eigenvalues --  -10.12667 -10.12621 -10.08135 -10.07591 -10.07167
  Beta  occ. eigenvalues --  -10.06989 -10.06811 -10.06728 -10.06344  -1.00088
  Beta  occ. eigenvalues --   -0.92181  -0.90565  -0.72007  -0.70966  -0.67644
  Beta  occ. eigenvalues --   -0.63742  -0.61719  -0.58621  -0.55082  -0.53773
  Beta  occ. eigenvalues --   -0.50689  -0.47233  -0.44596  -0.42608  -0.41333
  Beta  occ. eigenvalues --   -0.38943  -0.37836  -0.37115  -0.36367  -0.35609
  Beta  occ. eigenvalues --   -0.34523  -0.33912  -0.32944  -0.32669  -0.30343
  Beta  occ. eigenvalues --   -0.29780  -0.29067  -0.27956  -0.26848  -0.26401
  Beta  occ. eigenvalues --   -0.26106  -0.25684  -0.25171  -0.24971  -0.23880
  Beta  occ. eigenvalues --   -0.21929  -0.18421  -0.18021  -0.16953  -0.14989
  Beta virt. eigenvalues --    0.06222   0.06999   0.07277   0.08261   0.08341
  Beta virt. eigenvalues --    0.08721   0.09223   0.10104   0.10343   0.10667
  Beta virt. eigenvalues --    0.10829   0.11234   0.11616   0.12493   0.12935

 Mulliken charges and spin densities:
               1          2
     1  C    0.415590  -0.933967
     2  C   -0.591895  -0.030328
     3  C    0.198388   0.028558
     4  C   -0.431321   0.232913
     5  C    0.556959  -0.634041
     6  C   -0.219453  -0.402214
     7  C    0.724106  -0.417452
     8  C   -1.780085   0.825439
     9  O   -0.062796   0.046302
    10  C    0.839282  -0.976912
    11  C    0.765242  -0.816731
    12  O   -0.154949   0.043645
    13  C    0.335702  -0.660575
    14  O   -0.236136  -0.001644
    15  H   -0.094304   0.235117
    16  H   -0.472595   0.621840
    17  H   -0.080190   0.223734
    18  H    0.051603   0.085511
    19  H    0.054665   0.068479
    20  H    0.105003   0.105480
    21  H    0.098192   0.061374
    22  H   -0.026343   0.216305
    23  H    0.125145   0.071577
    24  H   -0.295795   0.455414
    25  H    0.219977  -0.055379
    26  H   -0.048835   0.260810
    27  H   -0.028910   0.161568
    28  H   -0.673434   0.857299
    29  H   -0.663557   0.829457
    30  H   -0.115215   0.268231
    31  H    0.098630   0.045431
    32  H   -0.036829   0.200209
    33  H    0.222102  -0.093914
    34  H    0.202056   0.078465
 Sum of Mulliken charges =  -1.00000   1.00000

 Dipole moment (field-independent basis, Debye):
    X=             -2.5282    Y=             -0.5037    Z=             -1.5842  Tot=              3.0258
 Quadrupole moment (field-independent basis, Debye-Ang):
   XX=           -197.5141   YY=           -121.5683   ZZ=           -123.9103
   XY=             -7.0746   XZ=              3.9953   YZ=              3.6586

 Summary of Natural Population Analysis:

                                       Natural Population
                Natural  -----------------------------------------------
    Atom  No    Charge         Core      Valence    Rydberg      Total
 -----------------------------------------------------------------------
      C    1   -0.28919      0.99967     2.28441    0.00510     3.28919
      C    2   -0.20533      0.99963     2.19618    0.00952     3.20533
      C    3   -0.08929      0.99951     2.08110    0.00868     3.08929
      C    4   -0.11090      0.99949     2.10122    0.01019     3.11090
      C    5    0.05252      0.99954     1.93208    0.01586     2.94748
      C    6   -0.19690      0.99960     2.18869    0.00861     3.19690
      C    7   -0.21411      0.99954     2.20359    0.01098     3.21411
      C    8    0.30192      0.99957     1.67730    0.02121     2.69808
      O    9   -0.30566      0.99987     3.29687    0.00891     4.30566
      C   10   -0.02343      0.99959     2.01130    0.01254     3.02343
      C   11   -0.01824      0.99958     2.00653    0.01213     3.01824
      O   12   -0.32861      0.99987     3.31826    0.01048     4.32861
      C   13   -0.30593      0.99957     2.30025    0.00611     3.30593
      O   14   -0.38417      0.99989     3.37761    0.00667     4.38417
      H   15    0.09886      0.00000     0.39997    0.00117     0.40114
      H   16    0.10025      0.00000     0.39861    0.00115     0.39975
      H   17    0.09758      0.00000     0.40132    0.00110     0.40242
      H   18    0.09938      0.00000     0.39952    0.00110     0.40062
      H   19    0.09822      0.00000     0.40076    0.00102     0.40178
      H   20    0.10229      0.00000     0.39627    0.00144     0.39771
      H   21    0.09550      0.00000     0.40306    0.00144     0.40450
      H   22    0.08125      0.00000     0.41731    0.00144     0.41875
      H   23    0.10291      0.00000     0.39551    0.00158     0.39709
      H   24    0.10373      0.00000     0.39493    0.00134     0.39627
      H   25    0.10462      0.00000     0.39389    0.00149     0.39538
      H   26    0.11195      0.00000     0.38667    0.00138     0.38805
      H   27    0.08057      0.00000     0.41788    0.00155     0.41943
      H   28    0.09852      0.00000     0.39902    0.00246     0.40148
      H   29    0.09513      0.00000     0.40242    0.00245     0.40487
      H   30    0.08393      0.00000     0.41381    0.00226     0.41607
      H   31    0.10100      0.00000     0.39797    0.00104     0.39900
      H   32    0.10162      0.00000     0.39741    0.00097     0.39838
      H   33    0.11425      0.00000     0.38434    0.00141     0.38575
      H   34    0.24577      0.00000     0.25079    0.00344     0.25423
 =======================================================================
   * Total *   -0.00000     13.99491    40.82686    0.17823    55.00000

 Normal termination of Gaussian 16 at Thu Dec 10 10:14:52 2020.
