 Gaussian 16, Revision A.03,

 -----------------------------------------------------------
 # opt freq B3LYP/6-31G(d) empiricaldispersion=gd3bj scf=xqc
 -----------------------------------------------------------

 -------------------------------
 CID_149915120_JID_5762_neutraal
 -------------------------------
 Symbolic Z-matrix:
 Charge =  0 Multiplicity = 1

 SCF Done:  E(RB3LYP) =  -646.606942175     A.U. after   16 cycles
 SCF Done:  E(RB3LYP) =  -646.608569839     A.U. after   14 cycles
 SCF Done:  E(RB3LYP) =  -646.609833250     A.U. after   14 cycles
 SCF Done:  E(RB3LYP) =  -646.610186397     A.U. after   13 cycles
 SCF Done:  E(RB3LYP) =  -646.610367429     A.U. after   12 cycles
 SCF Done:  E(RB3LYP) =  -646.610375961     A.U. after   12 cycles
 SCF Done:  E(RB3LYP) =  -646.610388903     A.U. after   10 cycles
 SCF Done:  E(RB3LYP) =  -646.610391377     A.U. after   10 cycles
 SCF Done:  E(RB3LYP) =  -646.610391005     A.U. after   10 cycles
 SCF Done:  E(RB3LYP) =  -646.610391348     A.U. after    8 cycles
 Optimization completed.
    -- Stationary point found.
 Normal termination of Gaussian 16 at Thu Dec 10 16:48:53 2020.

 --------------------------------------------------------------------
 #N Geom=AllCheck Guess=TCheck SCRF=Check GenChk RB3LYP/6-31G(d) Freq
 --------------------------------------------------------------------

 Structure from the checkpoint file:  "JID_5762.chk"
 -------------------------------
 CID_149915120_JID_5762_neutraal
 -------------------------------
 Charge =  0 Multiplicity = 1

 SCF Done:  E(RB3LYP) =  -646.610391348     A.U. after    1 cycles

  Exact polarizability: 134.679   0.183 124.914   9.223  -7.219 111.460
 Approx polarizability: 200.316  -5.836 197.645  30.247 -30.474 198.559

                      1                      2                      3
                      A                      A                      A
 Frequencies --     47.8353               105.5417               135.0988
 Red. masses --     10.8128                 6.0707                 8.6283
 Frc consts  --      0.0146                 0.0398                 0.0928
 IR Inten    --      0.5271                 0.8265                 2.8905

                      4                      5                      6
                      A                      A                      A
 Frequencies --    143.5429               215.0215               264.5957
 Red. masses --      6.8755                 6.6971                 3.8661
 Frc consts  --      0.0835                 0.1824                 0.1595
 IR Inten    --      3.2805                 6.2777                 2.6624

                      7                      8                      9
                      A                      A                      A
 Frequencies --    322.7845               349.5861               358.7723
 Red. masses --      2.2917                 4.6121                 3.2853
 Frc consts  --      0.1407                 0.3321                 0.2491
 IR Inten    --      0.7874                 0.4870                 1.0580

                     10                     11                     12
                      A                      A                      A
 Frequencies --    390.5199               393.9997               425.9043
 Red. masses --      2.1193                 3.8911                 5.1177
 Frc consts  --      0.1904                 0.3559                 0.5470
 IR Inten    --      0.4900                 0.1217                 0.4016

                     13                     14                     15
                      A                      A                      A
 Frequencies --    452.0233               482.3141               518.5318
 Red. masses --      1.8695                 4.2564                 2.2230
 Frc consts  --      0.2251                 0.5834                 0.3522
 IR Inten    --      0.1166                 0.0760                 0.6474

                     16                     17                     18
                      A                      A                      A
 Frequencies --    546.4231               566.3675               569.2411
 Red. masses --      6.6134                 8.3382                 7.6875
 Frc consts  --      1.1634                 1.5759                 1.4677
 IR Inten    --      0.2960                 5.0137                 7.3049

                     19                     20                     21
                      A                      A                      A
 Frequencies --    649.5596               661.8838               684.8923
 Red. masses --      4.4345                 4.8045                 5.2880
 Frc consts  --      1.1024                 1.2401                 1.4614
 IR Inten    --      0.2625                 3.5693                 4.8865

                     22                     23                     24
                      A                      A                      A
 Frequencies --    779.2329               788.8371               822.1409
 Red. masses --      4.0399                 3.9645                 2.8917
 Frc consts  --      1.4453                 1.4535                 1.1516
 IR Inten    --      6.8925                 7.3243                 2.1209

                     25                     26                     27
                      A                      A                      A
 Frequencies --    842.5323               882.7113               899.0021
 Red. masses --      2.6206                 3.1629                 1.6582
 Frc consts  --      1.0960                 1.4520                 0.7896
 IR Inten    --      4.9260                 5.4882                 0.8296

                     28                     29                     30
                      A                      A                      A
 Frequencies --    902.9453               935.9347               948.9896
 Red. masses --      1.5656                 3.0576                 2.1351
 Frc consts  --      0.7521                 1.5780                 1.1329
 IR Inten    --      0.0349                 3.5282                 0.2114

                     31                     32                     33
                      A                      A                      A
 Frequencies --    969.1569               983.2371               999.9315
 Red. masses --      2.3985                 2.3265                 2.8256
 Frc consts  --      1.3273                 1.3252                 1.6646
 IR Inten    --      2.2503                 0.3544                22.8434

                     34                     35                     36
                      A                      A                      A
 Frequencies --   1011.9919              1044.7462              1061.5486
 Red. masses --      2.3955                 2.0593                 2.0091
 Frc consts  --      1.4454                 1.3243                 1.3339
 IR Inten    --      3.4187                 0.5345                 0.3216

                     37                     38                     39
                      A                      A                      A
 Frequencies --   1087.0624              1109.8039              1126.3598
 Red. masses --      1.9016                 1.6140                 1.6764
 Frc consts  --      1.3240                 1.1713                 1.2531
 IR Inten    --      2.1806                 0.7529                 2.5848

                     40                     41                     42
                      A                      A                      A
 Frequencies --   1133.1612              1146.5696              1157.3986
 Red. masses --      1.4889                 1.0283                 4.2409
 Frc consts  --      1.1264                 0.7964                 3.3471
 IR Inten    --      4.2172                 0.1124                 1.4613

                     43                     44                     45
                      A                      A                      A
 Frequencies --   1185.4408              1214.3166              1240.7403
 Red. masses --      1.3192                 1.1983                 1.3090
 Frc consts  --      1.0923                 1.0411                 1.1873
 IR Inten    --      0.5963                 0.2015                 0.4186

                     46                     47                     48
                      A                      A                      A
 Frequencies --   1296.1739              1301.2953              1327.8850
 Red. masses --      1.4000                 1.5341                 1.7248
 Frc consts  --      1.3858                 1.5306                 1.7919
 IR Inten    --      0.8119                 1.7128                13.4103

                     49                     50                     51
                      A                      A                      A
 Frequencies --   1331.3089              1340.0881              1353.1106
 Red. masses --      1.6877                 2.9011                 1.6406
 Frc consts  --      1.7623                 3.0695                 1.7698
 IR Inten    --      0.6924                82.5777                 8.5202

                     52                     53                     54
                      A                      A                      A
 Frequencies --   1359.4124              1365.4661              1370.0597
 Red. masses --      1.8484                 1.5378                 1.3289
 Frc consts  --      2.0126                 1.6893                 1.4696
 IR Inten    --      9.5856                 1.5732                 0.2367

                     55                     56                     57
                      A                      A                      A
 Frequencies --   1393.1522              1397.9732              1403.0636
 Red. masses --      1.4851                 1.5889                 1.5001
 Frc consts  --      1.6982                 1.8296                 1.7399
 IR Inten    --      0.1592                 1.6881                 1.3978

                     58                     59                     60
                      A                      A                      A
 Frequencies --   1415.9258              1418.8474              1440.5189
 Red. masses --      1.5033                 1.4879                 1.4200
 Frc consts  --      1.7757                 1.7648                 1.7361
 IR Inten    --      0.6542                 0.2161                16.1653

                     61                     62                     63
                      A                      A                      A
 Frequencies --   1512.7965              1516.4234              1527.5232
 Red. masses --      1.0856                 1.0933                 1.0921
 Frc consts  --      1.4638                 1.4813                 1.5014
 IR Inten    --      1.1391                 3.5490                 9.7920

                     64                     65                     66
                      A                      A                      A
 Frequencies --   1532.6829              1548.6774              2250.9114
 Red. masses --      1.0903                 1.0885                13.8626
 Frc consts  --      1.5090                 1.5381                41.3820
 IR Inten    --     15.4968                 4.0576               433.0356

                     67                     68                     69
                      A                      A                      A
 Frequencies --   2363.6282              3037.7856              3040.1838
 Red. masses --     12.6985                 1.0616                 1.0623
 Frc consts  --     41.7986                 5.7719                 5.7847
 IR Inten    --     10.0352                19.9162                18.8277

                     70                     71                     72
                      A                      A                      A
 Frequencies --   3052.3346              3053.6459              3062.1799
 Red. masses --      1.0708                 1.0665                 1.0768
 Frc consts  --      5.8780                 5.8593                 5.9492
 IR Inten    --     10.1120                 9.2929                36.2139

                     73                     74                     75
                      A                      A                      A
 Frequencies --   3066.0585              3071.9129              3074.8871
 Red. masses --      1.0769                 1.0785                 1.0847
 Frc consts  --      5.9649                 5.9965                 6.0428
 IR Inten    --     71.4359                59.7695                13.0704

                     76                     77                     78
                      A                      A                      A
 Frequencies --   3077.3003              3082.0835              3096.4405
 Red. masses --      1.1027                 1.1021                 1.0940
 Frc consts  --      6.1525                 6.1684                 6.1801
 IR Inten    --     18.3257                66.8027                 7.2571

                     79                     80                     81
                      A                      A                      A
 Frequencies --   3101.2127              3107.8511              3125.3472
 Red. masses --      1.0974                 1.0962                 1.0972
 Frc consts  --      6.2187                 6.2384                 6.3145
 IR Inten    --     43.4992                17.8648                16.3708

 - Thermochemistry -
 -------------------
 Temperature   298.150 Kelvin.  Pressure   1.00000 Atm.
 Atom     1 has atomic number  6 and mass  12.00000

 Molecular mass:   202.12185 amu.
 Principal axes and moments of inertia in atomic units:
                           1         2         3
     Eigenvalues --  1980.152312712.837123445.24321
           X            0.99999   0.00396   0.00240
           Y           -0.00395   0.99999  -0.00318
           Z           -0.00241   0.00317   0.99999
 This molecule is an asymmetric top.
 Rotational symmetry number  1.
 Warning -- assumption of classical behavior for rotation
           may cause significant error
 Rotational temperatures (Kelvin)      0.04374     0.03193     0.02514
 Rotational constants (GHZ):           0.91142     0.66526     0.52384
 Zero-point vibrational energy     648222.7 (Joules/Mol)
                                  154.92895 (Kcal/Mol)
 Warning -- explicit consideration of  18 degrees of freedom as
           vibrations may cause significant error
 Vibrational temperatures:     68.82   151.85   194.38   206.53   309.37
          (Kelvin)            380.69   464.41   502.98   516.19   561.87
                              566.88   612.78   650.36   693.94   746.05
                              786.18   814.88   819.01   934.57   952.30
                              985.41  1121.14  1134.96  1182.88  1212.22
                             1270.02  1293.46  1299.14  1346.60  1365.38
                             1394.40  1414.66  1438.68  1456.03  1503.16
                             1527.33  1564.04  1596.76  1620.58  1630.37
                             1649.66  1665.24  1705.58  1747.13  1785.15
                             1864.91  1872.27  1910.53  1915.46  1928.09
                             1946.82  1955.89  1964.60  1971.21  2004.44
                             2011.37  2018.70  2037.20  2041.40  2072.59
                             2176.58  2181.80  2197.77  2205.19  2228.20
                             3238.56  3400.73  4370.70  4374.15  4391.63
                             4393.52  4405.79  4411.37  4419.80  4424.08
                             4427.55  4434.43  4455.09  4461.95  4471.50
                             4496.68

 Zero-point correction=                           0.246895 (Hartree/Particle)
 Thermal correction to Energy=                    0.258396
 Thermal correction to Enthalpy=                  0.259340
 Thermal correction to Gibbs Free Energy=         0.209628
 Sum of electronic and zero-point Energies=           -646.363496
 Sum of electronic and thermal Energies=              -646.351995
 Sum of electronic and thermal Enthalpies=            -646.351051
 Sum of electronic and thermal Free Energies=         -646.400763

                     E (Thermal)             CV                S
                      KCal/Mol        Cal/Mol-Kelvin    Cal/Mol-Kelvin
 Total                  162.146             47.752            104.628
 Electronic               0.000              0.000              0.000
 Translational            0.889              2.981             41.816
 Rotational               0.889              2.981             31.293
 Vibrational            160.368             41.790             31.519
 Vibration     1          0.595              1.978              4.905
 Vibration     2          0.605              1.945              3.349
 Vibration     3          0.613              1.918              2.872
 Vibration     4          0.616              1.910              2.756
 Vibration     5          0.645              1.818              2.001
 Vibration     6          0.671              1.738              1.631
 Vibration     7          0.708              1.630              1.296
 Vibration     8          0.727              1.576              1.168
 Vibration     9          0.734              1.557              1.127
 Vibration    10          0.758              1.490              0.998
 Vibration    11          0.761              1.483              0.985
 Vibration    12          0.788              1.414              0.872
 Vibration    13          0.811              1.356              0.790
 Vibration    14          0.839              1.289              0.704
 Vibration    15          0.874              1.209              0.613
 Vibration    16          0.902              1.148              0.552
 Vibration    17          0.922              1.104              0.511
 Vibration    18          0.925              1.098              0.506

 Optimization completed.
    -- Stationary point found.
 Normal termination of Gaussian 16 at Thu Dec 10 17:01:06 2020.

 ----------------------------------------------------------------------
 # B3LYP/6-311++G(d,p) empiricaldispersion=gd3bj scf=xqc pop=npa geom=c
 heck
 ----------------------------------------------------------------------

 ---------------------------------------
 CID_149915120_JID_5762_Energie_neutraal
 ---------------------------------------
 Structure from the checkpoint file:  "JID_5762.chk"
 Charge =  0 Multiplicity = 1

 SCF Done:  E(RB3LYP) =  -646.777596028     A.U. after   16 cycles
 Normal termination of Gaussian 16 at Thu Dec 10 17:06:19 2020.

 ----------------------------------------------------------------------
 # B3LYP/6-311++G(d,p) empiricaldispersion=gd3bj scf=xqc pop=npa geom=c
 heck
 ----------------------------------------------------------------------

 -------------------------------------
 CID_149915120_JID_5762_Energie_kation
 -------------------------------------
 Structure from the checkpoint file:  "JID_5762.chk"
 Charge =  1 Multiplicity = 2

 SCF Done:  E(UB3LYP) =  -646.434389200     A.U. after   29 cycles
 Normal termination of Gaussian 16 at Thu Dec 10 17:22:32 2020.
 Gaussian 16:  ES64L-G16RevA.03 25-Dec-2016

 ----------------------------------------------------------------------
 # B3LYP/6-311++G(d,p) empiricaldispersion=gd3bj scf=xqc pop=npa geom=c
 heck
 ----------------------------------------------------------------------

 ------------------------------------
 CID_149915120_JID_5762_Energie_anion
 ------------------------------------
 Structure from the checkpoint file:  "JID_5762.chk"
 Charge = -1 Multiplicity = 2

                         Standard orientation:
 ---------------------------------------------------------------------
 Center     Atomic      Atomic             Coordinates (Angstroms)
 Number     Number       Type             X           Y           Z
 ---------------------------------------------------------------------
      1          6           0       -2.356812   -0.140675    1.058837
      2          6           0       -2.269524    0.540514   -0.319153
      3          6           0       -1.913400   -0.506844   -1.390359
      4          6           0       -0.554682   -1.152355   -1.052451
      5          6           0       -0.645662   -1.831573    0.327812
      6          6           0       -1.000858   -0.784915    1.400006
      7          6           0        0.086703    0.303225    1.444573
      8          6           0        0.192734    0.995807    0.058459
      9          6           0       -1.184748    1.631297   -0.285374
     10          6           0        0.515738   -0.038898   -1.065396
     11          7           0        1.906623   -0.527428   -1.078358
     12          7           0        2.370952   -1.146838   -0.119449
     13          7           0        2.957177   -1.729175    0.671462
     14          6           0        1.218991    2.042413    0.094878
     15          7           0        2.010095    2.890507    0.141199
     16          1           0       -3.144127   -0.905120    1.049608
     17          1           0       -2.629630    0.594886    1.826590
     18          1           0       -3.230681    1.007361   -0.565171
     19          1           0       -1.874468   -0.038586   -2.382373
     20          1           0       -2.687771   -1.282808   -1.431212
     21          1           0       -0.284959   -1.886602   -1.819561
     22          1           0        0.288643   -2.341312    0.583115
     23          1           0       -1.421416   -2.606717    0.291953
     24          1           0       -1.055430   -1.268377    2.382345
     25          1           0       -0.164609    1.064113    2.192510
     26          1           0        1.051205   -0.118350    1.739762
     27          1           0       -1.119392    2.144890   -1.251649
     28          1           0       -1.422966    2.389487    0.469169
     29          1           0        0.450801    0.489701   -2.020053
 ---------------------------------------------------------------------

 SCF Done:  E(UB3LYP) =  -646.776792048     A.U. after   32 cycles

 The electronic state is 2-A.
 Alpha  occ. eigenvalues --  -14.35190 -14.24971 -14.24141 -14.21209 -10.12807
 Alpha  occ. eigenvalues --  -10.12527 -10.10912 -10.08351 -10.08341 -10.08199
 Alpha  occ. eigenvalues --  -10.08151 -10.07918 -10.06924 -10.06789 -10.06694
 Alpha  occ. eigenvalues --   -1.01787  -0.86348  -0.81207  -0.78456  -0.70297
 Alpha  occ. eigenvalues --   -0.68808  -0.68200  -0.60188  -0.58345  -0.54370
 Alpha  occ. eigenvalues --   -0.50920  -0.50011  -0.46769  -0.41631  -0.40749
 Alpha  occ. eigenvalues --   -0.40227  -0.39326  -0.36359  -0.35836  -0.34131
 Alpha  occ. eigenvalues --   -0.33678  -0.33112  -0.32921  -0.32326  -0.31320
 Alpha  occ. eigenvalues --   -0.30533  -0.27814  -0.27089  -0.26406  -0.25897
 Alpha  occ. eigenvalues --   -0.24664  -0.24410  -0.22971  -0.22524  -0.21646
 Alpha  occ. eigenvalues --   -0.20368  -0.19716  -0.17797  -0.14049   0.03806
 Alpha virt. eigenvalues --    0.06126   0.07455   0.07540   0.08433   0.09549
 Alpha virt. eigenvalues --    0.10117   0.10341   0.10722   0.11372   0.11935
 Alpha virt. eigenvalues --    0.12455   0.12590   0.12966   0.13357   0.13501

  Beta  occ. eigenvalues --  -14.34982 -14.24662 -14.24183 -14.21205 -10.12806
  Beta  occ. eigenvalues --  -10.12455 -10.10907 -10.08333 -10.08332 -10.08197
  Beta  occ. eigenvalues --  -10.08144 -10.07907 -10.06911 -10.06761 -10.06665
  Beta  occ. eigenvalues --   -1.01364  -0.86138  -0.81182  -0.78412  -0.70259
  Beta  occ. eigenvalues --   -0.68742  -0.68154  -0.60057  -0.58306  -0.54325
  Beta  occ. eigenvalues --   -0.50848  -0.49963  -0.46672  -0.41564  -0.40233
  Beta  occ. eigenvalues --   -0.39980  -0.39179  -0.36318  -0.35446  -0.33801
  Beta  occ. eigenvalues --   -0.33633  -0.33066  -0.32773  -0.32123  -0.31253
  Beta  occ. eigenvalues --   -0.30398  -0.27737  -0.27081  -0.26361  -0.25830
  Beta  occ. eigenvalues --   -0.24623  -0.24376  -0.22929  -0.22505  -0.21591
  Beta  occ. eigenvalues --   -0.20269  -0.19676  -0.17294  -0.13959
  Beta virt. eigenvalues --    0.06379   0.07782   0.08242   0.08551   0.09143
  Beta virt. eigenvalues --    0.09994   0.10408   0.10638   0.11122   0.11678
  Beta virt. eigenvalues --    0.12235   0.12526   0.12702   0.13190   0.13591

 Mulliken charges and spin densities:
               1          2
     1  C    1.583303  -2.336983
     2  C   -1.481992   1.975731
     3  C    1.631061  -2.475119
     4  C   -0.995448   1.316448
     5  C    0.380410  -1.038347
     6  C   -0.810160   1.127753
     7  C   -0.831757   0.113645
     8  C    0.213411   1.426683
     9  C    0.413206  -1.367197
    10  C   -0.332208  -0.322342
    11  N   -0.631120   0.174066
    12  N    0.837392  -0.019533
    13  N   -0.295691   0.043432
    14  C    1.333533  -2.114506
    15  N   -0.234740   0.033150
    16  H   -0.339512   0.511088
    17  H   -0.166042   0.305375
    18  H   -0.650974   0.912261
    19  H   -0.054590   0.192483
    20  H   -0.447198   0.614589
    21  H   -0.189133   0.442116
    22  H    0.169867  -0.037107
    23  H   -0.163853   0.339515
    24  H    0.044115   0.189257
    25  H   -0.006639   0.200968
    26  H    0.155492   0.002873
    27  H   -0.002921   0.180896
    28  H   -0.064421   0.246046
    29  H   -0.063391   0.362758
 Sum of Mulliken charges =  -1.00000   1.00000

 Dipole moment (field-independent basis, Debye):
    X=              0.7377    Y=             -0.6234    Z=              1.3177  Tot=              1.6338
 Quadrupole moment (field-independent basis, Debye-Ang):
   XX=           -157.3831   YY=           -133.5426   ZZ=           -119.5888
   XY=             -5.5142   XZ=             -1.4927   YZ=             -1.6665

 Summary of Natural Population Analysis:

                                       Natural Population
                Natural  -----------------------------------------------
    Atom  No    Charge         Core      Valence    Rydberg      Total
 -----------------------------------------------------------------------
      C    1   -0.18756      0.99960     2.17753    0.01043     3.18756
      C    2   -0.11217      0.99959     2.09951    0.01308     3.11217
      C    3   -0.18747      0.99960     2.17760    0.01026     3.18747
      C    4   -0.11508      0.99956     2.10275    0.01276     3.11508
      C    5   -0.19254      0.99960     2.18375    0.00919     3.19254
      C    6   -0.11096      0.99959     2.09995    0.01142     3.11096
      C    7   -0.18319      0.99959     2.17393    0.00968     3.18319
      C    8   -0.09515      0.99945     2.08361    0.01209     3.09515
      C    9   -0.17771      0.99959     2.16722    0.01090     3.17771
      C   10    0.00121      0.99948     1.98317    0.01613     2.99879
      N   11   -0.19493      0.99968     2.68018    0.01507     3.69493
      N   12    0.12963      0.99969     2.35478    0.01591     3.37037
      N   13   -0.02500      0.99982     2.51293    0.01225     3.52500
      C   14    0.17484      0.99962     1.80336    0.02218     2.82516
      N   15   -0.18467      0.99979     2.67405    0.01084     3.68467
      H   16    0.10342      0.00000     0.39491    0.00167     0.39658
      H   17    0.09991      0.00000     0.39872    0.00137     0.40009
      H   18    0.10632      0.00000     0.39132    0.00236     0.39368
      H   19    0.10054      0.00000     0.39803    0.00143     0.39946
      H   20    0.10523      0.00000     0.39265    0.00211     0.39477
      H   21    0.10844      0.00000     0.38984    0.00172     0.39156
      H   22    0.10390      0.00000     0.39482    0.00127     0.39610
      H   23    0.10339      0.00000     0.39548    0.00113     0.39661
      H   24    0.10182      0.00000     0.39692    0.00126     0.39818
      H   25    0.10425      0.00000     0.39464    0.00111     0.39575
      H   26    0.10863      0.00000     0.39008    0.00129     0.39137
      H   27    0.10422      0.00000     0.39431    0.00147     0.39578
      H   28    0.10542      0.00000     0.39306    0.00151     0.39458
      H   29    0.10522      0.00000     0.39268    0.00210     0.39478
 =======================================================================
   * Total *    0.00000     14.99425    38.79177    0.21398    54.00000

 Normal termination of Gaussian 16 at Thu Dec 10 17:35:56 2020.
