 Gaussian 16, Revision A.03,

 -----------------------------------------------------------
 # opt freq B3LYP/6-31G(d) empiricaldispersion=gd3bj scf=xqc
 -----------------------------------------------------------

 ------------------------------
 CID_83990397_JID_7906_neutraal
 ------------------------------
 Symbolic Z-matrix:
 Charge =  0 Multiplicity = 1

 SCF Done:  E(RB3LYP) =  -805.780532884     A.U. after   14 cycles
 SCF Done:  E(RB3LYP) =  -805.786505250     A.U. after   13 cycles
 SCF Done:  E(RB3LYP) =  -805.790856904     A.U. after   13 cycles
 SCF Done:  E(RB3LYP) =  -805.792914141     A.U. after   12 cycles
 SCF Done:  E(RB3LYP) =  -805.794138802     A.U. after   12 cycles
 SCF Done:  E(RB3LYP) =  -805.794877982     A.U. after   14 cycles
 SCF Done:  E(RB3LYP) =  -805.796384833     A.U. after   12 cycles
 SCF Done:  E(RB3LYP) =  -805.798144761     A.U. after   12 cycles
 SCF Done:  E(RB3LYP) =  -805.796370228     A.U. after   14 cycles
 SCF Done:  E(RB3LYP) =  -805.799809375     A.U. after   12 cycles
 SCF Done:  E(RB3LYP) =  -805.802199047     A.U. after    9 cycles
 SCF Done:  E(RB3LYP) =  -805.802201005     A.U. after    9 cycles
 SCF Done:  E(RB3LYP) =  -805.802201496     A.U. after    8 cycles
 SCF Done:  E(RB3LYP) =  -805.802201681     A.U. after    7 cycles
 SCF Done:  E(RB3LYP) =  -805.802201722     A.U. after    7 cycles
 Optimization completed.
    -- Stationary point found.
 Normal termination of Gaussian 16 at Fri Dec 11 13:17:18 2020.

 --------------------------------------------------------------------
 #N Geom=AllCheck Guess=TCheck SCRF=Check GenChk RB3LYP/6-31G(d) Freq
 --------------------------------------------------------------------

 Structure from the checkpoint file:  "JID_7906.chk"
 ------------------------------
 CID_83990397_JID_7906_neutraal
 ------------------------------
 Charge =  0 Multiplicity = 1

 SCF Done:  E(RB3LYP) =  -805.802201723     A.U. after    1 cycles

  Exact polarizability: 165.516   5.923 144.159  -5.967   4.417 125.373
 Approx polarizability: 218.136  15.559 193.488  -7.073   8.635 200.274

                      1                      2                      3
                      A                      A                      A
 Frequencies --     26.3329                29.7831                43.4872
 Red. masses --      6.8900                 3.3461                 3.1991
 Frc consts  --      0.0028                 0.0017                 0.0036
 IR Inten    --      0.9734                 0.3545                 0.5841

                      4                      5                      6
                      A                      A                      A
 Frequencies --     55.8216                65.6661                72.1424
 Red. masses --      3.3646                 3.2366                 3.9928
 Frc consts  --      0.0062                 0.0082                 0.0122
 IR Inten    --      1.8765                 0.2173                 0.1268

                      7                      8                      9
                      A                      A                      A
 Frequencies --     83.5591               114.7948               147.5667
 Red. masses --      3.0265                 3.1435                 2.6363
 Frc consts  --      0.0125                 0.0244                 0.0338
 IR Inten    --      1.4894                 0.6718                 3.6479

                     10                     11                     12
                      A                      A                      A
 Frequencies --    178.0100               193.4925               209.2070
 Red. masses --      2.6546                 2.8289                 2.4566
 Frc consts  --      0.0496                 0.0624                 0.0633
 IR Inten    --      0.7745                 0.5151                 1.5058

                     13                     14                     15
                      A                      A                      A
 Frequencies --    239.3886               259.7529               276.6877
 Red. masses --      2.9537                 1.6464                 1.5602
 Frc consts  --      0.0997                 0.0655                 0.0704
 IR Inten    --      2.1639                 1.6873                 0.3815

                     16                     17                     18
                      A                      A                      A
 Frequencies --    296.5180               309.1118               337.3282
 Red. masses --      2.7581                 2.1118                 3.0578
 Frc consts  --      0.1429                 0.1189                 0.2050
 IR Inten    --      1.9650                 4.8034                 2.8369

                     19                     20                     21
                      A                      A                      A
 Frequencies --    397.8423               399.3394               417.7553
 Red. masses --      3.1164                 3.9339                 2.5434
 Frc consts  --      0.2906                 0.3696                 0.2615
 IR Inten    --      7.6959                 9.0112                 1.8039

                     22                     23                     24
                      A                      A                      A
 Frequencies --    445.6782               482.5345               517.6535
 Red. masses --      2.7684                 2.2714                 3.2010
 Frc consts  --      0.3240                 0.3116                 0.5054
 IR Inten    --      0.9971                 1.7835                 4.1918

                     25                     26                     27
                      A                      A                      A
 Frequencies --    533.8829               575.9709               603.3103
 Red. masses --      2.9419                 2.8487                 2.3183
 Frc consts  --      0.4941                 0.5568                 0.4972
 IR Inten    --      7.7044                 9.2860                34.8987

                     28                     29                     30
                      A                      A                      A
 Frequencies --    623.1703               640.9858               714.0102
 Red. masses --      1.8313                 2.7418                 2.7683
 Frc consts  --      0.4190                 0.6637                 0.8315
 IR Inten    --     75.8073                26.6035                14.3592

                     31                     32                     33
                      A                      A                      A
 Frequencies --    749.9869               767.3656               780.2869
 Red. masses --      2.2126                 2.1227                 2.5936
 Frc consts  --      0.7333                 0.7365                 0.9304
 IR Inten    --     54.6488                33.2084                 4.0728

                     34                     35                     36
                      A                      A                      A
 Frequencies --    828.4602               839.7095               855.3508
 Red. masses --      1.2355                 1.8736                 2.2414
 Frc consts  --      0.4996                 0.7784                 0.9662
 IR Inten    --      1.0897                 8.5912                 0.8695

                     37                     38                     39
                      A                      A                      A
 Frequencies --    882.9239               893.9758               906.0124
 Red. masses --      2.4797                 1.7553                 2.3484
 Frc consts  --      1.1389                 0.8265                 1.1358
 IR Inten    --      1.9869                19.7084                 3.2747

                     40                     41                     42
                      A                      A                      A
 Frequencies --    928.2580               935.3639               952.2503
 Red. masses --      1.5992                 2.4469                 2.2465
 Frc consts  --      0.8119                 1.2613                 1.2002
 IR Inten    --      7.7591                16.5522                 9.4865

                     43                     44                     45
                      A                      A                      A
 Frequencies --    959.9811               986.0477              1035.8890
 Red. masses --      1.6802                 2.8175                 2.5400
 Frc consts  --      0.9123                 1.6140                 1.6058
 IR Inten    --      8.1806                 3.4631                 3.8873

                     46                     47                     48
                      A                      A                      A
 Frequencies --   1072.6300              1076.3571              1099.8295
 Red. masses --      1.9954                 2.1982                 2.1252
 Frc consts  --      1.3527                 1.5005                 1.5146
 IR Inten    --      0.5087                 0.3904                32.4357

                     49                     50                     51
                      A                      A                      A
 Frequencies --   1108.7228              1110.1288              1129.7567
 Red. masses --      1.9172                 2.3150                 1.8989
 Frc consts  --      1.3886                 1.6809                 1.4280
 IR Inten    --      4.8742                 4.4471                43.1949

                     52                     53                     54
                      A                      A                      A
 Frequencies --   1158.6590              1160.7217              1179.8522
 Red. masses --      2.1913                 1.9731                 1.6571
 Frc consts  --      1.7333                 1.5662                 1.3591
 IR Inten    --     90.9816                15.4382               145.2029

                     55                     56                     57
                      A                      A                      A
 Frequencies --   1183.0565              1211.3044              1250.2520
 Red. masses --      1.6539                 2.0358                 1.8516
 Frc consts  --      1.3639                 1.7599                 1.7053
 IR Inten    --     29.7287               106.5293                52.3100

                     58                     59                     60
                      A                      A                      A
 Frequencies --   1269.1532              1288.2073              1301.7019
 Red. masses --      1.2971                 2.3537                 1.3499
 Frc consts  --      1.2310                 2.3013                 1.3476
 IR Inten    --      9.8086                64.6886                 1.6757

                     61                     62                     63
                      A                      A                      A
 Frequencies --   1306.4665              1317.3741              1327.2338
 Red. masses --      1.4639                 1.2469                 1.2740
 Frc consts  --      1.4722                 1.2750                 1.3222
 IR Inten    --      1.3085                15.3705                12.2403

                     64                     65                     66
                      A                      A                      A
 Frequencies --   1333.9055              1358.1728              1366.1735
 Red. masses --      1.3224                 1.3018                 1.4325
 Frc consts  --      1.3863                 1.4148                 1.5753
 IR Inten    --      5.9444                 2.7716                41.5435

                     67                     68                     69
                      A                      A                      A
 Frequencies --   1376.3327              1377.3824              1390.9651
 Red. masses --      1.3658                 2.0112                 1.3289
 Frc consts  --      1.5244                 2.2480                 1.5149
 IR Inten    --      0.9811                40.0969                 5.9892

                     70                     71                     72
                      A                      A                      A
 Frequencies --   1399.0887              1401.5321              1419.7778
 Red. masses --      1.3884                 1.4834                 1.3424
 Frc consts  --      1.6013                 1.7168                 1.5943
 IR Inten    --      5.1748                 2.4508                 4.5601

                     73                     74                     75
                      A                      A                      A
 Frequencies --   1422.8986              1437.5996              1444.9866
 Red. masses --      1.2907                 1.2803                 1.3628
 Frc consts  --      1.5397                 1.5590                 1.6766
 IR Inten    --      2.9991                17.0447                16.8497

                     76                     77                     78
                      A                      A                      A
 Frequencies --   1475.2528              1492.3893              1505.7139
 Red. masses --      2.3624                 1.0884                 1.1220
 Frc consts  --      3.0293                 1.4282                 1.4988
 IR Inten    --    133.7138                10.5446                11.7911

                     79                     80                     81
                      A                      A                      A
 Frequencies --   1510.8320              1511.5588              1513.8387
 Red. masses --      1.0982                 1.0972                 1.0960
 Frc consts  --      1.4769                 1.4771                 1.4798
 IR Inten    --      1.5615                14.7622                15.8151

                     82                     83                     84
                      A                      A                      A
 Frequencies --   1526.6940              1528.0841              1534.4274
 Red. masses --      1.0583                 1.0518                 1.1028
 Frc consts  --      1.4533                 1.4470                 1.5299
 IR Inten    --      4.5951                10.4698                 6.1068

                     85                     86                     87
                      A                      A                      A
 Frequencies --   1536.5363              1545.1147              1547.6393
 Red. masses --      1.1249                 1.0506                 1.0889
 Frc consts  --      1.5647                 1.4778                 1.5366
 IR Inten    --     20.6795                 6.6665                 3.7928

                     88                     89                     90
                      A                      A                      A
 Frequencies --   1740.7519              1850.0280              3003.9607
 Red. masses --      9.6554                 9.5713                 1.0645
 Frc consts  --     17.2383                19.3008                 5.6595
 IR Inten    --    262.0358               291.0508                33.2889

                     91                     92                     93
                      A                      A                      A
 Frequencies --   3029.1267              3043.2088              3045.5619
 Red. masses --      1.0625                 1.0746                 1.0418
 Frc consts  --      5.7441                 5.8635                 5.6936
 IR Inten    --     24.2911                19.6754                32.5384

                     94                     95                     96
                      A                      A                      A
 Frequencies --   3048.4377              3051.6252              3054.1085
 Red. masses --      1.0485                 1.0780                 1.0824
 Frc consts  --      5.7407                 5.9145                 5.9484
 IR Inten    --     21.5910                 6.2198                60.5722

                     97                     98                     99
                      A                      A                      A
 Frequencies --   3055.0642              3066.0711              3067.8981
 Red. masses --      1.0652                 1.0696                 1.0709
 Frc consts  --      5.8575                 5.9244                 5.9386
 IR Inten    --     21.3090                18.7052                55.5480

                    100                    101                    102
                      A                      A                      A
 Frequencies --   3069.4375              3094.0494              3099.6318
 Red. masses --      1.0988                 1.0829                 1.0964
 Frc consts  --      6.0997                 6.1078                 6.2066
 IR Inten    --     11.7035                19.9534                12.2738

                    103                    104                    105
                      A                      A                      A
 Frequencies --   3115.3026              3115.9561              3119.9308
 Red. masses --      1.0992                 1.1010                 1.1025
 Frc consts  --      6.2854                 6.2984                 6.3231
 IR Inten    --     52.1996                39.3322                21.9560

                    106                    107                    108
                      A                      A                      A
 Frequencies --   3130.6261              3144.7346              3164.7719
 Red. masses --      1.1035                 1.1006                 1.0945
 Frc consts  --      6.3721                 6.4130                 6.4589
 IR Inten    --     29.2417                24.6418                13.5921

                    109                    110                    111
                      A                      A                      A
 Frequencies --   3179.2524              3488.4251              3685.6732
 Red. masses --      1.0917                 1.0722                 1.0641
 Frc consts  --      6.5014                 7.6877                 8.5166
 IR Inten    --      3.9604                 1.5736                59.0302

 - Thermochemistry -
 -------------------
 Temperature   298.150 Kelvin.  Pressure   1.00000 Atm.
 Atom     1 has atomic number  6 and mass  12.00000

 Molecular mass:   242.16304 amu.
 Principal axes and moments of inertia in atomic units:
                           1         2         3
     Eigenvalues --  3556.989565418.758677535.01581
           X            0.99911  -0.03877  -0.01679
           Y            0.03863   0.99921  -0.00887
           Z            0.01712   0.00822   0.99982
 This molecule is an asymmetric top.
 Rotational symmetry number  1.
 Warning -- assumption of classical behavior for rotation
           may cause significant error
 Rotational temperatures (Kelvin)      0.02435     0.01598     0.01149
 Rotational constants (GHZ):           0.50738     0.33305     0.23951
 Zero-point vibrational energy     906557.5 (Joules/Mol)
                                  216.67245 (Kcal/Mol)
 Warning -- explicit consideration of  27 degrees of freedom as
           vibrations may cause significant error
 Vibrational temperatures:     37.89    42.85    62.57    80.31    94.48
          (Kelvin)            103.80   120.22   165.16   212.32   256.12
                              278.39   301.00   344.43   373.73   398.09
                              426.62   444.74   485.34   572.41   574.56
                              601.06   641.23   694.26   744.79   768.14
                              828.69   868.03   896.60   922.24  1027.30
                             1079.06  1104.07  1122.66  1191.97  1208.15
                             1230.66  1270.33  1286.23  1303.55  1335.56
                             1345.78  1370.08  1381.20  1418.70  1490.41
                             1543.28  1548.64  1582.41  1595.20  1597.23
                             1625.47  1667.05  1670.02  1697.54  1702.15
                             1742.80  1798.83  1826.03  1853.44  1872.86
                             1879.71  1895.41  1909.59  1919.19  1954.11
                             1965.62  1980.24  1981.75  2001.29  2012.98
                             2016.49  2042.74  2047.23  2068.39  2079.01
                             2122.56  2147.22  2166.39  2173.75  2174.80
                             2178.08  2196.57  2198.57  2207.70  2210.73
                             2223.08  2226.71  2504.55  2661.78  4322.03
                             4358.24  4378.50  4381.88  4386.02  4390.61
                             4394.18  4395.56  4411.39  4414.02  4416.24
                             4451.65  4459.68  4482.23  4483.17  4488.88
                             4504.27  4524.57  4553.40  4574.24  5019.07
                             5302.86

 Zero-point correction=                           0.345290 (Hartree/Particle)
 Thermal correction to Energy=                    0.363533
 Thermal correction to Enthalpy=                  0.364477
 Thermal correction to Gibbs Free Energy=         0.296971
 Sum of electronic and zero-point Energies=           -805.456912
 Sum of electronic and thermal Energies=              -805.438669
 Sum of electronic and thermal Enthalpies=            -805.437725
 Sum of electronic and thermal Free Energies=         -805.505230

                     E (Thermal)             CV                S
                      KCal/Mol        Cal/Mol-Kelvin    Cal/Mol-Kelvin
 Total                  228.120             67.568            142.078
 Electronic               0.000              0.000              0.000
 Translational            0.889              2.981             42.354
 Rotational               0.889              2.981             33.340
 Vibrational            226.343             61.607             66.383
 Vibration     1          0.593              1.985              6.088
 Vibration     2          0.594              1.984              5.844
 Vibration     3          0.595              1.980              5.094
 Vibration     4          0.596              1.975              4.600
 Vibration     5          0.597              1.971              4.279
 Vibration     6          0.598              1.967              4.094
 Vibration     7          0.600              1.960              3.805
 Vibration     8          0.608              1.937              3.186
 Vibration     9          0.617              1.905              2.703
 Vibration    10          0.628              1.869              2.349
 Vibration    11          0.635              1.849              2.194
 Vibration    12          0.642              1.827              2.051
 Vibration    13          0.657              1.780              1.807
 Vibration    14          0.668              1.746              1.663
 Vibration    15          0.678              1.717              1.554
 Vibration    16          0.690              1.680              1.436
 Vibration    17          0.698              1.656              1.367
 Vibration    18          0.718              1.601              1.225
 Vibration    19          0.764              1.475              0.971
 Vibration    20          0.765              1.472              0.965
 Vibration    21          0.781              1.432              0.900
 Vibration    22          0.805              1.370              0.809
 Vibration    23          0.839              1.289              0.703
 Vibration    24          0.873              1.211              0.615
 Vibration    25          0.889              1.175              0.579
 Vibration    26          0.932              1.083              0.493
 Vibration    27          0.962              1.025              0.444

                           ! Non-Optimized Parameters !
 Normal termination of Gaussian 16 at Fri Dec 11 13:32:45 2020.

 ----------------------------------------------------------------------
 # B3LYP/6-311++G(d,p) empiricaldispersion=gd3bj scf=xqc pop=npa geom=c
 heck
 ----------------------------------------------------------------------

 --------------------------------------
 CID_83990397_JID_7906_Energie_neutraal
 --------------------------------------
 Structure from the checkpoint file:  "JID_7906.chk"
 Charge =  0 Multiplicity = 1

 SCF Done:  E(RB3LYP) =  -806.044146074     A.U. after   15 cycles
 Normal termination of Gaussian 16 at Fri Dec 11 13:39:55 2020.

 ----------------------------------------------------------------------
 # B3LYP/6-311++G(d,p) empiricaldispersion=gd3bj scf=xqc pop=npa geom=c
 heck
 ----------------------------------------------------------------------

 ------------------------------------
 CID_83990397_JID_7906_Energie_kation
 ------------------------------------
 Structure from the checkpoint file:  "JID_7906.chk"
 Charge =  1 Multiplicity = 2

 SCF Done:  E(UB3LYP) =  -805.747679756     A.U. after   24 cycles
 Normal termination of Gaussian 16 at Fri Dec 11 13:54:50 2020.
 Gaussian 16:  ES64L-G16RevA.03 25-Dec-2016

 ----------------------------------------------------------------------
 # B3LYP/6-311++G(d,p) empiricaldispersion=gd3bj scf=xqc pop=npa geom=c
 heck
 ----------------------------------------------------------------------

 -----------------------------------
 CID_83990397_JID_7906_Energie_anion
 -----------------------------------
 Structure from the checkpoint file:  "JID_7906.chk"
 Charge = -1 Multiplicity = 2

                         Standard orientation:
 ---------------------------------------------------------------------
 Center     Atomic      Atomic             Coordinates (Angstroms)
 Number     Number       Type             X           Y           Z
 ---------------------------------------------------------------------
      1          6           0        4.040570   -2.472380    0.221157
      2          6           0        3.107681   -2.079737   -0.926748
      3          6           0        1.655313   -1.884349   -0.481089
      4          6           0        1.468012   -0.623802    0.365173
      5          8           0        2.372346    0.199863    0.492943
      6          7           0        0.250995   -0.454815    0.987073
      7          6           0       -0.959419   -1.189193    0.645126
      8          6           0       -1.859632   -0.331511   -0.276633
      9          6           0       -2.145591    1.031911    0.391295
     10          6           0       -0.846093    1.744346    0.805828
     11          6           0       -0.011575    0.797123    1.698228
     12          7           0       -0.136775    2.227062   -0.377620
     13          6           0        0.939484    3.182124   -0.097622
     14          6           0        1.695370    3.507608   -1.380886
     15          6           0       -3.136166   -1.063053   -0.624393
     16          8           0       -3.502152   -1.358469   -1.739458
     17          8           0       -3.857785   -1.378437    0.484739
     18          1           0        3.711019   -3.405107    0.696735
     19          1           0        4.064095   -1.686651    0.980977
     20          1           0        5.063297   -2.626601   -0.139939
     21          1           0        3.462283   -1.152192   -1.387304
     22          1           0        3.126086   -2.855781   -1.702037
     23          1           0        0.998753   -1.811617   -1.359714
     24          1           0        1.315190   -2.763643    0.081175
     25          1           0       -1.502947   -1.418284    1.569117
     26          1           0       -0.709099   -2.135849    0.167904
     27          1           0       -1.343378   -0.173391   -1.228535
     28          1           0       -2.701910    1.674738   -0.297215
     29          1           0       -2.768167    0.862270    1.277822
     30          1           0       -1.116433    2.626397    1.400339
     31          1           0        0.947436    1.236076    1.967109
     32          1           0       -0.561861    0.559647    2.618223
     33          1           0        0.275111    1.432560   -0.865010
     34          1           0        0.477715    4.091218    0.310233
     35          1           0        1.656658    2.810887    0.651254
     36          1           0        1.009660    3.868367   -2.154663
     37          1           0        2.458076    4.272438   -1.200778
     38          1           0        2.205860    2.613175   -1.758518
     39          1           0       -4.653964   -1.842561    0.164244
 ---------------------------------------------------------------------

 SCF Done:  E(UB3LYP) =  -806.034928759     A.U. after   33 cycles
 SCF Done:  E(UB3LYP) =  -806.034928759     a.u. after    1 cycles

 The electronic state is 2-A.
 Alpha  occ. eigenvalues --  -19.07271 -19.02340 -18.99920 -14.25502 -14.20865
 Alpha  occ. eigenvalues --  -10.21317 -10.18417 -10.12374 -10.11484 -10.10905
 Alpha  occ. eigenvalues --  -10.10464 -10.10273 -10.09101 -10.08381 -10.08058
 Alpha  occ. eigenvalues --  -10.07678 -10.06895  -1.01463  -0.95224  -0.92676
 Alpha  occ. eigenvalues --   -0.86029  -0.81859  -0.72432  -0.70821  -0.68450
 Alpha  occ. eigenvalues --   -0.64178  -0.62262  -0.58962  -0.58180  -0.52725
 Alpha  occ. eigenvalues --   -0.52480  -0.50889  -0.49222  -0.44587  -0.42342
 Alpha  occ. eigenvalues --   -0.41676  -0.40327  -0.38942  -0.38485  -0.38060
 Alpha  occ. eigenvalues --   -0.37476  -0.36770  -0.35706  -0.34725  -0.34349
 Alpha  occ. eigenvalues --   -0.33667  -0.32460  -0.31779  -0.30985  -0.30473
 Alpha  occ. eigenvalues --   -0.30060  -0.28966  -0.28605  -0.28122  -0.26534
 Alpha  occ. eigenvalues --   -0.26340  -0.25760  -0.25366  -0.25160  -0.24906
 Alpha  occ. eigenvalues --   -0.24495  -0.23178  -0.19056  -0.17273  -0.16258
 Alpha  occ. eigenvalues --   -0.13671   0.04016
 Alpha virt. eigenvalues --    0.05953   0.06271   0.06974   0.07846   0.07975
 Alpha virt. eigenvalues --    0.08355   0.08594   0.09100   0.09616   0.10245
 Alpha virt. eigenvalues --    0.10605   0.10712   0.11147   0.11483   0.11582

  Beta  occ. eigenvalues --  -19.07207 -19.02323 -18.99910 -14.25506 -14.20859
  Beta  occ. eigenvalues --  -10.21311 -10.18412 -10.12348 -10.11476 -10.10887
  Beta  occ. eigenvalues --  -10.10451 -10.10265 -10.09078 -10.08366 -10.08047
  Beta  occ. eigenvalues --  -10.07673 -10.06882  -1.01384  -0.95208  -0.92606
  Beta  occ. eigenvalues --   -0.86017  -0.81848  -0.72399  -0.70793  -0.68424
  Beta  occ. eigenvalues --   -0.64157  -0.62228  -0.58920  -0.58126  -0.52679
  Beta  occ. eigenvalues --   -0.52453  -0.50806  -0.49177  -0.44538  -0.42306
  Beta  occ. eigenvalues --   -0.41638  -0.40302  -0.38911  -0.38463  -0.38032
  Beta  occ. eigenvalues --   -0.37447  -0.36739  -0.35677  -0.34708  -0.34320
  Beta  occ. eigenvalues --   -0.33638  -0.32430  -0.31748  -0.30935  -0.30452
  Beta  occ. eigenvalues --   -0.30031  -0.28931  -0.28580  -0.28102  -0.26517
  Beta  occ. eigenvalues --   -0.26320  -0.25734  -0.25335  -0.25135  -0.24875
  Beta  occ. eigenvalues --   -0.24467  -0.23124  -0.19009  -0.17259  -0.16238
  Beta  occ. eigenvalues --   -0.13657
  Beta virt. eigenvalues --    0.05995   0.06534   0.07011   0.07498   0.08136
  Beta virt. eigenvalues --    0.08452   0.08690   0.08867   0.09201   0.09726
  Beta virt. eigenvalues --    0.10324   0.10816   0.11081   0.11395   0.11609

 Mulliken charges and spin densities:
               1          2
     1  C   -0.094624  -0.523815
     2  C    0.268619  -0.620141
     3  C    0.107773   0.031918
     4  C   -0.261774  -0.187931
     5  O   -0.266880   0.012244
     6  N    0.234257  -0.020397
     7  C   -0.492375  -0.121079
     8  C    0.081047   0.331622
     9  C    1.213821  -2.189515
    10  C   -1.305516   1.661896
    11  C    0.828878  -1.317921
    12  N    0.203189  -0.128580
    13  C   -0.046361  -0.111413
    14  C   -0.382041  -0.181436
    15  C    0.214958  -0.635035
    16  O   -0.258091   0.020945
    17  O   -0.199935   0.097950
    18  H   -0.038988   0.165101
    19  H    0.083370   0.095300
    20  H    0.031283   0.092774
    21  H    0.129984   0.013456
    22  H   -0.174931   0.332460
    23  H   -0.016619   0.196279
    24  H   -0.049757   0.225206
    25  H   -0.255301   0.514056
    26  H   -0.486416   0.740069
    27  H    0.157944   0.088215
    28  H    0.081856   0.108273
    29  H    0.017723   0.173866
    30  H   -0.283981   0.514145
    31  H    0.155882   0.067556
    32  H   -0.395423   0.568342
    33  H    0.270137  -0.052647
    34  H   -0.044765   0.174842
    35  H    0.178073  -0.050440
    36  H    0.111954   0.036348
    37  H    0.078884   0.039927
    38  H    0.082052   0.057837
    39  H   -0.477908   0.779724
 Sum of Mulliken charges =  -1.00000   1.00000

 Dipole moment (field-independent basis, Debye):
    X=              5.8322    Y=              4.3854    Z=             -1.4340  Tot=              7.4366
 Quadrupole moment (field-independent basis, Debye-Ang):
   XX=           -188.3058   YY=           -158.0258   ZZ=           -144.2878
   XY=             -8.5799   XZ=              1.6549   YZ=             -1.8238

 Summary of Natural Population Analysis:

                                       Natural Population
                Natural  -----------------------------------------------
    Atom  No    Charge         Core      Valence    Rydberg      Total
 -----------------------------------------------------------------------
      C    1   -0.28694      0.99966     2.28299    0.00428     3.28694
      C    2   -0.19013      0.99965     2.18170    0.00878     3.19013
      C    3   -0.23529      0.99959     2.22732    0.00839     3.23529
      C    4    0.34603      0.99964     1.62967    0.02467     2.65397
      O    5   -0.33172      0.99988     3.32677    0.00508     4.33172
      N    6   -0.25913      0.99965     2.74643    0.01306     3.75913
      C    7   -0.08103      0.99958     2.07024    0.01121     3.08103
      C    8   -0.16078      0.99953     2.14947    0.01178     3.16078
      C    9   -0.18710      0.99959     2.17740    0.01011     3.18710
      C   10   -0.01413      0.99958     2.00066    0.01389     3.01413
      C   11   -0.09649      0.99958     2.08530    0.01161     3.09649
      N   12   -0.34212      0.99973     2.83175    0.01063     3.84212
      C   13   -0.08690      0.99964     2.07863    0.00863     3.08690
      C   14   -0.28769      0.99967     2.28364    0.00439     3.28769
      C   15    0.41245      0.99967     1.56218    0.02571     2.58755
      O   16   -0.30207      0.99987     3.29610    0.00610     4.30207
      O   17   -0.34662      0.99988     3.33938    0.00737     4.34662
      H   18    0.09379      0.00000     0.40513    0.00108     0.40621
      H   19    0.10571      0.00000     0.39321    0.00107     0.39429
      H   20    0.09551      0.00000     0.40369    0.00080     0.40449
      H   21    0.10209      0.00000     0.39677    0.00114     0.39791
      H   22    0.09544      0.00000     0.40354    0.00102     0.40456
      H   23    0.11074      0.00000     0.38799    0.00127     0.38926
      H   24    0.10853      0.00000     0.39001    0.00146     0.39147
      H   25    0.10633      0.00000     0.39134    0.00233     0.39367
      H   26    0.10868      0.00000     0.38954    0.00179     0.39132
      H   27    0.10742      0.00000     0.39055    0.00202     0.39258
      H   28    0.10817      0.00000     0.39051    0.00131     0.39183
      H   29    0.10776      0.00000     0.39053    0.00171     0.39224
      H   30    0.09918      0.00000     0.39946    0.00137     0.40082
      H   31    0.11487      0.00000     0.38378    0.00134     0.38513
      H   32    0.10061      0.00000     0.39805    0.00134     0.39939
      H   33    0.17044      0.00000     0.32573    0.00383     0.32956
      H   34    0.08592      0.00000     0.41263    0.00145     0.41408
      H   35    0.08779      0.00000     0.41056    0.00165     0.41221
      H   36    0.09790      0.00000     0.40102    0.00108     0.40210
      H   37    0.09707      0.00000     0.40219    0.00074     0.40293
      H   38    0.09877      0.00000     0.40000    0.00123     0.40123
      H   39    0.24696      0.00000     0.23031    0.02273     0.25304
 =======================================================================
   * Total *   -0.00000     16.99438    48.76616    0.23946    66.00000

 Normal termination of Gaussian 16 at Fri Dec 11 14:15:11 2020.
