 Gaussian 16, Revision A.03,

 -----------------------------------------------------------
 # opt freq B3LYP/6-31G(d) empiricaldispersion=gd3bj scf=xqc
 -----------------------------------------------------------

 ----------------------------
 CID_387527_JID_6723_neutraal
 ----------------------------
 Symbolic Z-matrix:
 Charge =  0 Multiplicity = 1

 SCF Done:  E(RB3LYP) =  -1410.10295972     A.U. after   16 cycles
 SCF Done:  E(RB3LYP) =  -1410.10878700     A.U. after   13 cycles
 SCF Done:  E(RB3LYP) =  -1410.10973201     A.U. after   13 cycles
 SCF Done:  E(RB3LYP) =  -1410.10969905     A.U. after   14 cycles
 SCF Done:  E(RB3LYP) =  -1410.11020240     A.U. after   14 cycles
 SCF Done:  E(RB3LYP) =  -1410.11074119     A.U. after   13 cycles
 SCF Done:  E(RB3LYP) =  -1410.11132836     A.U. after   16 cycles
 SCF Done:  E(RB3LYP) =  -1410.11154250     A.U. after   16 cycles
 SCF Done:  E(RB3LYP) =  -1410.11181587     A.U. after   13 cycles
 SCF Done:  E(RB3LYP) =  -1410.11197689     A.U. after   14 cycles
 SCF Done:  E(RB3LYP) =  -1410.11203670     A.U. after   10 cycles
 SCF Done:  E(RB3LYP) =  -1410.11204116     A.U. after   10 cycles
 SCF Done:  E(RB3LYP) =  -1410.11204298     A.U. after   10 cycles
 SCF Done:  E(RB3LYP) =  -1410.11204313     A.U. after    8 cycles
 SCF Done:  E(RB3LYP) =  -1410.11204318     A.U. after    7 cycles
 Optimization completed.
    -- Stationary point found.
 Normal termination of Gaussian 16 at Fri Dec 11 00:35:15 2020.

 --------------------------------------------------------------------
 #N Geom=AllCheck Guess=TCheck SCRF=Check GenChk RB3LYP/6-31G(d) Freq
 --------------------------------------------------------------------

 Structure from the checkpoint file:  "JID_6723.chk"
 ----------------------------
 CID_387527_JID_6723_neutraal
 ----------------------------
 Charge =  0 Multiplicity = 1

 SCF Done:  E(RB3LYP) =  -1410.11204318     A.U. after    1 cycles

  Exact polarizability: 192.670 -11.608 170.103   1.021  -7.701 122.356
 Approx polarizability: 263.221 -39.853 338.524   5.917 -16.794 208.040

                      1                      2                      3
                      A                      A                      A
 Frequencies --     17.6051                27.0493                35.7140
 Red. masses --      4.7433                 1.1469                 4.5319
 Frc consts  --      0.0009                 0.0005                 0.0034
 IR Inten    --      0.6452                 0.4359                 0.7062

                      4                      5                      6
                      A                      A                      A
 Frequencies --     44.2695               110.6292               118.8297
 Red. masses --      4.5752                 6.1364                 6.3635
 Frc consts  --      0.0053                 0.0442                 0.0529
 IR Inten    --      0.4214                 2.9358                 2.3026

                      7                      8                      9
                      A                      A                      A
 Frequencies --    136.1578               160.2916               184.7250
 Red. masses --      8.7776                 5.8069                 5.8461
 Frc consts  --      0.0959                 0.0879                 0.1175
 IR Inten    --      5.8370                 4.1763                 3.2527

                     10                     11                     12
                      A                      A                      A
 Frequencies --    203.4998               276.5282               286.1233
 Red. masses --      4.6392                 3.3353                 7.0096
 Frc consts  --      0.1132                 0.1503                 0.3381
 IR Inten    --      0.9562                 5.5535                 4.2530

                     13                     14                     15
                      A                      A                      A
 Frequencies --    313.1223               337.7802               370.2614
 Red. masses --      5.2362                 4.4859                 3.8860
 Frc consts  --      0.3025                 0.3016                 0.3139
 IR Inten    --      1.7093                 4.8791                 6.4674

                     16                     17                     18
                      A                      A                      A
 Frequencies --    414.0077               425.7144               461.1593
 Red. masses --      3.0652                10.6919                 8.8319
 Frc consts  --      0.3096                 1.1417                 1.1066
 IR Inten    --      0.3066                 9.6190                15.3815

                     19                     20                     21
                      A                      A                      A
 Frequencies --    474.6103               493.7630               538.5565
 Red. masses --      5.2150                 6.7925                 4.3090
 Frc consts  --      0.6921                 0.9757                 0.7364
 IR Inten    --      5.0839                13.6512                43.4944

                     22                     23                     24
                      A                      A                      A
 Frequencies --    614.2224               622.5127               650.0141
 Red. masses --      3.7051                 5.5008                 6.9341
 Frc consts  --      0.8236                 1.2559                 1.7262
 IR Inten    --      6.7892                 8.9212                 0.6050

                     25                     26                     27
                      A                      A                      A
 Frequencies --    672.6646               714.7109               745.0157
 Red. masses --      9.6339                 3.8450                 1.6402
 Frc consts  --      2.5683                 1.1572                 0.5364
 IR Inten    --      1.4335                 3.1092                52.1477

                     28                     29                     30
                      A                      A                      A
 Frequencies --    752.5162               811.3539               821.2813
 Red. masses --      2.9181                 2.4756                 1.8627
 Frc consts  --      0.9736                 0.9602                 0.7402
 IR Inten    --     32.2649                 9.6599                11.6386

                     31                     32                     33
                      A                      A                      A
 Frequencies --    825.6617               858.4467               917.1733
 Red. masses --      5.3496                 1.2481                 1.2834
 Frc consts  --      2.1487                 0.5419                 0.6361
 IR Inten    --     14.0238                 4.2116                 1.4508

                     34                     35                     36
                      A                      A                      A
 Frequencies --    957.1098               961.6247               983.4721
 Red. masses --      1.3012                 4.6741                 1.3002
 Frc consts  --      0.7023                 2.5466                 0.7409
 IR Inten    --      0.3832                 5.4241                 0.9453

                     37                     38                     39
                      A                      A                      A
 Frequencies --   1020.4592              1021.4850              1028.6667
 Red. masses --      1.5108                 1.8281                 4.6458
 Frc consts  --      0.9269                 1.1238                 2.8964
 IR Inten    --      0.7691                 0.4785                11.9303

                     40                     41                     42
                      A                      A                      A
 Frequencies --   1036.2239              1069.1076              1076.5188
 Red. masses --      3.3526                 7.5587                 1.5427
 Frc consts  --      2.1210                 5.0902                 1.0533
 IR Inten    --      7.2204                84.2651                13.9976

                     43                     44                     45
                      A                      A                      A
 Frequencies --   1099.8446              1123.6242              1147.5140
 Red. masses --      3.4543                 1.2087                 1.3139
 Frc consts  --      2.4619                 0.8991                 1.0193
 IR Inten    --     32.5317                10.6892                 2.8663

                     46                     47                     48
                      A                      A                      A
 Frequencies --   1214.5887              1242.1726              1262.7048
 Red. masses --      1.1730                 3.0564                 1.7877
 Frc consts  --      1.0195                 2.7786                 1.6794
 IR Inten    --      6.0370                 5.2265                68.8782

                     49                     50                     51
                      A                      A                      A
 Frequencies --   1337.7331              1356.1347              1413.8674
 Red. masses --      1.3218                 7.4129                 2.0593
 Frc consts  --      1.3937                 8.0324                 2.4254
 IR Inten    --      2.3921                 0.6880                 0.4426

                     52                     53                     54
                      A                      A                      A
 Frequencies --   1427.2565              1443.5189              1445.9181
 Red. masses --      2.5824                 1.2896                 2.4468
 Frc consts  --      3.0994                 1.5833                 3.0139
 IR Inten    --     40.6184                 0.4504                 7.4049

                     55                     56                     57
                      A                      A                      A
 Frequencies --   1485.2037              1516.9299              1521.9343
 Red. masses --      3.5003                 1.0512                 1.0937
 Frc consts  --      4.5491                 1.4252                 1.4926
 IR Inten    --     18.4341                 6.6648                10.6203

                     58                     59                     60
                      A                      A                      A
 Frequencies --   1542.5771              1572.4609              1635.5726
 Red. masses --      2.2977                 5.6175                 6.1078
 Frc consts  --      3.2214                 8.1838                 9.6266
 IR Inten    --     16.5598                15.2713                 0.3391

                     61                     62                     63
                      A                      A                      A
 Frequencies --   1657.5759              1787.7191              2937.2943
 Red. masses --      5.5885                 9.6739                 1.0839
 Frc consts  --      9.0468                18.2159                 5.5096
 IR Inten    --      4.5260               283.6501                83.4357

                     64                     65                     66
                      A                      A                      A
 Frequencies --   3046.6798              3103.8224              3132.0985
 Red. masses --      1.0398                 1.0971                 1.1024
 Frc consts  --      5.6864                 6.2270                 6.3719
 IR Inten    --     27.5224                16.7126                13.9621

                     67                     68                     69
                      A                      A                      A
 Frequencies --   3183.2292              3188.3185              3199.3519
 Red. masses --      1.0868                 1.0892                 1.0944
 Frc consts  --      6.4883                 6.5234                 6.5998
 IR Inten    --      7.4680                17.3004                10.1738

                     70                     71                     72
                      A                      A                      A
 Frequencies --   3217.8545              3246.8139              3270.2823
 Red. masses --      1.0920                 1.0892                 1.0993
 Frc consts  --      6.6618                 6.7651                 6.9268
 IR Inten    --      5.6443                 1.0872                 0.0750

 - Thermochemistry -
 -------------------
 Temperature   298.150 Kelvin.  Pressure   1.00000 Atm.
 Atom     1 has atomic number  6 and mass  12.00000

 Molecular mass:   250.01222 amu.
 Principal axes and moments of inertia in atomic units:
                           1         2         3
     Eigenvalues --  2781.360246169.376396898.11130
           X            0.99991   0.01032   0.00798
           Y           -0.01033   0.99995   0.00054
           Z           -0.00798  -0.00062   0.99997
 This molecule is an asymmetric top.
 Rotational symmetry number  1.
 Warning -- assumption of classical behavior for rotation
           may cause significant error
 Rotational temperatures (Kelvin)      0.03114     0.01404     0.01256
 Rotational constants (GHZ):           0.64887     0.29253     0.26163
 Zero-point vibrational energy     498551.1 (Joules/Mol)
                                  119.15657 (Kcal/Mol)
 Warning -- explicit consideration of  22 degrees of freedom as
           vibrations may cause significant error
 Vibrational temperatures:     25.33    38.92    51.38    63.69   159.17
          (Kelvin)            170.97   195.90   230.62   265.78   292.79
                              397.86   411.67   450.51   485.99   532.72
                              595.66   612.51   663.51   682.86   710.41
                              774.86   883.73   895.66   935.23   967.81
                             1028.31  1071.91  1082.70  1167.36  1181.64
                             1187.94  1235.11  1319.61  1377.07  1383.56
                             1415.00  1468.21  1469.69  1480.02  1490.90
                             1538.21  1548.87  1582.43  1616.64  1651.02
                             1747.52  1787.21  1816.75  1924.70  1951.18
                             2034.24  2053.50  2076.90  2080.35  2136.88
                             2182.52  2189.72  2219.42  2262.42  2353.22
                             2384.88  2572.13  4226.11  4383.49  4465.71
                             4506.39  4579.96  4587.28  4603.15  4629.77
                             4671.44  4705.21

 Zero-point correction=                           0.189888 (Hartree/Particle)
 Thermal correction to Energy=                    0.205266
 Thermal correction to Enthalpy=                  0.206210
 Thermal correction to Gibbs Free Energy=         0.144020
 Sum of electronic and zero-point Energies=          -1409.922155
 Sum of electronic and thermal Energies=             -1409.906777
 Sum of electronic and thermal Enthalpies=           -1409.905833
 Sum of electronic and thermal Free Energies=        -1409.968023

                     E (Thermal)             CV                S
                      KCal/Mol        Cal/Mol-Kelvin    Cal/Mol-Kelvin
 Total                  128.807             56.027            130.891
 Electronic               0.000              0.000              0.000
 Translational            0.889              2.981             42.449
 Rotational               0.889              2.981             33.137
 Vibrational            127.029             50.065             55.305
 Vibration     1          0.593              1.986              6.887
 Vibration     2          0.593              1.984              6.035
 Vibration     3          0.594              1.982              5.484
 Vibration     4          0.595              1.980              5.058
 Vibration     5          0.606              1.941              3.258
 Vibration     6          0.609              1.934              3.119
 Vibration     7          0.614              1.917              2.857
 Vibration     8          0.622              1.891              2.546
 Vibration     9          0.631              1.861              2.280
 Vibration    10          0.639              1.835              2.101
 Vibration    11          0.678              1.717              1.555
 Vibration    12          0.684              1.699              1.497
 Vibration    13          0.701              1.649              1.346
 Vibration    14          0.718              1.600              1.223
 Vibration    15          0.742              1.533              1.079
 Vibration    16          0.778              1.440              0.913
 Vibration    17          0.788              1.414              0.873
 Vibration    18          0.819              1.336              0.763
 Vibration    19          0.831              1.306              0.725
 Vibration    20          0.849              1.264              0.674
 Vibration    21          0.894              1.165              0.568
 Vibration    22          0.974              1.002              0.426

 Optimization completed.
    -- Stationary point found.
 Normal termination of Gaussian 16 at Fri Dec 11 00:43:43 2020.

 ----------------------------------------------------------------------
 # B3LYP/6-311++G(d,p) empiricaldispersion=gd3bj scf=xqc pop=npa geom=c
 heck
 ----------------------------------------------------------------------

 ------------------------------------
 CID_387527_JID_6723_Energie_neutraal
 ------------------------------------
 Structure from the checkpoint file:  "JID_6723.chk"
 Charge =  0 Multiplicity = 1

 SCF Done:  E(RB3LYP) =  -1410.33175576     A.U. after   18 cycles
 Normal termination of Gaussian 16 at Fri Dec 11 00:48:35 2020.

 ----------------------------------------------------------------------
 # B3LYP/6-311++G(d,p) empiricaldispersion=gd3bj scf=xqc pop=npa geom=c
 heck
 ----------------------------------------------------------------------

 ----------------------------------
 CID_387527_JID_6723_Energie_kation
 ----------------------------------
 Structure from the checkpoint file:  "JID_6723.chk"
 Charge =  1 Multiplicity = 2

 SCF Done:  E(UB3LYP) =  -1410.01851300     A.U. after   33 cycles
 SCF Done:  E(UB3LYP) =  -1410.01851300     a.u. after    1 cycles
 Normal termination of Gaussian 16 at Fri Dec 11 01:00:59 2020.
 Gaussian 16:  ES64L-G16RevA.03 25-Dec-2016

 ----------------------------------------------------------------------
 # B3LYP/6-311++G(d,p) empiricaldispersion=gd3bj scf=xqc pop=npa geom=c
 heck
 ----------------------------------------------------------------------

 ---------------------------------
 CID_387527_JID_6723_Energie_anion
 ---------------------------------
 Structure from the checkpoint file:  "JID_6723.chk"
 Charge = -1 Multiplicity = 2

                         Standard orientation:
 ---------------------------------------------------------------------
 Center     Atomic      Atomic             Coordinates (Angstroms)
 Number     Number       Type             X           Y           Z
 ---------------------------------------------------------------------
      1          6           0        4.839940    1.022050    1.100104
      2          6           0        3.537418    0.569213    0.488350
      3          6           0        2.600877    1.509225    0.031744
      4          6           0        1.407218    1.105383   -0.558599
      5          6           0        1.144286   -0.257857   -0.683237
      6          6           0        2.053466   -1.214315   -0.248439
      7          6           0        3.245336   -0.791531    0.340259
      8         16           0       -0.387399   -0.839120   -1.480330
      9          8           0       -0.315368   -2.348607   -1.505957
     10          6           0       -1.488815   -0.408488   -0.122806
     11          6           0       -2.225145    0.748920    0.048937
     12          6           0       -2.959725    0.738248    1.279883
     13          6           0       -2.775965   -0.413092    1.986037
     14         16           0       -1.701418   -1.524698    1.184898
     15          6           0       -2.274653    1.858851   -0.913835
     16          8           0       -2.869612    2.901027   -0.709821
     17          1           0        5.556158    1.321714    0.324174
     18          1           0        4.693941    1.886367    1.756809
     19          1           0        5.304867    0.223612    1.686189
     20          1           0        2.810953    2.570117    0.141141
     21          1           0        0.690488    1.846059   -0.903050
     22          1           0        1.815717   -2.265787   -0.375570
     23          1           0        3.960757   -1.531543    0.689733
     24          1           0       -3.596489    1.559960    1.583563
     25          1           0       -3.226480   -0.696666    2.928062
     26          1           0       -1.734435    1.688239   -1.868299
 ---------------------------------------------------------------------

 SCF Done:  E(UB3LYP) =  -1410.36251475     A.U. after   28 cycles

 The electronic state is 2-A.
 Alpha  occ. eigenvalues --  -88.83210 -88.73780 -18.96274 -18.94056 -10.08610
 Alpha  occ. eigenvalues --  -10.08375 -10.08264 -10.08167 -10.07615 -10.07559
 Alpha  occ. eigenvalues --  -10.07543 -10.07013 -10.06906 -10.06435 -10.04757
 Alpha  occ. eigenvalues --  -10.03618  -7.90739  -7.82403  -5.87020  -5.86881
 Alpha  occ. eigenvalues --   -5.86360  -5.78716  -5.78332  -5.78007  -0.89618
 Alpha  occ. eigenvalues --   -0.87820  -0.76346  -0.74951  -0.68835  -0.64946
 Alpha  occ. eigenvalues --   -0.63516  -0.61227  -0.59604  -0.54792  -0.51249
 Alpha  occ. eigenvalues --   -0.48167  -0.47622  -0.43110  -0.41025  -0.38520
 Alpha  occ. eigenvalues --   -0.37291  -0.36670  -0.35243  -0.33797  -0.32580
 Alpha  occ. eigenvalues --   -0.31945  -0.30769  -0.30450  -0.28917  -0.27519
 Alpha  occ. eigenvalues --   -0.27226  -0.26735  -0.25587  -0.25448  -0.24572
 Alpha  occ. eigenvalues --   -0.23816  -0.22693  -0.22008  -0.16238  -0.15688
 Alpha  occ. eigenvalues --   -0.15625  -0.12426  -0.12359  -0.11183  -0.09754
 Alpha  occ. eigenvalues --    0.02720
 Alpha virt. eigenvalues --    0.06445   0.07791   0.08182   0.08776   0.09045
 Alpha virt. eigenvalues --    0.09541   0.10304   0.10681   0.11492   0.11692
 Alpha virt. eigenvalues --    0.12130   0.13256   0.13589   0.14015   0.14207

  Beta  occ. eigenvalues --  -88.83213 -88.73719 -18.96273 -18.93521 -10.08617
  Beta  occ. eigenvalues --  -10.08279 -10.08167 -10.07927 -10.07618 -10.07557
  Beta  occ. eigenvalues --  -10.07539 -10.06970 -10.06853 -10.05927 -10.04795
  Beta  occ. eigenvalues --  -10.03540  -7.90740  -7.82348  -5.87010  -5.86898
  Beta  occ. eigenvalues --   -5.86363  -5.78689  -5.78306  -5.77802  -0.89559
  Beta  occ. eigenvalues --   -0.86869  -0.76231  -0.74626  -0.68673  -0.64871
  Beta  occ. eigenvalues --   -0.63184  -0.60845  -0.59362  -0.54590  -0.51208
  Beta  occ. eigenvalues --   -0.47824  -0.47081  -0.42724  -0.40823  -0.38319
  Beta  occ. eigenvalues --   -0.37231  -0.36441  -0.35160  -0.33693  -0.32548
  Beta  occ. eigenvalues --   -0.31745  -0.30580  -0.30358  -0.28654  -0.27208
  Beta  occ. eigenvalues --   -0.26855  -0.26086  -0.25390  -0.24838  -0.24432
  Beta  occ. eigenvalues --   -0.23665  -0.21701  -0.20735  -0.16004  -0.15481
  Beta  occ. eigenvalues --   -0.15360  -0.11925  -0.11353  -0.09827  -0.09174
  Beta virt. eigenvalues --    0.06405   0.07666   0.08245   0.08729   0.09033
  Beta virt. eigenvalues --    0.09507   0.09708   0.10683   0.11255   0.11553
  Beta virt. eigenvalues --    0.11998   0.12249   0.13270   0.13595   0.14080

 Mulliken charges and spin densities:
               1          2
     1  C   -0.596341  -0.022887
     2  C    0.615759   0.052581
     3  C   -0.435092  -0.002363
     4  C   -1.072962   0.022565
     5  C    0.276238  -0.006074
     6  C    0.871361   0.085680
     7  C   -0.846247   0.017448
     8  S    0.544517  -0.015169
     9  O   -0.484145  -0.002370
    10  C   -0.209307   0.324964
    11  C    0.375581   0.087156
    12  C    0.206555  -0.020364
    13  C   -0.218847   0.031957
    14  S   -0.351182   0.110222
    15  C   -0.772013   0.157799
    16  O   -0.378942   0.173333
    17  H    0.135097   0.015036
    18  H    0.131947   0.000902
    19  H    0.134800  -0.000447
    20  H    0.164927   0.000683
    21  H    0.100608   0.000088
    22  H    0.227143   0.000874
    23  H    0.122814   0.001801
    24  H    0.164803   0.001238
    25  H    0.208013  -0.002223
    26  H    0.084913  -0.012430
 Sum of Mulliken charges =  -1.00000   1.00000

 Dipole moment (field-independent basis, Debye):
    X=              6.9052    Y=             -0.7393    Z=              2.5877  Tot=              7.4111
 Quadrupole moment (field-independent basis, Debye-Ang):
   XX=           -139.1515   YY=           -143.2080   ZZ=           -119.3787
   XY=             13.2313   XZ=             -3.4621   YZ=             -2.0418

 Summary of Natural Population Analysis:

                                       Natural Population
                Natural  -----------------------------------------------
    Atom  No    Charge         Core      Valence    Rydberg      Total
 -----------------------------------------------------------------------
      C    1   -0.29177      0.99964     2.28763    0.00450     3.29177
      C    2   -0.00745      0.99952     2.00009    0.00784     3.00745
      C    3   -0.10568      0.99952     2.09764    0.00852     3.10568
      C    4   -0.09192      0.99950     2.08300    0.00943     3.09192
      C    5   -0.09578      0.99937     2.08029    0.01612     3.09578
      C    6   -0.09517      0.99949     2.08536    0.01032     3.09517
      C    7   -0.10552      0.99952     2.09762    0.00837     3.10552
      S    8    0.62565      4.99921     2.31681    0.05833     7.37435
      O    9   -0.49272      0.99993     3.48456    0.00823     4.49272
      C   10   -0.11171      0.99935     2.09945    0.01290     3.11171
      C   11   -0.08952      0.99938     2.07910    0.01104     3.08952
      C   12   -0.12074      0.99950     2.11064    0.01060     3.12074
      C   13   -0.19445      0.99955     2.18402    0.01088     3.19445
      S   14    0.23568      4.99936     2.74146    0.02350     7.76432
      C   15    0.22544      0.99967     1.75421    0.02068     2.77456
      O   16   -0.24434      0.99988     3.23635    0.00811     4.24434
      H   17    0.10076      0.00000     0.39829    0.00095     0.39924
      H   18    0.10042      0.00000     0.39869    0.00089     0.39958
      H   19    0.09866      0.00000     0.40049    0.00085     0.40134
      H   20    0.09539      0.00000     0.40329    0.00132     0.40461
      H   21    0.10895      0.00000     0.38948    0.00157     0.39105
      H   22    0.11658      0.00000     0.38218    0.00124     0.38342
      H   23    0.09360      0.00000     0.40503    0.00136     0.40640
      H   24    0.10886      0.00000     0.38978    0.00136     0.39114
      H   25    0.09934      0.00000     0.39957    0.00109     0.40066
      H   26    0.03744      0.00000     0.45963    0.00293     0.46256
 =======================================================================
   * Total *    0.00000     23.99240    40.76468    0.24292    65.00000

 Normal termination of Gaussian 16 at Fri Dec 11 01:11:30 2020.
