 Gaussian 16, Revision A.03,

 -----------------------------------------------------------
 # opt freq B3LYP/6-31G(d) empiricaldispersion=gd3bj scf=xqc
 -----------------------------------------------------------

 ------------------------------
 CID_15047237_JID_1454_neutraal
 ------------------------------
 Symbolic Z-matrix:
 Charge =  0 Multiplicity = 1

 SCF Done:  E(RB3LYP) =  -446.081250447     A.U. after   13 cycles
 SCF Done:  E(RB3LYP) =  -446.084550778     A.U. after   11 cycles
 SCF Done:  E(RB3LYP) =  -446.084738593     A.U. after   10 cycles
 SCF Done:  E(RB3LYP) =  -446.084770223     A.U. after    9 cycles
 SCF Done:  E(RB3LYP) =  -446.084777558     A.U. after    9 cycles
 SCF Done:  E(RB3LYP) =  -446.084783061     A.U. after    9 cycles
 SCF Done:  E(RB3LYP) =  -446.084787892     A.U. after    9 cycles
 SCF Done:  E(RB3LYP) =  -446.084796609     A.U. after    9 cycles
 SCF Done:  E(RB3LYP) =  -446.084806631     A.U. after   10 cycles
 SCF Done:  E(RB3LYP) =  -446.084821565     A.U. after   10 cycles
 SCF Done:  E(RB3LYP) =  -446.084888703     A.U. after   10 cycles
 SCF Done:  E(RB3LYP) =  -446.084195993     A.U. after   12 cycles
 SCF Done:  E(RB3LYP) =  -446.084937519     A.U. after   10 cycles
 SCF Done:  E(RB3LYP) =  -446.084940867     A.U. after    9 cycles
 SCF Done:  E(RB3LYP) =  -446.084940813     A.U. after    8 cycles
 SCF Done:  E(RB3LYP) =  -446.084941112     A.U. after    8 cycles
 Optimization completed.
    -- Stationary point found.
 Normal termination of Gaussian 16 at Tue Dec  8 20:07:35 2020.

 --------------------------------------------------------------------
 #N Geom=AllCheck Guess=TCheck SCRF=Check GenChk RB3LYP/6-31G(d) Freq
 --------------------------------------------------------------------

 Structure from the checkpoint file:  "JID_1454.chk"
 ------------------------------
 CID_15047237_JID_1454_neutraal
 ------------------------------
 Charge =  0 Multiplicity = 1

 SCF Done:  E(RB3LYP) =  -446.084941112     A.U. after    1 cycles

  Exact polarizability: 136.765  -7.846 107.009   1.374   2.852  84.708
 Approx polarizability: 165.094 -18.771 162.456   2.531   5.445 127.469

                      1                      2                      3
                      A                      A                      A
 Frequencies --     45.9163                60.5676                91.6790
 Red. masses --      2.4896                 3.1215                 2.4409
 Frc consts  --      0.0031                 0.0067                 0.0121
 IR Inten    --      0.4494                 1.6729                 0.3634

                      4                      5                      6
                      A                      A                      A
 Frequencies --    154.7424               161.8257               223.6679
 Red. masses --      2.6535                 2.9137                 2.5729
 Frc consts  --      0.0374                 0.0450                 0.0758
 IR Inten    --      2.8868                 1.3620                 1.1777

                      7                      8                      9
                      A                      A                      A
 Frequencies --    252.9673               270.6824               334.9674
 Red. masses --      1.6489                 1.1444                 2.8828
 Frc consts  --      0.0622                 0.0494                 0.1906
 IR Inten    --      2.0244                 0.4763                 0.9768

                     10                     11                     12
                      A                      A                      A
 Frequencies --    379.4690               418.1766               468.8610
 Red. masses --      2.0337                 2.6008                 3.4339
 Frc consts  --      0.1725                 0.2680                 0.4448
 IR Inten    --      0.4725                 0.3186                 2.2517

                     13                     14                     15
                      A                      A                      A
 Frequencies --    509.1414               590.2983               715.5511
 Red. masses --      2.3889                 1.8352                 3.4008
 Frc consts  --      0.3649                 0.3768                 1.0259
 IR Inten    --      1.8826                 1.2174                 0.1978

                     16                     17                     18
                      A                      A                      A
 Frequencies --    738.2335               760.4044               817.6360
 Red. masses --      3.1414                 1.4772                 2.8669
 Frc consts  --      1.0087                 0.5032                 1.1292
 IR Inten    --      1.3868                28.5383                 0.6330

                     19                     20                     21
                      A                      A                      A
 Frequencies --    840.9309               869.5663               900.7355
 Red. masses --      2.0197                 2.1339                 1.9857
 Frc consts  --      0.8415                 0.9507                 0.9492
 IR Inten    --      0.1700                 2.2452                 2.6621

                     22                     23                     24
                      A                      A                      A
 Frequencies --    925.5777               926.6640               940.8498
 Red. masses --      2.1649                 2.0452                 1.7011
 Frc consts  --      1.0927                 1.0348                 0.8872
 IR Inten    --      1.6773                 0.4736                 0.6037

                     25                     26                     27
                      A                      A                      A
 Frequencies --    947.6546               969.4605               975.6730
 Red. masses --      1.6094                 1.5863                 2.9635
 Frc consts  --      0.8516                 0.8784                 1.6621
 IR Inten    --      2.7498                 1.7333                 7.5118

                     28                     29                     30
                      A                      A                      A
 Frequencies --    998.1543              1031.6845              1048.9343
 Red. masses --      1.5562                 1.7290                 1.6899
 Frc consts  --      0.9135                 1.0843                 1.0955
 IR Inten    --      2.4956                 3.6097                 2.9087

                     31                     32                     33
                      A                      A                      A
 Frequencies --   1062.0652              1105.4856              1129.1971
 Red. masses --      1.8476                 1.6028                 1.4782
 Frc consts  --      1.2279                 1.1541                 1.1105
 IR Inten    --      0.0215                 4.9215                 2.1889

                     34                     35                     36
                      A                      A                      A
 Frequencies --   1158.5332              1194.6265              1201.7796
 Red. masses --      1.6189                 1.5424                 1.0942
 Frc consts  --      1.2802                 1.2970                 0.9311
 IR Inten    --      4.0537                24.2542                 0.9022

                     37                     38                     39
                      A                      A                      A
 Frequencies --   1208.9112              1219.9138              1253.9736
 Red. masses --      1.5272                 2.0762                 1.3530
 Frc consts  --      1.3151                 1.8205                 1.2535
 IR Inten    --      8.6708                16.5681                 0.8793

                     40                     41                     42
                      A                      A                      A
 Frequencies --   1260.0502              1268.7937              1282.1123
 Red. masses --      1.2378                 1.8374                 1.2556
 Frc consts  --      1.1580                 1.7427                 1.2160
 IR Inten    --      5.9687                 0.6813                10.5893

                     43                     44                     45
                      A                      A                      A
 Frequencies --   1318.5135              1337.7520              1344.0038
 Red. masses --      1.4824                 1.3604                 1.5920
 Frc consts  --      1.5184                 1.4344                 1.6943
 IR Inten    --     12.5416                 3.0838                27.3903

                     46                     47                     48
                      A                      A                      A
 Frequencies --   1358.8697              1366.8610              1379.6725
 Red. masses --      1.4826                 1.4092                 1.4747
 Frc consts  --      1.6129                 1.5512                 1.6539
 IR Inten    --      8.7008                 4.7994                10.2284

                     49                     50                     51
                      A                      A                      A
 Frequencies --   1386.0870              1407.8521              1433.4537
 Red. masses --      1.5428                 1.6341                 1.2696
 Frc consts  --      1.7463                 1.9083                 1.5371
 IR Inten    --      2.9020                17.0298                14.3848

                     52                     53                     54
                      A                      A                      A
 Frequencies --   1437.9012              1515.5268              1518.1602
 Red. masses --      4.7388                 1.0837                 1.0919
 Frc consts  --      5.7726                 1.4666                 1.4828
 IR Inten    --    181.2479                 4.0154                 3.1640

                     55                     56                     57
                      A                      A                      A
 Frequencies --   1525.3051              1529.2428              1532.1693
 Red. masses --      1.0557                 1.0966                 1.0595
 Frc consts  --      1.4472                 1.5109                 1.4654
 IR Inten    --      6.6392                 4.2597                 0.2872

                     58                     59                     60
                      A                      A                      A
 Frequencies --   1538.2982              1551.6601              1566.9632
 Red. masses --      1.0893                 1.0851                 1.0960
 Frc consts  --      1.5187                 1.5392                 1.5856
 IR Inten    --      6.9170                 3.4119                10.9533

                     61                     62                     63
                      A                      A                      A
 Frequencies --   1710.1934              2957.5099              2988.9419
 Red. masses --      6.6878                 1.0744                 1.0711
 Frc consts  --     11.5246                 5.5372                 5.6377
 IR Inten    --    196.5722                82.7090                84.8236

                     64                     65                     66
                      A                      A                      A
 Frequencies --   3006.1436              3020.3143              3030.0339
 Red. masses --      1.0609                 1.0649                 1.1022
 Frc consts  --      5.6487                 5.7236                 5.9624
 IR Inten    --     42.5210                49.1140                27.8643

                     67                     68                     69
                      A                      A                      A
 Frequencies --   3031.5385              3039.8926              3057.7987
 Red. masses --      1.0890                 1.0377                 1.0927
 Frc consts  --      5.8968                 5.6498                 6.0196
 IR Inten    --     43.0571                34.8645                15.3722

                     70                     71                     72
                      A                      A                      A
 Frequencies --   3063.9803              3065.1024              3068.0217
 Red. masses --      1.0841                 1.0745                 1.0617
 Frc consts  --      5.9963                 5.9475                 5.8882
 IR Inten    --     62.9692                24.9779                26.9028

                     73                     74                     75
                      A                      A                      A
 Frequencies --   3093.9515              3106.7132              3111.9746
 Red. masses --      1.0877                 1.1023                 1.1022
 Frc consts  --      6.1344                 6.2683                 6.2888
 IR Inten    --     43.2942                40.3355                51.9508

                     76                     77                     78
                      A                      A                      A
 Frequencies --   3115.5658              3125.0302              3218.9205
 Red. masses --      1.0984                 1.1058                 1.0920
 Frc consts  --      6.2821                 6.3626                 6.6664
 IR Inten    --     33.2663                50.2999                22.1884

 - Thermochemistry -
 -------------------
 Temperature   298.150 Kelvin.  Pressure   1.00000 Atm.
 Atom     1 has atomic number  6 and mass  12.00000

 Molecular mass:   151.13610 amu.
 Principal axes and moments of inertia in atomic units:
                           1         2         3
     Eigenvalues --   665.459382982.398193348.39182
           X            0.99998   0.00373  -0.00423
           Y           -0.00372   0.99999   0.00251
           Z            0.00424  -0.00249   0.99999
 This molecule is an asymmetric top.
 Rotational symmetry number  1.
 Warning -- assumption of classical behavior for rotation
           may cause significant error
 Rotational temperatures (Kelvin)      0.13016     0.02904     0.02587
 Rotational constants (GHZ):           2.71202     0.60513     0.53899
 Zero-point vibrational energy     673354.2 (Joules/Mol)
                                  160.93552 (Kcal/Mol)
 Warning -- explicit consideration of  14 degrees of freedom as
           vibrations may cause significant error
 Vibrational temperatures:     66.06    87.14   131.91   222.64   232.83
          (Kelvin)            321.81   363.96   389.45   481.94   545.97
                              601.66   674.59   732.54   849.31  1029.52
                             1062.15  1094.05  1176.40  1209.91  1251.11
                             1295.96  1331.70  1333.26  1353.67  1363.46
                             1394.84  1403.78  1436.12  1484.36  1509.18
                             1528.07  1590.55  1624.66  1666.87  1718.80
                             1729.09  1739.35  1755.18  1804.19  1812.93
                             1825.51  1844.67  1897.05  1924.73  1933.72
                             1955.11  1966.61  1985.04  1994.27  2025.59
                             2062.42  2068.82  2180.50  2184.29  2194.57
                             2200.24  2204.45  2213.27  2232.49  2254.51
                             2460.59  4255.20  4300.42  4325.17  4345.56
                             4359.54  4361.71  4373.73  4399.49  4408.38
                             4410.00  4414.20  4451.51  4469.87  4477.44
                             4482.60  4496.22  4631.31

 Zero-point correction=                           0.256467 (Hartree/Particle)
 Thermal correction to Energy=                    0.267314
 Thermal correction to Enthalpy=                  0.268258
 Thermal correction to Gibbs Free Energy=         0.219374
 Sum of electronic and zero-point Energies=           -445.828474
 Sum of electronic and thermal Energies=              -445.817627
 Sum of electronic and thermal Enthalpies=            -445.816683
 Sum of electronic and thermal Free Energies=         -445.865567

                     E (Thermal)             CV                S
                      KCal/Mol        Cal/Mol-Kelvin    Cal/Mol-Kelvin
 Total                  167.742             41.570            102.884
 Electronic               0.000              0.000              0.000
 Translational            0.889              2.981             40.949
 Rotational               0.889              2.981             30.275
 Vibrational            165.964             35.609             31.660
 Vibration     1          0.595              1.979              4.986
 Vibration     2          0.597              1.973              4.439
 Vibration     3          0.602              1.955              3.624
 Vibration     4          0.620              1.897              2.613
 Vibration     5          0.622              1.889              2.528
 Vibration     6          0.649              1.805              1.929
 Vibration     7          0.664              1.758              1.710
 Vibration     8          0.674              1.727              1.592
 Vibration     9          0.716              1.606              1.236
 Vibration    10          0.749              1.514              1.041
 Vibration    11          0.781              1.431              0.898
 Vibration    12          0.826              1.319              0.741
 Vibration    13          0.864              1.230              0.636
 Vibration    14          0.948              1.052              0.467

                           ! Non-Optimized Parameters !
 Normal termination of Gaussian 16 at Tue Dec  8 20:13:37 2020.

 ----------------------------------------------------------------------
 # B3LYP/6-311++G(d,p) empiricaldispersion=gd3bj scf=xqc pop=npa geom=c
 heck
 ----------------------------------------------------------------------

 --------------------------------------
 CID_15047237_JID_1454_Energie_neutraal
 --------------------------------------
 Structure from the checkpoint file:  "JID_1454.chk"
 Charge =  0 Multiplicity = 1

 SCF Done:  E(RB3LYP) =  -446.203728926     A.U. after   14 cycles
 Normal termination of Gaussian 16 at Tue Dec  8 20:16:00 2020.

 ----------------------------------------------------------------------
 # B3LYP/6-311++G(d,p) empiricaldispersion=gd3bj scf=xqc pop=npa geom=c
 heck
 ----------------------------------------------------------------------

 ------------------------------------
 CID_15047237_JID_1454_Energie_kation
 ------------------------------------
 Structure from the checkpoint file:  "JID_1454.chk"
 Charge =  1 Multiplicity = 2

 SCF Done:  E(UB3LYP) =  -445.955941127     A.U. after   17 cycles
 Normal termination of Gaussian 16 at Tue Dec  8 20:19:51 2020.
 Gaussian 16:  ES64L-G16RevA.03 25-Dec-2016

 ----------------------------------------------------------------------
 # B3LYP/6-311++G(d,p) empiricaldispersion=gd3bj scf=xqc pop=npa geom=c
 heck
 ----------------------------------------------------------------------

 -----------------------------------
 CID_15047237_JID_1454_Energie_anion
 -----------------------------------
 Structure from the checkpoint file:  "JID_1454.chk"
 Charge = -1 Multiplicity = 2

                         Standard orientation:
 ---------------------------------------------------------------------
 Center     Atomic      Atomic             Coordinates (Angstroms)
 Number     Number       Type             X           Y           Z
 ---------------------------------------------------------------------
      1          6           0       -3.246521   -0.828253    0.989112
      2          6           0       -2.672317   -0.369686   -0.355032
      3          6           0       -2.492356    1.174991   -0.385130
      4          6           0       -1.037359    1.368454   -0.039254
      5          6           0       -0.343861    0.213836   -0.141124
      6          6           0       -1.241353   -0.931079   -0.562836
      7          7           0        0.996594    0.010807    0.094987
      8          6           0        1.730289   -1.160520   -0.372322
      9          6           0        3.124789   -0.934996    0.217489
     10          6           0        3.300841    0.587620    0.088197
     11          6           0        1.884666    1.147813    0.324357
     12          1           0       -3.323131   -1.921037    1.039963
     13          1           0       -4.246078   -0.410385    1.155695
     14          1           0       -2.599852   -0.494312    1.809608
     15          1           0       -3.339317   -0.704664   -1.157503
     16          1           0       -2.735770    1.584929   -1.378874
     17          1           0       -3.176077    1.666844    0.321492
     18          1           0       -0.615726    2.330991    0.227269
     19          1           0       -1.071668   -1.839905    0.028939
     20          1           0       -1.053982   -1.201289   -1.612419
     21          1           0        1.779266   -1.213194   -1.474778
     22          1           0        1.263107   -2.084485   -0.017666
     23          1           0        3.129832   -1.231596    1.272582
     24          1           0        3.901304   -1.504026   -0.302104
     25          1           0        4.036450    0.995925    0.787018
     26          1           0        3.635049    0.836049   -0.925726
     27          1           0        1.748888    1.532022    1.345361
     28          1           0        1.650640    1.973398   -0.364495
 ---------------------------------------------------------------------

 SCF Done:  E(UB3LYP) =  -446.187240400     A.U. after   30 cycles

 The electronic state is 2-A.
 Alpha  occ. eigenvalues --  -14.21239 -10.09009 -10.08957 -10.08806 -10.06847
 Alpha  occ. eigenvalues --  -10.06407 -10.06256 -10.06105 -10.05749 -10.05387
 Alpha  occ. eigenvalues --  -10.03177  -0.84244  -0.73666  -0.68106  -0.63129
 Alpha  occ. eigenvalues --   -0.62157  -0.59258  -0.55064  -0.49786  -0.48514
 Alpha  occ. eigenvalues --   -0.44634  -0.42967  -0.40023  -0.38793  -0.35777
 Alpha  occ. eigenvalues --   -0.32888  -0.32610  -0.31877  -0.31150  -0.29761
 Alpha  occ. eigenvalues --   -0.28807  -0.27140  -0.26285  -0.24744  -0.24320
 Alpha  occ. eigenvalues --   -0.24072  -0.23513  -0.22535  -0.21883  -0.21767
 Alpha  occ. eigenvalues --   -0.17327  -0.07621   0.04701
 Alpha virt. eigenvalues --    0.06708   0.07833   0.08083   0.08979   0.09108
 Alpha virt. eigenvalues --    0.09342   0.10660   0.10797   0.11173   0.11587
 Alpha virt. eigenvalues --    0.11849   0.12415   0.13050   0.14354   0.14562

  Beta  occ. eigenvalues --  -14.21240 -10.08978 -10.08940 -10.08806 -10.06838
  Beta  occ. eigenvalues --  -10.06377 -10.06225 -10.06084 -10.05740 -10.05366
  Beta  occ. eigenvalues --  -10.03172  -0.84228  -0.73647  -0.68073  -0.63080
  Beta  occ. eigenvalues --   -0.62124  -0.59221  -0.55021  -0.49740  -0.48423
  Beta  occ. eigenvalues --   -0.44581  -0.42916  -0.39993  -0.38763  -0.35742
  Beta  occ. eigenvalues --   -0.32853  -0.32573  -0.31838  -0.31111  -0.29729
  Beta  occ. eigenvalues --   -0.28774  -0.27115  -0.26259  -0.24696  -0.24273
  Beta  occ. eigenvalues --   -0.24045  -0.23482  -0.22485  -0.21851  -0.21739
  Beta  occ. eigenvalues --   -0.17303  -0.07607
  Beta virt. eigenvalues --    0.06816   0.07607   0.08531   0.08620   0.09556
  Beta virt. eigenvalues --    0.09698   0.09719   0.11026   0.11201   0.11650
  Beta virt. eigenvalues --    0.11968   0.12198   0.12758   0.13369   0.14556

 Mulliken charges and spin densities:
               1          2
     1  C    0.695719  -1.470449
     2  C   -1.075298   1.512437
     3  C   -0.204799  -0.701021
     4  C    0.217337   0.081123
     5  C   -0.195612  -0.085183
     6  C    0.153988  -0.546642
     7  N   -0.016121   0.266417
     8  C    0.826190  -0.919504
     9  C    0.346716  -0.828021
    10  C    0.373196  -0.846651
    11  C    0.405361  -0.515422
    12  H   -0.204893   0.327235
    13  H   -0.084947   0.208417
    14  H    0.000131   0.164597
    15  H   -0.245723   0.447704
    16  H    0.010564   0.099712
    17  H   -0.059324   0.184966
    18  H   -0.021637   0.183311
    19  H   -0.006592   0.154409
    20  H   -0.201871   0.366737
    21  H   -0.164412   0.324758
    22  H   -0.321776   0.465479
    23  H    0.017100   0.128130
    24  H   -0.582614   0.751246
    25  H   -0.493129   0.656397
    26  H   -0.042940   0.182342
    27  H   -0.067570   0.230931
    28  H   -0.057041   0.176545
 Sum of Mulliken charges =  -1.00000   1.00000

 Dipole moment (field-independent basis, Debye):
    X=             -2.6285    Y=              2.1117    Z=              0.4286  Tot=              3.3988
 Quadrupole moment (field-independent basis, Debye-Ang):
   XX=           -142.5560   YY=           -108.0573   ZZ=           -103.0064
   XY=             -0.3076   XZ=              0.8252   YZ=             -2.1188

 Summary of Natural Population Analysis:

                                       Natural Population
                Natural  -----------------------------------------------
    Atom  No    Charge         Core      Valence    Rydberg      Total
 -----------------------------------------------------------------------
      C    1   -0.28262      0.99965     2.27755    0.00543     3.28262
      C    2   -0.10816      0.99963     2.09654    0.01199     3.10816
      C    3   -0.19229      0.99963     2.18487    0.00779     3.19229
      C    4   -0.16360      0.99949     2.15531    0.00880     3.16360
      C    5    0.10766      0.99946     1.88099    0.01188     2.89234
      C    6   -0.20177      0.99959     2.19401    0.00817     3.20177
      N    7   -0.25768      0.99964     2.74652    0.01152     3.75768
      C    8   -0.07853      0.99962     2.06782    0.01109     3.07853
      C    9   -0.19168      0.99964     2.18338    0.00867     3.19168
      C   10   -0.19439      0.99964     2.18669    0.00807     3.19439
      C   11   -0.07822      0.99963     2.06941    0.00918     3.07822
      H   12    0.09707      0.00000     0.40163    0.00130     0.40293
      H   13    0.09512      0.00000     0.40373    0.00115     0.40488
      H   14    0.09960      0.00000     0.39902    0.00138     0.40040
      H   15    0.09397      0.00000     0.40463    0.00140     0.40603
      H   16    0.09235      0.00000     0.40599    0.00166     0.40765
      H   17    0.09155      0.00000     0.40673    0.00173     0.40845
      H   18    0.09862      0.00000     0.40041    0.00097     0.40138
      H   19    0.10239      0.00000     0.39598    0.00163     0.39761
      H   20    0.10435      0.00000     0.39414    0.00150     0.39565
      H   21    0.08531      0.00000     0.41289    0.00180     0.41469
      H   22    0.10017      0.00000     0.39798    0.00185     0.39983
      H   23    0.09672      0.00000     0.40179    0.00149     0.40328
      H   24    0.10299      0.00000     0.39516    0.00185     0.39701
      H   25    0.10211      0.00000     0.39632    0.00157     0.39789
      H   26    0.09666      0.00000     0.40157    0.00177     0.40334
      H   27    0.09150      0.00000     0.40652    0.00198     0.40850
      H   28    0.09082      0.00000     0.40668    0.00251     0.40918
 =======================================================================
   * Total *    0.00000     10.99562    30.87425    0.13013    42.00000

 Normal termination of Gaussian 16 at Tue Dec  8 20:27:04 2020.
