 Gaussian 16, Revision A.03,

 -----------------------------------------------------------
 # opt freq B3LYP/6-31G(d) empiricaldispersion=gd3bj scf=xqc
 -----------------------------------------------------------

 ------------------------------
 CID_66600776_JID_4989_neutraal
 ------------------------------
 Symbolic Z-matrix:
 Charge =  0 Multiplicity = 1

 SCF Done:  E(RB3LYP) =  -578.895950186     A.U. after   14 cycles
 SCF Done:  E(RB3LYP) =  -578.899856349     A.U. after   11 cycles
 SCF Done:  E(RB3LYP) =  -578.900125620     A.U. after   10 cycles
 SCF Done:  E(RB3LYP) =  -578.900203383     A.U. after   11 cycles
 SCF Done:  E(RB3LYP) =  -578.900244315     A.U. after   10 cycles
 SCF Done:  E(RB3LYP) =  -578.900281391     A.U. after   11 cycles
 SCF Done:  E(RB3LYP) =  -578.900324528     A.U. after   11 cycles
 SCF Done:  E(RB3LYP) =  -578.900375377     A.U. after   12 cycles
 SCF Done:  E(RB3LYP) =  -578.900317817     A.U. after   12 cycles
 SCF Done:  E(RB3LYP) =  -578.900450506     A.U. after   12 cycles
 SCF Done:  E(RB3LYP) =  -578.900794068     A.U. after   10 cycles
 SCF Done:  E(RB3LYP) =  -578.900806892     A.U. after   10 cycles
 SCF Done:  E(RB3LYP) =  -578.900809858     A.U. after    9 cycles
 SCF Done:  E(RB3LYP) =  -578.900810219     A.U. after    8 cycles
 SCF Done:  E(RB3LYP) =  -578.900810301     A.U. after    7 cycles
 SCF Done:  E(RB3LYP) =  -578.900810331     A.U. after    7 cycles
 Optimization completed.
    -- Stationary point found.
 Normal termination of Gaussian 16 at Thu Dec 10 11:24:21 2020.

 --------------------------------------------------------------------
 #N Geom=AllCheck Guess=TCheck SCRF=Check GenChk RB3LYP/6-31G(d) Freq
 --------------------------------------------------------------------

 Structure from the checkpoint file:  "JID_4989.chk"
 ------------------------------
 CID_66600776_JID_4989_neutraal
 ------------------------------
 Charge =  0 Multiplicity = 1

 SCF Done:  E(RB3LYP) =  -578.900810331     A.U. after    1 cycles

  Exact polarizability: 180.227  -5.538 146.727  -6.222 -10.681  94.696
 Approx polarizability: 245.870 -15.223 237.471 -14.125 -30.644 141.080

                      1                      2                      3
                      A                      A                      A
 Frequencies --     40.1911                70.3190               101.1557
 Red. masses --      3.2639                 3.1613                 2.8722
 Frc consts  --      0.0031                 0.0092                 0.0173
 IR Inten    --      0.3864                 0.3370                 0.3692

                      4                      5                      6
                      A                      A                      A
 Frequencies --    106.3877               133.9618               182.9264
 Red. masses --      3.3177                 2.4211                 1.7229
 Frc consts  --      0.0221                 0.0256                 0.0340
 IR Inten    --      0.5569                 0.7132                 1.0040

                      7                      8                      9
                      A                      A                      A
 Frequencies --    193.1039               208.3274               215.6042
 Red. masses --      2.6657                 2.3247                 1.2521
 Frc consts  --      0.0586                 0.0594                 0.0343
 IR Inten    --      0.4325                 1.5364                 1.7122

                     10                     11                     12
                      A                      A                      A
 Frequencies --    234.3010               240.9804               265.8230
 Red. masses --      2.1526                 1.1824                 1.1737
 Frc consts  --      0.0696                 0.0405                 0.0489
 IR Inten    --      0.6030                 1.9983                 4.8138

                     13                     14                     15
                      A                      A                      A
 Frequencies --    278.1194               288.3958               357.5306
 Red. masses --      1.6371                 1.3289                 2.5918
 Frc consts  --      0.0746                 0.0651                 0.1952
 IR Inten    --      1.4548                35.0159                11.7704

                     16                     17                     18
                      A                      A                      A
 Frequencies --    375.4344               382.3358               417.2870
 Red. masses --      2.4636                 3.3541                 2.4395
 Frc consts  --      0.2046                 0.2889                 0.2503
 IR Inten    --      8.1365                 5.8317                 5.2495

                     19                     20                     21
                      A                      A                      A
 Frequencies --    422.3939               471.4694               484.5435
 Red. masses --      2.2004                 3.2926                 3.9970
 Frc consts  --      0.2313                 0.4312                 0.5529
 IR Inten    --      2.2356                 0.5132                 8.7280

                     22                     23                     24
                      A                      A                      A
 Frequencies --    525.2418               564.0790               584.6454
 Red. masses --      4.1491                 2.9270                 2.8864
 Frc consts  --      0.6744                 0.5487                 0.5813
 IR Inten    --     14.4147                 8.8493                33.0034

                     25                     26                     27
                      A                      A                      A
 Frequencies --    631.6254               669.7514               674.2819
 Red. masses --      2.3165                 2.0329                 2.5056
 Frc consts  --      0.5445                 0.5373                 0.6712
 IR Inten    --     88.6161               154.6428                46.5080

                     28                     29                     30
                      A                      A                      A
 Frequencies --    700.1452               735.4527               781.6390
 Red. masses --      1.9272                 2.3533                 5.1404
 Frc consts  --      0.5566                 0.7500                 1.8504
 IR Inten    --    191.7680                22.2057                38.0523

                     31                     32                     33
                      A                      A                      A
 Frequencies --    798.1237               809.5405               819.1341
 Red. masses --      1.5694                 1.2319                 1.2170
 Frc consts  --      0.5890                 0.4757                 0.4811
 IR Inten    --     58.7785                 3.2208                 7.7255

                     34                     35                     36
                      A                      A                      A
 Frequencies --    839.4911               895.7094               921.8663
 Red. masses --      2.5264                 2.0346                 1.2693
 Frc consts  --      1.0490                 0.9617                 0.6355
 IR Inten    --      7.3554                 1.1826                 1.9362

                     37                     38                     39
                      A                      A                      A
 Frequencies --    974.9127               978.5368              1013.0437
 Red. masses --      2.0451                 1.6583                 1.7225
 Frc consts  --      1.1452                 0.9355                 1.0415
 IR Inten    --      2.3966                 0.2165                 3.7299

                     40                     41                     42
                      A                      A                      A
 Frequencies --   1024.1534              1043.4345              1089.1461
 Red. masses --      1.8192                 2.2780                 1.8167
 Frc consts  --      1.1242                 1.4613                 1.2697
 IR Inten    --      8.5261                 0.9249                 8.3206

                     43                     44                     45
                      A                      A                      A
 Frequencies --   1096.5285              1116.0881              1122.6800
 Red. masses --      1.4887                 1.5764                 2.1617
 Frc consts  --      1.0546                 1.1570                 1.6053
 IR Inten    --      2.9270                 1.1834                 9.6395

                     46                     47                     48
                      A                      A                      A
 Frequencies --   1154.8226              1185.8329              1214.6660
 Red. masses --      1.5007                 1.6610                 1.9712
 Frc consts  --      1.1791                 1.3762                 1.7136
 IR Inten    --      0.6664                33.0997                 1.4669

                     49                     50                     51
                      A                      A                      A
 Frequencies --   1218.3081              1248.7914              1290.7361
 Red. masses --      1.7009                 2.7596                 1.5902
 Frc consts  --      1.4875                 2.5356                 1.5609
 IR Inten    --      0.5651                 1.2334                 1.5483

                     52                     53                     54
                      A                      A                      A
 Frequencies --   1304.0653              1319.7556              1342.1747
 Red. masses --      1.2875                 1.4443                 1.3661
 Frc consts  --      1.2900                 1.4821                 1.4499
 IR Inten    --     11.5422                 2.7913                 8.1804

                     55                     56                     57
                      A                      A                      A
 Frequencies --   1349.9874              1374.6714              1380.5051
 Red. masses --      2.6367                 1.8318                 2.1368
 Frc consts  --      2.8311                 2.0395                 2.3994
 IR Inten    --     19.0645                25.6400                14.7300

                     58                     59                     60
                      A                      A                      A
 Frequencies --   1394.0972              1425.1631              1434.7076
 Red. masses --      1.6119                 1.4931                 1.2195
 Frc consts  --      1.8458                 1.7868                 1.4790
 IR Inten    --      0.6473                 2.9306                 1.7048

                     61                     62                     63
                      A                      A                      A
 Frequencies --   1439.6210              1442.7711              1491.2363
 Red. masses --      1.2217                 1.2513                 3.2289
 Frc consts  --      1.4918                 1.5346                 4.2306
 IR Inten    --      1.0528                 7.2144                50.3820

                     64                     65                     66
                      A                      A                      A
 Frequencies --   1522.5585              1524.4770              1525.9277
 Red. masses --      1.0604                 1.1023                 1.0523
 Frc consts  --      1.4483                 1.5093                 1.4436
 IR Inten    --      0.4090                 5.7541                 4.6221

                     67                     68                     69
                      A                      A                      A
 Frequencies --   1527.9797              1529.9766              1533.3335
 Red. masses --      1.0451                 1.0540                 1.0774
 Frc consts  --      1.4376                 1.4536                 1.4924
 IR Inten    --      6.6004                 0.3300                 0.6144

                     70                     71                     72
                      A                      A                      A
 Frequencies --   1541.8435              1548.2484              1551.2277
 Red. masses --      1.0957                 1.8978                 1.3274
 Frc consts  --      1.5347                 2.6803                 1.8820
 IR Inten    --      8.6342                34.0895                13.8164

                     73                     74                     75
                      A                      A                      A
 Frequencies --   1646.1920              1665.1807              1700.1747
 Red. masses --      5.0899                 4.4385                 1.2144
 Frc consts  --      8.1269                 7.2512                 2.0682
 IR Inten    --     15.1646                38.2212               113.9013

                     76                     77                     78
                      A                      A                      A
 Frequencies --   1709.1199              3013.6028              3033.7321
 Red. masses --      1.1703                 1.0821                 1.0530
 Frc consts  --      2.0142                 5.7904                 5.7099
 IR Inten    --     70.2099                12.0903                11.6346

                     79                     80                     81
                      A                      A                      A
 Frequencies --   3039.1935              3040.8285              3048.7920
 Red. masses --      1.0423                 1.0354                 1.0399
 Frc consts  --      5.6725                 5.6409                 5.6949
 IR Inten    --     61.9007                34.4878                23.2762

                     82                     83                     84
                      A                      A                      A
 Frequencies --   3052.6730              3064.0855              3079.6687
 Red. masses --      1.0617                 1.0992                 1.1013
 Frc consts  --      5.8294                 6.0805                 6.1538
 IR Inten    --     26.4415                36.1627                 0.2422

                     85                     86                     87
                      A                      A                      A
 Frequencies --   3102.1882              3107.0813              3109.7580
 Red. masses --      1.1023                 1.1025                 1.1021
 Frc consts  --      6.2503                 6.2711                 6.2793
 IR Inten    --     56.0636                38.0794                24.5488

                     88                     89                     90
                      A                      A                      A
 Frequencies --   3111.7972              3112.1646              3132.3694
 Red. masses --      1.1026                 1.1019                 1.1009
 Frc consts  --      6.2905                 6.2879                 6.3640
 IR Inten    --     45.7743                60.9747                41.5523

                     91                     92                     93
                      A                      A                      A
 Frequencies --   3173.0499              3200.6144              3543.6433
 Red. masses --      1.0877                 1.0918                 1.0484
 Frc consts  --      6.4524                 6.5899                 7.7566
 IR Inten    --     18.7824                22.6529                 4.5066

                     94                     95                     96
                      A                      A                      A
 Frequencies --   3578.7807              3637.5172              3668.8427
 Red. masses --      1.0484                 1.0965                 1.0961
 Frc consts  --      7.9116                 8.5484                 8.6931
 IR Inten    --      5.3770                 5.4601                10.4597

 - Thermochemistry -
 -------------------
 Temperature   298.150 Kelvin.  Pressure   1.00000 Atm.
 Atom     1 has atomic number  6 and mass  12.00000

 Molecular mass:   192.16265 amu.
 Principal axes and moments of inertia in atomic units:
                           1         2         3
     Eigenvalues --  1630.292984065.589604902.20944
           X            0.99990   0.01392   0.00332
           Y           -0.01396   0.99980   0.01426
           Z           -0.00312  -0.01431   0.99989
 This molecule is an asymmetric top.
 Rotational symmetry number  1.
 Warning -- assumption of classical behavior for rotation
           may cause significant error
 Rotational temperatures (Kelvin)      0.05313     0.02130     0.01767
 Rotational constants (GHZ):           1.10700     0.44391     0.36815
 Zero-point vibrational energy     803103.2 (Joules/Mol)
                                  191.94628 (Kcal/Mol)
 Warning -- explicit consideration of  24 degrees of freedom as
           vibrations may cause significant error
 Vibrational temperatures:     57.83   101.17   145.54   153.07   192.74
          (Kelvin)            263.19   277.83   299.74   310.21   337.11
                              346.72   382.46   400.15   414.94   514.41
                              540.17   550.10   600.38   607.73   678.34
                              697.15   755.71   811.58   841.17   908.77
                              963.62   970.14  1007.35  1058.15  1124.60
                             1148.32  1164.75  1178.55  1207.84  1288.73
                             1326.36  1402.68  1407.90  1457.54  1473.53
                             1501.27  1567.04  1577.66  1605.80  1615.29
                             1661.53  1706.15  1747.63  1752.87  1796.73
                             1857.08  1876.26  1898.83  1931.09  1942.33
                             1977.85  1986.24  2005.79  2050.49  2064.22
                             2071.29  2075.83  2145.56  2190.62  2193.38
                             2195.47  2198.42  2201.30  2206.12  2218.37
                             2227.58  2231.87  2368.50  2395.82  2446.17
                             2459.04  4335.90  4364.86  4372.72  4375.07
                             4386.53  4392.12  4408.54  4430.96  4463.36
                             4470.40  4474.25  4477.18  4477.71  4506.78
                             4565.31  4604.97  5098.51  5149.07  5233.58
                             5278.65

 Zero-point correction=                           0.305886 (Hartree/Particle)
 Thermal correction to Energy=                    0.321329
 Thermal correction to Enthalpy=                  0.322273
 Thermal correction to Gibbs Free Energy=         0.264479
 Sum of electronic and zero-point Energies=           -578.594924
 Sum of electronic and thermal Energies=              -578.579482
 Sum of electronic and thermal Enthalpies=            -578.578537
 Sum of electronic and thermal Free Energies=         -578.636331

                     E (Thermal)             CV                S
                      KCal/Mol        Cal/Mol-Kelvin    Cal/Mol-Kelvin
 Total                  201.637             59.888            121.637
 Electronic               0.000              0.000              0.000
 Translational            0.889              2.981             41.665
 Rotational               0.889              2.981             31.852
 Vibrational            199.859             53.926             48.120
 Vibration     1          0.594              1.981              5.250
 Vibration     2          0.598              1.968              4.144
 Vibration     3          0.604              1.948              3.432
 Vibration     4          0.605              1.944              3.334
 Vibration     5          0.613              1.919              2.888
 Vibration     6          0.630              1.863              2.298
 Vibration     7          0.635              1.849              2.198
 Vibration     8          0.642              1.828              2.058
 Vibration     9          0.645              1.817              1.996
 Vibration    10          0.654              1.788              1.846
 Vibration    11          0.658              1.778              1.796
 Vibration    12          0.672              1.736              1.623
 Vibration    13          0.679              1.714              1.545
 Vibration    14          0.685              1.695              1.483
 Vibration    15          0.733              1.560              1.133
 Vibration    16          0.746              1.522              1.058
 Vibration    17          0.752              1.508              1.030
 Vibration    18          0.780              1.433              0.901
 Vibration    19          0.785              1.422              0.884
 Vibration    20          0.828              1.313              0.733
 Vibration    21          0.841              1.284              0.698
 Vibration    22          0.880              1.194              0.598
 Vibration    23          0.920              1.109              0.516
 Vibration    24          0.942              1.065              0.477

 Optimization completed.
    -- Stationary point found.
 Normal termination of Gaussian 16 at Thu Dec 10 11:35:41 2020.

 ----------------------------------------------------------------------
 # B3LYP/6-311++G(d,p) empiricaldispersion=gd3bj scf=xqc pop=npa geom=c
 heck
 ----------------------------------------------------------------------

 --------------------------------------
 CID_66600776_JID_4989_Energie_neutraal
 --------------------------------------
 Structure from the checkpoint file:  "JID_4989.chk"
 Charge =  0 Multiplicity = 1

 SCF Done:  E(RB3LYP) =  -579.069947258     A.U. after   15 cycles
 Normal termination of Gaussian 16 at Thu Dec 10 11:41:22 2020.

 ----------------------------------------------------------------------
 # B3LYP/6-311++G(d,p) empiricaldispersion=gd3bj scf=xqc pop=npa geom=c
 heck
 ----------------------------------------------------------------------

 ------------------------------------
 CID_66600776_JID_4989_Energie_kation
 ------------------------------------
 Structure from the checkpoint file:  "JID_4989.chk"
 Charge =  1 Multiplicity = 2

 SCF Done:  E(UB3LYP) =  -578.812143720     A.U. after   22 cycles
 Normal termination of Gaussian 16 at Thu Dec 10 11:53:02 2020.
 Gaussian 16:  ES64L-G16RevA.03 25-Dec-2016

 ----------------------------------------------------------------------
 # B3LYP/6-311++G(d,p) empiricaldispersion=gd3bj scf=xqc pop=npa geom=c
 heck
 ----------------------------------------------------------------------

 -----------------------------------
 CID_66600776_JID_4989_Energie_anion
 -----------------------------------
 Structure from the checkpoint file:  "JID_4989.chk"
 Charge = -1 Multiplicity = 2

                         Standard orientation:
 ---------------------------------------------------------------------
 Center     Atomic      Atomic             Coordinates (Angstroms)
 Number     Number       Type             X           Y           Z
 ---------------------------------------------------------------------
      1          6           0       -3.525630   -1.518375   -0.291940
      2          6           0       -2.761338   -0.755913    0.807471
      3          6           0       -1.538186   -0.024940    0.299069
      4          6           0       -1.646304    1.308161   -0.138267
      5          6           0       -0.506040    1.993446   -0.573423
      6          6           0        0.728581    1.355660   -0.565466
      7          6           0        0.879613    0.030807   -0.154809
      8          6           0       -0.282767   -0.665008    0.250449
      9          7           0       -0.183648   -2.002863    0.678177
     10          6           0        2.231415   -0.670091   -0.191888
     11          6           0        2.425158   -1.401504   -1.535229
     12          6           0        3.430761    0.252322    0.093656
     13          6           0        3.384133    0.918960    1.470001
     14          7           0       -2.884765    1.975081   -0.080232
     15          1           0       -3.864026   -0.838970   -1.083405
     16          1           0       -4.405365   -2.031601    0.113178
     17          1           0       -2.888045   -2.268390   -0.775240
     18          1           0       -3.435214   -0.035856    1.285630
     19          1           0       -2.473191   -1.452499    1.603904
     20          1           0       -0.589628    3.024127   -0.909488
     21          1           0        1.600441    1.910587   -0.898363
     22          1           0       -1.034255   -2.537486    0.566769
     23          1           0        0.596351   -2.507162    0.280052
     24          1           0        2.243353   -1.421244    0.611026
     25          1           0        2.459810   -0.677473   -2.357361
     26          1           0        3.358744   -1.977403   -1.546256
     27          1           0        1.596938   -2.088746   -1.745248
     28          1           0        4.343082   -0.353706    0.012620
     29          1           0        3.513165    1.014671   -0.692385
     30          1           0        3.333542    0.165471    2.265372
     31          1           0        4.277054    1.530042    1.643338
     32          1           0        2.504927    1.562294    1.570438
     33          1           0       -3.681980    1.402860   -0.329797
     34          1           0       -2.893180    2.833815   -0.618155
 ---------------------------------------------------------------------

 SCF Done:  E(UB3LYP) =  -579.057743411     A.U. after   32 cycles

 The electronic state is 2-A.
 Alpha  occ. eigenvalues --  -14.20813 -14.20765 -10.10193 -10.10029 -10.08064
 Alpha  occ. eigenvalues --  -10.07559 -10.06825 -10.06553 -10.06305 -10.06266
 Alpha  occ. eigenvalues --  -10.05983 -10.05958 -10.05535 -10.05257  -0.81885
 Alpha  occ. eigenvalues --   -0.80429  -0.73046  -0.70352  -0.67536  -0.64054
 Alpha  occ. eigenvalues --   -0.61046  -0.60443  -0.54093  -0.53157  -0.50800
 Alpha  occ. eigenvalues --   -0.48813  -0.44997  -0.43082  -0.41600  -0.38181
 Alpha  occ. eigenvalues --   -0.37650  -0.35522  -0.33935  -0.33719  -0.32922
 Alpha  occ. eigenvalues --   -0.32511  -0.32105  -0.31009  -0.30248  -0.29734
 Alpha  occ. eigenvalues --   -0.27982  -0.27316  -0.25875  -0.25788  -0.25271
 Alpha  occ. eigenvalues --   -0.24119  -0.23794  -0.23160  -0.21768  -0.21557
 Alpha  occ. eigenvalues --   -0.18104  -0.10910  -0.09297   0.04329
 Alpha virt. eigenvalues --    0.06093   0.06671   0.07708   0.08313   0.08469
 Alpha virt. eigenvalues --    0.09497   0.10070   0.10299   0.10568   0.10751
 Alpha virt. eigenvalues --    0.11107   0.11823   0.12221   0.12315   0.13076

  Beta  occ. eigenvalues --  -14.20768 -14.20716 -10.10176 -10.10022 -10.08055
  Beta  occ. eigenvalues --  -10.07552 -10.06820 -10.06538 -10.06279 -10.06259
  Beta  occ. eigenvalues --  -10.05980 -10.05961 -10.05475 -10.05251  -0.81831
  Beta  occ. eigenvalues --   -0.80361  -0.73019  -0.70317  -0.67501  -0.64032
  Beta  occ. eigenvalues --   -0.60993  -0.60399  -0.54052  -0.53079  -0.50753
  Beta  occ. eigenvalues --   -0.48760  -0.44956  -0.43041  -0.41539  -0.38131
  Beta  occ. eigenvalues --   -0.37615  -0.35485  -0.33910  -0.33687  -0.32885
  Beta  occ. eigenvalues --   -0.32472  -0.32081  -0.30978  -0.30208  -0.29696
  Beta  occ. eigenvalues --   -0.27956  -0.27274  -0.25824  -0.25770  -0.25232
  Beta  occ. eigenvalues --   -0.24085  -0.23761  -0.23134  -0.21741  -0.21521
  Beta  occ. eigenvalues --   -0.18070  -0.10867  -0.09263
  Beta virt. eigenvalues --    0.06315   0.07053   0.07430   0.07955   0.08656
  Beta virt. eigenvalues --    0.09038   0.09914   0.10206   0.10644   0.10727
  Beta virt. eigenvalues --    0.10910   0.11376   0.12104   0.12473   0.12628

 Mulliken charges and spin densities:
               1          2
     1  C    1.193832  -1.664571
     2  C   -0.223440  -0.263110
     3  C    0.491973   0.713118
     4  C   -0.476292  -0.453195
     5  C   -0.278226  -0.239015
     6  C   -0.192522  -0.389264
     7  C    1.099842  -0.312853
     8  C    0.295492  -0.444614
     9  N   -0.381016   0.059448
    10  C   -0.857583   0.772259
    11  C    0.381577  -1.044608
    12  C    0.137290  -0.196462
    13  C   -0.517739  -0.192936
    14  N   -0.349795   0.060933
    15  H   -0.332714   0.470657
    16  H   -0.413654   0.548288
    17  H   -0.305477   0.448751
    18  H   -0.031590   0.208050
    19  H   -0.020830   0.178790
    20  H   -0.283857   0.416822
    21  H    0.204477  -0.084463
    22  H    0.035345   0.220482
    23  H   -0.125067   0.377984
    24  H   -0.001443   0.160586
    25  H    0.003885   0.157382
    26  H   -0.187173   0.304334
    27  H   -0.086186   0.229296
    28  H    0.018572   0.145394
    29  H    0.052417   0.063785
    30  H    0.090307   0.043961
    31  H    0.053495   0.064047
    32  H    0.150728   0.006726
    33  H   -0.029612   0.277427
    34  H   -0.115015   0.356571
 Sum of Mulliken charges =  -1.00000   1.00000

 Dipole moment (field-independent basis, Debye):
    X=              6.2514    Y=              3.0248    Z=              1.2111  Tot=              7.0496
 Quadrupole moment (field-independent basis, Debye-Ang):
   XX=           -160.1898   YY=           -138.1788   ZZ=           -118.8694
   XY=              3.9935   XZ=             -1.6211   YZ=             -1.7770

 Summary of Natural Population Analysis:

                                       Natural Population
                Natural  -----------------------------------------------
    Atom  No    Charge         Core      Valence    Rydberg      Total
 -----------------------------------------------------------------------
      C    1   -0.28205      0.99966     2.27732    0.00507     3.28205
      C    2   -0.20638      0.99962     2.19719    0.00957     3.20638
      C    3   -0.05504      0.99943     2.04447    0.01113     3.05504
      C    4    0.09288      0.99944     1.89674    0.01094     2.90712
      C    5   -0.13951      0.99952     2.12991    0.01008     3.13951
      C    6   -0.09139      0.99952     2.08322    0.00864     3.09139
      C    7   -0.05291      0.99946     2.04245    0.01100     3.05291
      C    8    0.10043      0.99941     1.88910    0.01106     2.89957
      N    9   -0.40033      0.99971     2.89066    0.00996     3.90033
      C   10   -0.11977      0.99958     2.10909    0.01110     3.11977
      C   11   -0.28012      0.99965     2.27459    0.00588     3.28012
      C   12   -0.18518      0.99963     2.17743    0.00812     3.18518
      C   13   -0.28672      0.99966     2.28281    0.00425     3.28672
      N   14   -0.40021      0.99972     2.89036    0.01012     3.90021
      H   15    0.09702      0.00000     0.40116    0.00182     0.40298
      H   16    0.09830      0.00000     0.40004    0.00165     0.40170
      H   17    0.09709      0.00000     0.40095    0.00196     0.40291
      H   18    0.10420      0.00000     0.39420    0.00160     0.39580
      H   19    0.10108      0.00000     0.39742    0.00150     0.39892
      H   20    0.09482      0.00000     0.40390    0.00128     0.40518
      H   21    0.09502      0.00000     0.40354    0.00143     0.40498
      H   22    0.18936      0.00000     0.30844    0.00220     0.31064
      H   23    0.18677      0.00000     0.31100    0.00223     0.31323
      H   24    0.09603      0.00000     0.40178    0.00219     0.40397
      H   25    0.09774      0.00000     0.40129    0.00097     0.40226
      H   26    0.09513      0.00000     0.40379    0.00109     0.40487
      H   27    0.10155      0.00000     0.39726    0.00119     0.39845
      H   28    0.09532      0.00000     0.40370    0.00097     0.40468
      H   29    0.09187      0.00000     0.40705    0.00108     0.40813
      H   30    0.09619      0.00000     0.40287    0.00094     0.40381
      H   31    0.09356      0.00000     0.40568    0.00076     0.40644
      H   32    0.10411      0.00000     0.39497    0.00092     0.39589
      H   33    0.18800      0.00000     0.30940    0.00260     0.31200
      H   34    0.18312      0.00000     0.31438    0.00250     0.31688
 =======================================================================
   * Total *   -0.00000     13.99402    38.84816    0.15782    53.00000

 Normal termination of Gaussian 16 at Thu Dec 10 12:10:07 2020.
