 Gaussian 16, Revision A.03,

 -----------------------------------------------------------
 # opt freq B3LYP/6-31G(d) empiricaldispersion=gd3bj scf=xqc
 -----------------------------------------------------------

 -------------------------------
 CID_107914859_JID_4660_neutraal
 -------------------------------
 Symbolic Z-matrix:
 Charge =  0 Multiplicity = 1

 SCF Done:  E(RB3LYP) =  -667.894997157     A.U. after   14 cycles
 SCF Done:  E(RB3LYP) =  -667.899032557     A.U. after   12 cycles
 SCF Done:  E(RB3LYP) =  -667.900106994     A.U. after   12 cycles
 SCF Done:  E(RB3LYP) =  -667.900610932     A.U. after   11 cycles
 SCF Done:  E(RB3LYP) =  -667.899908007     A.U. after   12 cycles
 SCF Done:  E(RB3LYP) =  -667.900908822     A.U. after   11 cycles
 SCF Done:  E(RB3LYP) =  -667.901207984     A.U. after   12 cycles
 SCF Done:  E(RB3LYP) =  -667.901481684     A.U. after   12 cycles
 SCF Done:  E(RB3LYP) =  -667.901818727     A.U. after   11 cycles
 SCF Done:  E(RB3LYP) =  -667.902131263     A.U. after   11 cycles
 SCF Done:  E(RB3LYP) =  -667.902312921     A.U. after    8 cycles
 SCF Done:  E(RB3LYP) =  -667.902312986     A.U. after    7 cycles
 SCF Done:  E(RB3LYP) =  -667.902313021     A.U. after    7 cycles
 SCF Done:  E(RB3LYP) =  -667.902313054     A.U. after    7 cycles
 SCF Done:  E(RB3LYP) =  -667.902313071     A.U. after    7 cycles
 Optimization completed.
    -- Stationary point found.
 Normal termination of Gaussian 16 at Thu Dec 10 10:27:18 2020.

 --------------------------------------------------------------------
 #N Geom=AllCheck Guess=TCheck SCRF=Check GenChk RB3LYP/6-31G(d) Freq
 --------------------------------------------------------------------

 Structure from the checkpoint file:  "JID_4660.chk"
 -------------------------------
 CID_107914859_JID_4660_neutraal
 -------------------------------
 Charge =  0 Multiplicity = 1

 SCF Done:  E(RB3LYP) =  -667.902313071     A.U. after    1 cycles

  Exact polarizability: 154.959  -4.543 111.399  -0.537  -4.223  90.222
 Approx polarizability: 178.998  -0.023 169.371  -1.394 -18.146 147.258

                      1                      2                      3
                      A                      A                      A
 Frequencies --     22.3631                31.2997                47.9853
 Red. masses --      4.1185                 3.3147                 2.9657
 Frc consts  --      0.0012                 0.0019                 0.0040
 IR Inten    --      1.9861                 1.9269                 1.8678

                      4                      5                      6
                      A                      A                      A
 Frequencies --     59.5529                89.1615               134.5439
 Red. masses --      3.2668                 3.6932                 1.0671
 Frc consts  --      0.0068                 0.0173                 0.0114
 IR Inten    --      0.4396                 0.4926                 0.0385

                      7                      8                      9
                      A                      A                      A
 Frequencies --    146.1564               165.4981               206.2821
 Red. masses --      2.9302                 4.0167                 2.2752
 Frc consts  --      0.0369                 0.0648                 0.0570
 IR Inten    --      8.1831                 2.3081                 1.6999

                     10                     11                     12
                      A                      A                      A
 Frequencies --    223.8384               230.1073               234.3760
 Red. masses --      2.5935                 1.4134                 2.1386
 Frc consts  --      0.0766                 0.0441                 0.0692
 IR Inten    --      2.1573                 0.5593                 1.4176

                     13                     14                     15
                      A                      A                      A
 Frequencies --    248.1096               302.1857               309.2239
 Red. masses --      1.4814                 3.1610                 1.9353
 Frc consts  --      0.0537                 0.1701                 0.1090
 IR Inten    --      1.0150                 2.2778                 0.7571

                     16                     17                     18
                      A                      A                      A
 Frequencies --    329.9041               389.4520               400.5030
 Red. masses --      3.3389                 2.8895                 3.2979
 Frc consts  --      0.2141                 0.2582                 0.3117
 IR Inten    --      2.5921                 0.8384                 3.6059

                     19                     20                     21
                      A                      A                      A
 Frequencies --    458.3086               542.1610               563.3099
 Red. masses --      3.6656                 3.7370                 2.2001
 Frc consts  --      0.4536                 0.6472                 0.4113
 IR Inten    --      8.6102                 2.5646                 1.7183

                     22                     23                     24
                      A                      A                      A
 Frequencies --    667.5295               676.0984               699.4373
 Red. masses --      5.5928                 5.3971                 5.1308
 Frc consts  --      1.4683                 1.4535                 1.4789
 IR Inten    --      3.1835                 3.4575                 6.9348

                     25                     26                     27
                      A                      A                      A
 Frequencies --    761.9697               769.8595               809.4342
 Red. masses --      3.1216                 1.8936                 1.2973
 Frc consts  --      1.0678                 0.6612                 0.5008
 IR Inten    --      1.5654                46.0867                22.0921

                     28                     29                     30
                      A                      A                      A
 Frequencies --    837.1638               905.3365               938.9460
 Red. masses --      1.7026                 1.9092                 1.4204
 Frc consts  --      0.7030                 0.9220                 0.7378
 IR Inten    --     24.5144                14.2988                 9.1255

                     31                     32                     33
                      A                      A                      A
 Frequencies --    954.1603               969.8130              1006.7326
 Red. masses --      1.8723                 3.9033                10.2577
 Frc consts  --      1.0043                 2.1630                 6.1253
 IR Inten    --      4.2398                16.9830                 9.9850

                     34                     35                     36
                      A                      A                      A
 Frequencies --   1015.7133              1038.3478              1045.1039
 Red. masses --      2.1896                 2.1592                 2.8880
 Frc consts  --      1.3309                 1.3716                 1.8585
 IR Inten    --      3.0645                 1.2211                16.3407

                     37                     38                     39
                      A                      A                      A
 Frequencies --   1083.8830              1084.6525              1094.7097
 Red. masses --      1.5594                 3.7131                 3.3826
 Frc consts  --      1.0794                 2.5738                 2.3883
 IR Inten    --      5.4519                24.3161                53.8845

                     40                     41                     42
                      A                      A                      A
 Frequencies --   1121.6928              1148.5249              1165.5985
 Red. masses --      1.8673                 2.4138                 1.9077
 Frc consts  --      1.3843                 1.8760                 1.5270
 IR Inten    --     14.4858                30.4209                11.2533

                     43                     44                     45
                      A                      A                      A
 Frequencies --   1182.7801              1195.6216              1214.1485
 Red. masses --      2.1775                 4.3366                 2.0422
 Frc consts  --      1.7948                 3.6525                 1.7737
 IR Inten    --     29.5939                50.4598                27.4841

                     46                     47                     48
                      A                      A                      A
 Frequencies --   1220.3115              1255.3368              1285.0997
 Red. masses --      2.4857                 1.5880                 1.2418
 Frc consts  --      2.1809                 1.4744                 1.2083
 IR Inten    --     31.5175                86.4096                15.3620

                     49                     50                     51
                      A                      A                      A
 Frequencies --   1323.8423              1345.6391              1350.0218
 Red. masses --      1.4929                 1.1206                 1.7422
 Frc consts  --      1.5415                 1.1955                 1.8708
 IR Inten    --     23.1641                 4.6590                 5.3246

                     52                     53                     54
                      A                      A                      A
 Frequencies --   1402.5054              1414.2029              1426.4070
 Red. masses --      1.4859                 1.2748                 1.2218
 Frc consts  --      1.7221                 1.5022                 1.4647
 IR Inten    --      4.6342                 9.4030                 1.3795

                     55                     56                     57
                      A                      A                      A
 Frequencies --   1435.2081              1438.3979              1444.6047
 Red. masses --      1.2858                 1.3251                 1.2780
 Frc consts  --      1.5605                 1.6153                 1.5714
 IR Inten    --     11.4457                 0.7931                17.5649

                     58                     59                     60
                      A                      A                      A
 Frequencies --   1459.0075              1504.1249              1509.9524
 Red. masses --      1.8452                 1.0429                 1.1186
 Frc consts  --      2.3143                 1.3902                 1.5026
 IR Inten    --      6.0874                 9.0814                 5.7609

                     61                     62                     63
                      A                      A                      A
 Frequencies --   1515.5878              1521.2870              1521.5273
 Red. masses --      1.0576                 1.0525                 1.0481
 Frc consts  --      1.4313                 1.4351                 1.4296
 IR Inten    --      2.1377                12.8916                 0.5195

                     64                     65                     66
                      A                      A                      A
 Frequencies --   1530.1270              1533.7139              1535.9621
 Red. masses --      1.0544                 1.1102                 1.1453
 Frc consts  --      1.4544                 1.5387                 1.5920
 IR Inten    --      5.6892                52.0274                 2.7328

                     67                     68                     69
                      A                      A                      A
 Frequencies --   1545.9547              1553.3952              1624.8209
 Red. masses --      1.1518                 1.0869                 9.0274
 Frc consts  --      1.6219                 1.5453                14.0418
 IR Inten    --     46.7693                15.2624                38.9481

                     70                     71                     72
                      A                      A                      A
 Frequencies --   1646.1363              2897.6556              2919.3711
 Red. masses --      8.0649                 1.0746                 1.0734
 Frc consts  --     12.8760                 5.3163                 5.3899
 IR Inten    --     39.4788                47.7706                76.9685

                     73                     74                     75
                      A                      A                      A
 Frequencies --   3042.4844              3044.2650              3051.4587
 Red. masses --      1.0573                 1.0822                 1.0835
 Frc consts  --      5.7664                 5.9094                 5.9440
 IR Inten    --     29.3376                39.1294                34.6750

                     76                     77                     78
                      A                      A                      A
 Frequencies --   3056.2365              3058.8455              3064.4687
 Red. masses --      1.0383                 1.0402                 1.0379
 Frc consts  --      5.7141                 5.7345                 5.7425
 IR Inten    --     22.4870                31.2317                12.7297

                     79                     80                     81
                      A                      A                      A
 Frequencies --   3078.0840              3081.8028              3121.0179
 Red. masses --      1.0876                 1.1050                 1.1018
 Frc consts  --      6.0714                 6.1834                 6.3233
 IR Inten    --     18.8306                27.6362                 7.3738

                     82                     83                     84
                      A                      A                      A
 Frequencies --   3122.3075              3122.4871              3137.1852
 Red. masses --      1.1009                 1.0985                 1.1029
 Frc consts  --      6.3235                 6.3105                 6.3953
 IR Inten    --     42.9558                51.2107                18.3697

                     85                     86                     87
                      A                      A                      A
 Frequencies --   3143.8631              3172.6274              3518.2377
 Red. masses --      1.1035                 1.1006                 1.0739
 Frc consts  --      6.4258                 6.5270                 7.8316
 IR Inten    --     28.3384                 2.4235                18.0772

 - Thermochemistry -
 -------------------
 Temperature   298.150 Kelvin.  Pressure   1.00000 Atm.
 Atom     1 has atomic number  6 and mass  12.00000

 Molecular mass:   199.13208 amu.
 Principal axes and moments of inertia in atomic units:
                           1         2         3
     Eigenvalues --  1069.894886286.407046913.18026
           X            0.99999  -0.00106   0.00302
           Y            0.00099   0.99972   0.02358
           Z           -0.00304  -0.02358   0.99972
 This molecule is an asymmetric top.
 Rotational symmetry number  1.
 Warning -- assumption of classical behavior for rotation
           may cause significant error
 Rotational temperatures (Kelvin)      0.08096     0.01378     0.01253
 Rotational constants (GHZ):           1.68684     0.28709     0.26106
 Zero-point vibrational energy     702789.0 (Joules/Mol)
                                  167.97061 (Kcal/Mol)
 Warning -- explicit consideration of  21 degrees of freedom as
           vibrations may cause significant error
 Vibrational temperatures:     32.18    45.03    69.04    85.68   128.28
          (Kelvin)            193.58   210.29   238.11   296.79   322.05
                              331.07   337.21   356.97   434.78   444.90
                              474.66   560.33   576.23   659.40   780.05
                              810.48   960.43   972.75  1006.33  1096.30
                             1107.66  1164.60  1204.49  1302.58  1350.93
                             1372.82  1395.34  1448.46  1461.38  1493.95
                             1503.67  1559.47  1560.57  1575.04  1613.87
                             1652.47  1677.04  1701.76  1720.23  1746.89
                             1755.76  1806.15  1848.97  1904.71  1936.07
                             1942.38  2017.89  2034.72  2052.28  2064.94
                             2069.53  2078.46  2099.19  2164.10  2172.48
                             2180.59  2188.79  2189.14  2201.51  2206.67
                             2209.91  2224.28  2234.99  2337.75  2368.42
                             4169.08  4200.32  4377.46  4380.02  4390.37
                             4397.24  4401.00  4409.09  4428.68  4434.03
                             4490.45  4492.30  4492.56  4513.71  4523.32
                             4564.70  5061.96

 Zero-point correction=                           0.267678 (Hartree/Particle)
 Thermal correction to Energy=                    0.283045
 Thermal correction to Enthalpy=                  0.283989
 Thermal correction to Gibbs Free Energy=         0.223116
 Sum of electronic and zero-point Energies=           -667.634635
 Sum of electronic and thermal Energies=              -667.619268
 Sum of electronic and thermal Enthalpies=            -667.618324
 Sum of electronic and thermal Free Energies=         -667.679197

                     E (Thermal)             CV                S
                      KCal/Mol        Cal/Mol-Kelvin    Cal/Mol-Kelvin
 Total                  177.614             55.046            128.119
 Electronic               0.000              0.000              0.000
 Translational            0.889              2.981             41.771
 Rotational               0.889              2.981             32.208
 Vibrational            175.836             49.084             54.139
 Vibration     1          0.593              1.985              6.412
 Vibration     2          0.594              1.983              5.745
 Vibration     3          0.595              1.978              4.899
 Vibration     4          0.597              1.974              4.472
 Vibration     5          0.602              1.957              3.678
 Vibration     6          0.613              1.919              2.880
 Vibration     7          0.617              1.907              2.722
 Vibration     8          0.624              1.885              2.486
 Vibration     9          0.641              1.831              2.076
 Vibration    10          0.649              1.805              1.928
 Vibration    11          0.652              1.795              1.878
 Vibration    12          0.654              1.788              1.845
 Vibration    13          0.662              1.766              1.744
 Vibration    14          0.694              1.670              1.405
 Vibration    15          0.699              1.656              1.366
 Vibration    16          0.713              1.616              1.261
 Vibration    17          0.757              1.493              1.002
 Vibration    18          0.766              1.469              0.961
 Vibration    19          0.816              1.343              0.771
 Vibration    20          0.897              1.157              0.561
 Vibration    21          0.919              1.111              0.517

 Optimization completed.
    -- Stationary point found.
 Normal termination of Gaussian 16 at Thu Dec 10 10:35:30 2020.

 ----------------------------------------------------------------------
 # B3LYP/6-311++G(d,p) empiricaldispersion=gd3bj scf=xqc pop=npa geom=c
 heck
 ----------------------------------------------------------------------

 ---------------------------------------
 CID_107914859_JID_4660_Energie_neutraal
 ---------------------------------------
 Structure from the checkpoint file:  "JID_4660.chk"
 Charge =  0 Multiplicity = 1

 SCF Done:  E(RB3LYP) =  -668.093352797     A.U. after   15 cycles
 Normal termination of Gaussian 16 at Thu Dec 10 10:39:38 2020.

 ----------------------------------------------------------------------
 # B3LYP/6-311++G(d,p) empiricaldispersion=gd3bj scf=xqc pop=npa geom=c
 heck
 ----------------------------------------------------------------------

 -------------------------------------
 CID_107914859_JID_4660_Energie_kation
 -------------------------------------
 Structure from the checkpoint file:  "JID_4660.chk"
 Charge =  1 Multiplicity = 2

 SCF Done:  E(UB3LYP) =  -667.782349515     A.U. after   27 cycles
 Normal termination of Gaussian 16 at Thu Dec 10 10:49:53 2020.
 Gaussian 16:  ES64L-G16RevA.03 25-Dec-2016

 ----------------------------------------------------------------------
 # B3LYP/6-311++G(d,p) empiricaldispersion=gd3bj scf=xqc pop=npa geom=c
 heck
 ----------------------------------------------------------------------

 ------------------------------------
 CID_107914859_JID_4660_Energie_anion
 ------------------------------------
 Structure from the checkpoint file:  "JID_4660.chk"
 Charge = -1 Multiplicity = 2

                         Standard orientation:
 ---------------------------------------------------------------------
 Center     Atomic      Atomic             Coordinates (Angstroms)
 Number     Number       Type             X           Y           Z
 ---------------------------------------------------------------------
      1          6           0        1.548005    2.063640    0.843754
      2          6           0        2.907422    1.633886    0.296400
      3          8           0        2.801140    0.740252   -0.813220
      4          6           0        3.008018   -0.657873   -0.585372
      5          6           0        4.408644   -0.987345   -0.068900
      6          6           0        1.903726   -1.252504    0.291706
      7          7           0        0.610184   -0.987070   -0.313552
      8          6           0       -0.511762   -1.194213    0.581763
      9          6           0       -1.694322   -0.417149    0.109177
     10          7           0       -1.703670    0.686461   -0.564181
     11          7           0       -3.052063    1.046410   -0.718339
     12          6           0       -3.744601    0.131230   -0.120627
     13          8           0       -2.950174   -0.840404    0.433320
     14          6           0       -5.216761    0.017239    0.020882
     15          1           0        0.894305    2.399594    0.033142
     16          1           0        1.674985    2.891451    1.551925
     17          1           0        1.040147    1.249476    1.369764
     18          1           0        3.442566    2.512786   -0.082005
     19          1           0        3.523201    1.203542    1.095896
     20          1           0        2.895097   -1.083551   -1.588289
     21          1           0        4.554974   -0.679297    0.971937
     22          1           0        4.581127   -2.068030   -0.119653
     23          1           0        5.161241   -0.487908   -0.686342
     24          1           0        2.056616   -2.337045    0.379102
     25          1           0        1.990510   -0.841879    1.318125
     26          1           0        0.598480   -0.033362   -0.669543
     27          1           0       -0.295920   -0.880860    1.625029
     28          1           0       -0.779138   -2.257886    0.634760
     29          1           0       -5.583468   -0.908513   -0.435778
     30          1           0       -5.510306    0.010875    1.076256
     31          1           0       -5.683523    0.869760   -0.475311
 ---------------------------------------------------------------------

 SCF Done:  E(UB3LYP) =  -668.081442844     A.U. after   33 cycles
 SCF Done:  E(UB3LYP) =  -668.081442844     a.u. after    1 cycles

 The electronic state is 2-A.
 Alpha  occ. eigenvalues --  -19.12096 -19.03141 -14.24571 -14.24496 -14.20934
 Alpha  occ. eigenvalues --  -10.18105 -10.17952 -10.13414 -10.12758 -10.12636
 Alpha  occ. eigenvalues --  -10.10269 -10.09628 -10.07389 -10.06846  -1.06923
 Alpha  occ. eigenvalues --   -0.94222  -0.88893  -0.82952  -0.76080  -0.69722
 Alpha  occ. eigenvalues --   -0.65970  -0.64876  -0.63004  -0.57679  -0.54839
 Alpha  occ. eigenvalues --   -0.52932  -0.50623  -0.47822  -0.43416  -0.42166
 Alpha  occ. eigenvalues --   -0.41654  -0.39537  -0.38008  -0.36693  -0.35848
 Alpha  occ. eigenvalues --   -0.34480  -0.34059  -0.33472  -0.33031  -0.32451
 Alpha  occ. eigenvalues --   -0.31845  -0.30865  -0.29833  -0.28932  -0.28351
 Alpha  occ. eigenvalues --   -0.27146  -0.25558  -0.25340  -0.23329  -0.21256
 Alpha  occ. eigenvalues --   -0.19452  -0.18160  -0.17258  -0.14313   0.03998
 Alpha virt. eigenvalues --    0.05315   0.06825   0.07100   0.07625   0.08266
 Alpha virt. eigenvalues --    0.09128   0.09176   0.09755   0.10026   0.10707
 Alpha virt. eigenvalues --    0.10842   0.11348   0.11855   0.12253   0.12827

  Beta  occ. eigenvalues --  -19.12081 -19.03141 -14.24566 -14.24494 -14.20929
  Beta  occ. eigenvalues --  -10.18102 -10.17945 -10.13410 -10.12736 -10.12619
  Beta  occ. eigenvalues --  -10.10248 -10.09565 -10.07354 -10.06832  -1.06905
  Beta  occ. eigenvalues --   -0.94217  -0.88883  -0.82935  -0.76059  -0.69697
  Beta  occ. eigenvalues --   -0.65922  -0.64831  -0.62963  -0.57633  -0.54796
  Beta  occ. eigenvalues --   -0.52887  -0.50594  -0.47773  -0.43394  -0.42139
  Beta  occ. eigenvalues --   -0.41624  -0.39503  -0.37965  -0.36661  -0.35811
  Beta  occ. eigenvalues --   -0.34446  -0.34019  -0.33431  -0.32979  -0.32403
  Beta  occ. eigenvalues --   -0.31802  -0.30830  -0.29802  -0.28901  -0.28324
  Beta  occ. eigenvalues --   -0.27121  -0.25548  -0.25317  -0.23316  -0.21239
  Beta  occ. eigenvalues --   -0.19444  -0.18129  -0.17246  -0.14280
  Beta virt. eigenvalues --    0.06105   0.06578   0.07249   0.07575   0.07971
  Beta virt. eigenvalues --    0.08627   0.09554   0.09815   0.10182   0.10557
  Beta virt. eigenvalues --    0.10917   0.11150   0.11578   0.12082   0.12588

 Mulliken charges and spin densities:
               1          2
     1  C   -0.529231  -0.081599
     2  C    0.391366  -0.443791
     3  O   -0.086244   0.009261
     4  C   -1.633453   1.320188
     5  C    0.702907  -1.276190
     6  C    0.679829  -0.920416
     7  N   -0.196258   0.121732
     8  C    0.505229  -1.092576
     9  C   -0.251651   0.297258
    10  N   -0.137630  -0.107208
    11  N   -0.057443   0.120185
    12  C   -1.269565   1.773956
    13  O   -0.050526   0.063346
    14  C    2.571824  -3.245830
    15  H    0.158990   0.044458
    16  H   -0.099756   0.214141
    17  H    0.195291  -0.039800
    18  H    0.103339   0.050765
    19  H   -0.078354   0.195378
    20  H    0.116416   0.071127
    21  H   -0.281048   0.439031
    22  H   -0.238591   0.377037
    23  H   -0.123029   0.275382
    24  H   -0.067428   0.236230
    25  H    0.020477   0.100878
    26  H    0.279699  -0.035172
    27  H   -0.373949   0.534783
    28  H   -0.062935   0.275361
    29  H   -0.436999   0.612428
    30  H   -0.601534   0.784586
    31  H   -0.149744   0.325070
 Sum of Mulliken charges =  -1.00000   1.00000

 Dipole moment (field-independent basis, Debye):
    X=              3.5748    Y=              1.1504    Z=             -1.5764  Tot=              4.0728
 Quadrupole moment (field-independent basis, Debye-Ang):
   XX=           -198.8443   YY=           -121.5881   ZZ=           -121.0648
   XY=              4.5190   XZ=             -0.2879   YZ=              4.1087

 Summary of Natural Population Analysis:

                                       Natural Population
                Natural  -----------------------------------------------
    Atom  No    Charge         Core      Valence    Rydberg      Total
 -----------------------------------------------------------------------
      C    1   -0.30163      0.99966     2.29629    0.00567     3.30163
      C    2   -0.01586      0.99959     2.00354    0.01273     3.01586
      O    3   -0.30942      0.99988     3.30069    0.00884     4.30942
      C    4    0.06490      0.99955     1.92095    0.01460     2.93510
      C    5   -0.30067      0.99964     2.29568    0.00534     3.30067
      C    6   -0.10035      0.99960     2.08900    0.01176     3.10035
      N    7   -0.33988      0.99973     2.82974    0.01041     3.83988
      C    8   -0.11202      0.99959     2.10093    0.01151     3.11202
      C    9    0.26170      0.99959     1.71931    0.01939     2.73830
      N   10   -0.17092      0.99965     2.65909    0.01218     3.67092
      N   11   -0.16600      0.99966     2.65396    0.01238     3.66600
      C   12    0.25984      0.99961     1.72169    0.01887     2.74016
      O   13   -0.24021      0.99985     3.23256    0.00781     4.24021
      C   14   -0.31398      0.99962     2.30861    0.00575     3.31398
      H   15    0.10679      0.00000     0.39212    0.00109     0.39321
      H   16    0.09833      0.00000     0.40081    0.00086     0.40167
      H   17    0.09748      0.00000     0.40092    0.00160     0.40252
      H   18    0.08435      0.00000     0.41460    0.00106     0.41565
      H   19    0.08289      0.00000     0.41558    0.00153     0.41711
      H   20    0.09298      0.00000     0.40545    0.00157     0.40702
      H   21    0.10002      0.00000     0.39851    0.00147     0.39998
      H   22    0.10461      0.00000     0.39431    0.00108     0.39539
      H   23    0.10329      0.00000     0.39579    0.00092     0.39671
      H   24    0.09650      0.00000     0.40211    0.00139     0.40350
      H   25    0.08096      0.00000     0.41723    0.00181     0.41904
      H   26    0.18916      0.00000     0.30536    0.00548     0.31084
      H   27    0.09564      0.00000     0.40246    0.00190     0.40436
      H   28    0.10418      0.00000     0.39427    0.00154     0.39582
      H   29    0.11432      0.00000     0.38378    0.00190     0.38568
      H   30    0.11668      0.00000     0.38007    0.00325     0.38332
      H   31    0.11632      0.00000     0.38230    0.00137     0.38368
 =======================================================================
   * Total *    0.00000     13.99522    39.81771    0.18707    54.00000

 Normal termination of Gaussian 16 at Thu Dec 10 11:02:21 2020.
