 Gaussian 16, Revision A.03,

 -----------------------------------------------------------
 # opt freq B3LYP/6-31G(d) empiricaldispersion=gd3bj scf=xqc
 -----------------------------------------------------------

 ------------------------------
 CID_82884419_JID_4388_neutraal
 ------------------------------
 Symbolic Z-matrix:
 Charge =  0 Multiplicity = 1

 SCF Done:  E(RB3LYP) =  -613.543414125     A.U. after   16 cycles
 SCF Done:  E(RB3LYP) =  -613.573528084     A.U. after   14 cycles
 SCF Done:  E(RB3LYP) =  -613.575211130     A.U. after   12 cycles
 SCF Done:  E(RB3LYP) =  -613.575308727     A.U. after   13 cycles
 SCF Done:  E(RB3LYP) =  -613.576017842     A.U. after   12 cycles
 SCF Done:  E(RB3LYP) =  -613.576206650     A.U. after   11 cycles
 SCF Done:  E(RB3LYP) =  -613.576266296     A.U. after   11 cycles
 SCF Done:  E(RB3LYP) =  -613.576277342     A.U. after    9 cycles
 SCF Done:  E(RB3LYP) =  -613.576279348     A.U. after    9 cycles
 SCF Done:  E(RB3LYP) =  -613.576279766     A.U. after    8 cycles
 SCF Done:  E(RB3LYP) =  -613.576279834     A.U. after    7 cycles
 SCF Done:  E(RB3LYP) =  -613.576279855     A.U. after    7 cycles
 Optimization completed.
    -- Stationary point found.
 Normal termination of Gaussian 16 at Thu Dec 10 09:25:41 2020.

 --------------------------------------------------------------------
 #N Geom=AllCheck Guess=TCheck SCRF=Check GenChk RB3LYP/6-31G(d) Freq
 --------------------------------------------------------------------

 Structure from the checkpoint file:  "JID_4388.chk"
 ------------------------------
 CID_82884419_JID_4388_neutraal
 ------------------------------
 Charge =  0 Multiplicity = 1

 SCF Done:  E(RB3LYP) =  -613.576279855     A.U. after    1 cycles

  Exact polarizability: 144.876  -1.422 113.051   7.733   1.543 105.324
 Approx polarizability: 187.023  -5.047 176.664  24.076   7.645 164.294

                      1                      2                      3
                      A                      A                      A
 Frequencies --     24.3822                49.7997                66.7954
 Red. masses --      9.3101                 4.7086                 4.8225
 Frc consts  --      0.0033                 0.0069                 0.0127
 IR Inten    --      0.0845                 1.5720                 0.0468

                      4                      5                      6
                      A                      A                      A
 Frequencies --     92.2501               106.1113               145.9581
 Red. masses --      2.0163                 5.1255                 4.1102
 Frc consts  --      0.0101                 0.0340                 0.0516
 IR Inten    --      0.5353                 0.2290                 3.6967

                      7                      8                      9
                      A                      A                      A
 Frequencies --    189.7398               212.1717               238.6918
 Red. masses --      5.8565                 1.4333                 2.5099
 Frc consts  --      0.1242                 0.0380                 0.0843
 IR Inten    --      6.8894                 0.5028                 0.6731

                     10                     11                     12
                      A                      A                      A
 Frequencies --    254.5213               292.8110               309.5798
 Red. masses --      2.2539                 2.6362                 4.5223
 Frc consts  --      0.0860                 0.1332                 0.2554
 IR Inten    --      3.5429                 0.9411                 1.0878

                     13                     14                     15
                      A                      A                      A
 Frequencies --    317.4011               338.3994               389.7501
 Red. masses --      2.4472                 2.1751                 2.4630
 Frc consts  --      0.1453                 0.1468                 0.2204
 IR Inten    --      1.4052                 0.7503                 4.4091

                     16                     17                     18
                      A                      A                      A
 Frequencies --    431.1107               466.5281               491.8205
 Red. masses --      3.8621                 2.0560                 2.2422
 Frc consts  --      0.4229                 0.2637                 0.3195
 IR Inten    --      2.5995                 1.2785                 0.3525

                     19                     20                     21
                      A                      A                      A
 Frequencies --    549.9053               564.6275               576.5606
 Red. masses --     10.1779                 4.6491                10.7564
 Frc consts  --      1.8134                 0.8733                 2.1067
 IR Inten    --      0.9343                 2.1606                20.7416

                     22                     23                     24
                      A                      A                      A
 Frequencies --    592.1504               647.1623               689.3298
 Red. masses --      3.1997                 3.8302                 6.1576
 Frc consts  --      0.6610                 0.9451                 1.7239
 IR Inten    --      3.8430                13.5232                13.9532

                     25                     26                     27
                      A                      A                      A
 Frequencies --    771.4285               787.7198               820.3375
 Red. masses --      2.3035                 1.2463                 1.8512
 Frc consts  --      0.8077                 0.4556                 0.7340
 IR Inten    --      0.3825                 1.4650                 4.8772

                     28                     29                     30
                      A                      A                      A
 Frequencies --    868.7491               889.2922               908.6420
 Red. masses --      1.6541                 2.4838                 2.4329
 Frc consts  --      0.7355                 1.1573                 1.1835
 IR Inten    --      6.4110                 1.1751                 9.8642

                     31                     32                     33
                      A                      A                      A
 Frequencies --    919.5108               971.9999              1001.6811
 Red. masses --      2.3316                 2.3881                 1.9861
 Frc consts  --      1.1615                 1.3293                 1.1741
 IR Inten    --      1.9461                 7.8242                40.7516

                     34                     35                     36
                      A                      A                      A
 Frequencies --   1030.2857              1046.7487              1064.6253
 Red. masses --      1.8779                 1.6717                 2.6570
 Frc consts  --      1.1744                 1.0792                 1.7743
 IR Inten    --      5.1824                 2.8066                 7.6053

                     37                     38                     39
                      A                      A                      A
 Frequencies --   1072.7510              1099.0236              1103.0179
 Red. masses --      1.7713                 2.4996                 2.0781
 Frc consts  --      1.2010                 1.7788                 1.4896
 IR Inten    --     11.0745                 3.6146                 3.5853

                     40                     41                     42
                      A                      A                      A
 Frequencies --   1132.3752              1163.1432              1193.4230
 Red. masses --      2.0055                 2.8985                 2.0122
 Frc consts  --      1.5152                 2.3104                 1.6886
 IR Inten    --      3.6854                 8.1986                 2.1594

                     43                     44                     45
                      A                      A                      A
 Frequencies --   1226.5714              1245.4684              1291.1504
 Red. masses --      1.6449                 1.3249                 1.2530
 Frc consts  --      1.4580                 1.2109                 1.2307
 IR Inten    --     16.0626                 3.2321                 3.5976

                     46                     47                     48
                      A                      A                      A
 Frequencies --   1305.0669              1321.2895              1333.9474
 Red. masses --      1.2341                 1.1821                 1.2129
 Frc consts  --      1.2384                 1.2160                 1.2716
 IR Inten    --      0.7247                 0.3819                 1.7256

                     49                     50                     51
                      A                      A                      A
 Frequencies --   1340.9635              1373.2793              1384.7992
 Red. masses --      1.2067                 1.2947                 1.3921
 Frc consts  --      1.2784                 1.4386                 1.5729
 IR Inten    --      0.9545                 0.4354                 2.3445

                     52                     53                     54
                      A                      A                      A
 Frequencies --   1390.8390              1405.2180              1417.8716
 Red. masses --      1.3874                 1.4117                 1.4416
 Frc consts  --      1.5812                 1.6425                 1.7075
 IR Inten    --      9.7837                 3.2460                 0.2088

                     55                     56                     57
                      A                      A                      A
 Frequencies --   1421.9153              1431.3809              1448.4293
 Red. masses --      1.4229                 1.4548                 1.2652
 Frc consts  --      1.6950                 1.7561                 1.5639
 IR Inten    --      1.9160                 0.9558                 8.8719

                     58                     59                     60
                      A                      A                      A
 Frequencies --   1463.3243              1510.2987              1515.5126
 Red. masses --     11.8641                 1.0858                 1.0816
 Frc consts  --     14.9681                 1.4593                 1.4636
 IR Inten    --     28.6360                 4.2000                 0.4705

                     61                     62                     63
                      A                      A                      A
 Frequencies --   1516.4119              1520.0225              1529.7616
 Red. masses --      1.0856                 1.0762                 1.0752
 Frc consts  --      1.4707                 1.4650                 1.4824
 IR Inten    --      3.7292                 4.5755                 1.8355

                     64                     65                     66
                      A                      A                      A
 Frequencies --   1532.6976              1536.9487              1539.5954
 Red. masses --      1.0802                 1.0483                 1.0673
 Frc consts  --      1.4952                 1.4590                 1.4906
 IR Inten    --     11.2895                 3.9468                 8.6976

                     67                     68                     69
                      A                      A                      A
 Frequencies --   2356.6219              2361.5956              2995.8306
 Red. masses --     12.7027                12.7040                 1.0820
 Frc consts  --     41.5648                41.7449                 5.7216
 IR Inten    --   1134.5188                12.4704                17.0775

                     70                     71                     72
                      A                      A                      A
 Frequencies --   3031.1965              3034.5726              3047.7762
 Red. masses --      1.0610                 1.0614                 1.0616
 Frc consts  --      5.7436                 5.7585                 5.8099
 IR Inten    --     25.5573                36.2186                26.9178

                     73                     74                     75
                      A                      A                      A
 Frequencies --   3048.2862              3055.6832              3062.6767
 Red. masses --      1.0639                 1.0397                 1.1003
 Frc consts  --      5.8246                 5.7195                 6.0807
 IR Inten    --      2.9509                21.4156                12.2486

                     76                     77                     78
                      A                      A                      A
 Frequencies --   3065.1256              3072.3154              3072.7347
 Red. masses --      1.0663                 1.0695                 1.0963
 Frc consts  --      5.9023                 5.9480                 6.0988
 IR Inten    --      2.2310                 1.2185                68.5910

                     79                     80                     81
                      A                      A                      A
 Frequencies --   3085.2493              3090.1287              3108.7307
 Red. masses --      1.1001                 1.0948                 1.1038
 Frc consts  --      6.1699                 6.1591                 6.2848
 IR Inten    --     11.8293                68.9731                18.1120

                     82                     83                     84
                      A                      A                      A
 Frequencies --   3119.1266              3120.2524              3123.0312
 Red. masses --      1.1020                 1.1025                 1.1021
 Frc consts  --      6.3169                 6.3243                 6.3334
 IR Inten    --     56.9484                 8.5321                43.0957

 - Thermochemistry -
 -------------------
 Temperature   298.150 Kelvin.  Pressure   1.00000 Atm.
 Atom     1 has atomic number  6 and mass  12.00000

 Molecular mass:   192.12626 amu.
 Principal axes and moments of inertia in atomic units:
                           1         2         3
     Eigenvalues --  1481.474244795.336335064.02883
           X            0.99996   0.00423  -0.00795
           Y           -0.00516   0.99278  -0.11983
           Z            0.00739   0.11986   0.99276
 This molecule is an asymmetric top.
 Rotational symmetry number  1.
 Warning -- assumption of classical behavior for rotation
           may cause significant error
 Rotational temperatures (Kelvin)      0.05846     0.01806     0.01710
 Rotational constants (GHZ):           1.21821     0.37635     0.35638
 Zero-point vibrational energy     680292.4 (Joules/Mol)
                                  162.59379 (Kcal/Mol)
 Warning -- explicit consideration of  22 degrees of freedom as
           vibrations may cause significant error
 Vibrational temperatures:     35.08    71.65    96.10   132.73   152.67
          (Kelvin)            210.00   272.99   305.27   343.42   366.20
                              421.29   445.42   456.67   486.88   560.76
                              620.27   671.23   707.62   791.19   812.37
                              829.54   851.97   931.12   991.79  1109.91
                             1133.35  1180.28  1249.94  1279.49  1307.33
                             1322.97  1398.49  1441.20  1482.35  1506.04
                             1531.76  1543.45  1581.25  1587.00  1629.24
                             1673.50  1717.07  1764.76  1791.95  1857.68
                             1877.70  1901.04  1919.25  1929.35  1975.84
                             1992.42  2001.11  2021.80  2040.00  2045.82
                             2059.44  2083.97  2105.40  2172.98  2180.48
                             2181.78  2186.97  2200.99  2205.21  2211.33
                             2215.13  3390.65  3397.81  4310.33  4361.22
                             4366.07  4385.07  4385.80  4396.45  4406.51
                             4410.03  4420.38  4420.98  4438.99  4446.01
                             4472.77  4487.73  4489.35  4493.35

 Zero-point correction=                           0.259110 (Hartree/Particle)
 Thermal correction to Energy=                    0.273290
 Thermal correction to Enthalpy=                  0.274235
 Thermal correction to Gibbs Free Energy=         0.217152
 Sum of electronic and zero-point Energies=           -613.317170
 Sum of electronic and thermal Energies=              -613.302989
 Sum of electronic and thermal Enthalpies=            -613.302045
 Sum of electronic and thermal Free Energies=         -613.359128

                     E (Thermal)             CV                S
                      KCal/Mol        Cal/Mol-Kelvin    Cal/Mol-Kelvin
 Total                  171.492             53.006            120.141
 Electronic               0.000              0.000              0.000
 Translational            0.889              2.981             41.664
 Rotational               0.889              2.981             31.953
 Vibrational            169.715             47.044             46.523
 Vibration     1          0.593              1.985              6.241
 Vibration     2          0.595              1.978              4.825
 Vibration     3          0.598              1.970              4.246
 Vibration     4          0.602              1.955              3.612
 Vibration     5          0.605              1.944              3.339
 Vibration     6          0.617              1.907              2.724
 Vibration     7          0.633              1.854              2.230
 Vibration     8          0.643              1.822              2.025
 Vibration     9          0.657              1.781              1.813
 Vibration    10          0.665              1.755              1.699
 Vibration    11          0.688              1.687              1.458
 Vibration    12          0.699              1.655              1.365
 Vibration    13          0.704              1.640              1.323
 Vibration    14          0.719              1.599              1.220
 Vibration    15          0.758              1.492              1.001
 Vibration    16          0.792              1.402              0.855
 Vibration    17          0.824              1.324              0.747
 Vibration    18          0.848              1.268              0.679
 Vibration    19          0.905              1.140              0.544
 Vibration    20          0.920              1.108              0.515
 Vibration    21          0.933              1.082              0.492
 Vibration    22          0.950              1.049              0.463

                           ! Non-Optimized Parameters !
 Normal termination of Gaussian 16 at Thu Dec 10 09:35:28 2020.

 ----------------------------------------------------------------------
 # B3LYP/6-311++G(d,p) empiricaldispersion=gd3bj scf=xqc pop=npa geom=c
 heck
 ----------------------------------------------------------------------

 --------------------------------------
 CID_82884419_JID_4388_Energie_neutraal
 --------------------------------------
 Structure from the checkpoint file:  "JID_4388.chk"
 Charge =  0 Multiplicity = 1

 SCF Done:  E(RB3LYP) =  -613.747877960     A.U. after   14 cycles
 Normal termination of Gaussian 16 at Thu Dec 10 09:39:44 2020.

 ----------------------------------------------------------------------
 # B3LYP/6-311++G(d,p) empiricaldispersion=gd3bj scf=xqc pop=npa geom=c
 heck
 ----------------------------------------------------------------------

 ------------------------------------
 CID_82884419_JID_4388_Energie_kation
 ------------------------------------
 Structure from the checkpoint file:  "JID_4388.chk"
 Charge =  1 Multiplicity = 2

 SCF Done:  E(UB3LYP) =  -613.377565400     A.U. after   29 cycles
 Normal termination of Gaussian 16 at Thu Dec 10 09:52:29 2020.
 Gaussian 16:  ES64L-G16RevA.03 25-Dec-2016

 ----------------------------------------------------------------------
 # B3LYP/6-311++G(d,p) empiricaldispersion=gd3bj scf=xqc pop=npa geom=c
 heck
 ----------------------------------------------------------------------

 -----------------------------------
 CID_82884419_JID_4388_Energie_anion
 -----------------------------------
 Structure from the checkpoint file:  "JID_4388.chk"
 Charge = -1 Multiplicity = 2

                         Standard orientation:
 ---------------------------------------------------------------------
 Center     Atomic      Atomic             Coordinates (Angstroms)
 Number     Number       Type             X           Y           Z
 ---------------------------------------------------------------------
      1          6           0        4.065348    0.992104   -0.108720
      2          6           0        3.498383   -0.170668   -0.931481
      3          6           0        2.035743   -0.556095   -0.623353
      4          6           0        1.908845   -1.185630    0.774187
      5          6           0        0.494251   -1.581223    1.227391
      6          6           0       -0.402886   -0.374796    1.539284
      7          6           0       -1.195760    0.179729    0.329034
      8          6           0       -0.394396    0.195084   -1.000071
      9          6           0        1.075698    0.622897   -0.881251
     10          6           0       -1.610083    1.563279    0.655807
     11          7           0       -1.910249    2.656439    0.903891
     12          7           0       -2.390905   -0.645732    0.154638
     13          6           0       -3.342766   -0.602153   -0.598038
     14          8           0       -4.314338   -0.686549   -1.255051
     15          1           0        3.501329    1.916890   -0.271938
     16          1           0        5.105350    1.188693   -0.390454
     17          1           0        4.052793    0.779665    0.965703
     18          1           0        3.570181    0.082953   -1.997745
     19          1           0        4.130237   -1.057093   -0.785651
     20          1           0        1.762689   -1.336879   -1.350429
     21          1           0        2.550643   -2.075961    0.799845
     22          1           0        2.317803   -0.495981    1.525043
     23          1           0        0.586622   -2.175692    2.143596
     24          1           0        0.010902   -2.237510    0.492321
     25          1           0        0.212342    0.433534    1.948266
     26          1           0       -1.143501   -0.622687    2.304859
     27          1           0       -0.933476    0.844376   -1.698332
     28          1           0       -0.448862   -0.818322   -1.410603
     29          1           0        1.185858    1.399520   -0.114191
     30          1           0        1.367612    1.096776   -1.826316
 ---------------------------------------------------------------------

 SCF Done:  E(UB3LYP) =  -613.740421649     A.U. after   31 cycles

 The electronic state is 2-A.
 Alpha  occ. eigenvalues --  -19.07430 -14.24417 -14.22610 -10.20751 -10.18107
 Alpha  occ. eigenvalues --  -10.12196 -10.08973 -10.08751 -10.07724 -10.07624
 Alpha  occ. eigenvalues --  -10.07431 -10.06935 -10.06831 -10.06499  -1.01120
 Alpha  occ. eigenvalues --   -0.87382  -0.81931  -0.75167  -0.71163  -0.67920
 Alpha  occ. eigenvalues --   -0.65019  -0.59058  -0.57392  -0.52442  -0.50449
 Alpha  occ. eigenvalues --   -0.48992  -0.45170  -0.41552  -0.41097  -0.39240
 Alpha  occ. eigenvalues --   -0.36855  -0.36461  -0.35879  -0.34393  -0.33661
 Alpha  occ. eigenvalues --   -0.32496  -0.31929  -0.30395  -0.29213  -0.28938
 Alpha  occ. eigenvalues --   -0.27965  -0.27583  -0.26743  -0.25551  -0.25078
 Alpha  occ. eigenvalues --   -0.24172  -0.23671  -0.22383  -0.21825  -0.21340
 Alpha  occ. eigenvalues --   -0.21083  -0.19273   0.04066
 Alpha virt. eigenvalues --    0.06311   0.06815   0.07343   0.08233   0.09065
 Alpha virt. eigenvalues --    0.09250   0.09669   0.10059   0.10786   0.11276
 Alpha virt. eigenvalues --    0.11361   0.12225   0.12312   0.12858   0.13091

  Beta  occ. eigenvalues --  -19.07343 -14.24429 -14.22590 -10.20634 -10.18066
  Beta  occ. eigenvalues --  -10.12193 -10.08940 -10.08733 -10.07714 -10.07604
  Beta  occ. eigenvalues --  -10.07402 -10.06911 -10.06810 -10.06480  -1.00940
  Beta  occ. eigenvalues --   -0.87290  -0.81886  -0.75102  -0.71095  -0.67867
  Beta  occ. eigenvalues --   -0.64963  -0.58984  -0.57326  -0.52371  -0.50328
  Beta  occ. eigenvalues --   -0.48915  -0.45099  -0.41430  -0.40978  -0.39109
  Beta  occ. eigenvalues --   -0.36710  -0.36387  -0.35659  -0.34310  -0.33545
  Beta  occ. eigenvalues --   -0.32456  -0.31887  -0.30350  -0.29146  -0.28906
  Beta  occ. eigenvalues --   -0.27909  -0.27531  -0.26699  -0.25491  -0.25023
  Beta  occ. eigenvalues --   -0.24116  -0.23629  -0.22337  -0.21771  -0.21295
  Beta  occ. eigenvalues --   -0.20927  -0.19235
  Beta virt. eigenvalues --    0.06368   0.07157   0.07723   0.07899   0.08803
  Beta virt. eigenvalues --    0.09322   0.09738   0.10065   0.10493   0.11000
  Beta virt. eigenvalues --    0.11459   0.11768   0.12353   0.12539   0.13127

 Mulliken charges and spin densities:
               1          2
     1  C    0.363891  -0.925081
     2  C    0.614881  -1.089988
     3  C   -0.696263   1.205059
     4  C    0.159338  -0.675273
     5  C    0.158475  -0.250697
     6  C   -0.650878   0.315740
     7  C    0.504861  -0.115099
     8  C    0.726914  -0.520451
     9  C   -1.093743   0.086208
    10  C    1.631243  -2.498289
    11  N   -0.302299   0.051785
    12  N   -0.249284   0.316588
    13  C    0.303937   0.162384
    14  O   -0.263058  -0.002293
    15  H   -0.118288   0.261594
    16  H   -0.189340   0.333933
    17  H   -0.112006   0.249109
    18  H   -0.273835   0.420791
    19  H   -0.227905   0.363363
    20  H   -0.279648   0.487813
    21  H   -0.065146   0.227886
    22  H    0.044782   0.057683
    23  H   -0.826174   1.047490
    24  H    0.030809   0.130301
    25  H    0.018872   0.149926
    26  H   -0.074259   0.293950
    27  H   -0.360901   0.601665
    28  H    0.029978   0.143859
    29  H    0.294570  -0.114360
    30  H   -0.099525   0.284407
 Sum of Mulliken charges =  -1.00000   1.00000

 Dipole moment (field-independent basis, Debye):
    X=             -0.8055    Y=              0.4147    Z=              0.2768  Tot=              0.9473
 Quadrupole moment (field-independent basis, Debye-Ang):
   XX=           -161.3256   YY=           -130.4764   ZZ=           -125.1459
   XY=              5.5293   XZ=              1.5666   YZ=              3.4350

 Summary of Natural Population Analysis:

                                       Natural Population
                Natural  -----------------------------------------------
    Atom  No    Charge         Core      Valence    Rydberg      Total
 -----------------------------------------------------------------------
      C    1   -0.28716      0.99966     2.28304    0.00445     3.28716
      C    2   -0.18461      0.99962     2.17618    0.00881     3.18461
      C    3   -0.10563      0.99958     2.09567    0.01038     3.10563
      C    4   -0.18730      0.99960     2.17820    0.00950     3.18730
      C    5   -0.19398      0.99962     2.18526    0.00910     3.19398
      C    6   -0.18273      0.99959     2.17262    0.01052     3.18273
      C    7    0.01984      0.99943     1.96686    0.01387     2.98016
      C    8   -0.18455      0.99959     2.17504    0.00992     3.18455
      C    9   -0.19788      0.99960     2.18813    0.01014     3.19788
      C   10    0.16341      0.99960     1.81702    0.01997     2.83659
      N   11   -0.17688      0.99979     2.66575    0.01135     3.67688
      N   12   -0.29026      0.99952     2.77963    0.01111     3.79026
      C   13    0.44779      0.99957     1.53508    0.01756     2.55221
      O   14   -0.25282      0.99987     3.24565    0.00730     4.25282
      H   15    0.09612      0.00000     0.40285    0.00103     0.40388
      H   16    0.09923      0.00000     0.39977    0.00100     0.40077
      H   17    0.09578      0.00000     0.40310    0.00112     0.40422
      H   18    0.09595      0.00000     0.40270    0.00135     0.40405
      H   19    0.09644      0.00000     0.40224    0.00132     0.40356
      H   20    0.09480      0.00000     0.40313    0.00207     0.40520
      H   21    0.10185      0.00000     0.39675    0.00139     0.39815
      H   22    0.09236      0.00000     0.40607    0.00157     0.40764
      H   23    0.10522      0.00000     0.39323    0.00154     0.39478
      H   24    0.10068      0.00000     0.39765    0.00167     0.39932
      H   25    0.10221      0.00000     0.39616    0.00163     0.39779
      H   26    0.11129      0.00000     0.38712    0.00159     0.38871
      H   27    0.10740      0.00000     0.39087    0.00172     0.39260
      H   28    0.10800      0.00000     0.39007    0.00194     0.39200
      H   29    0.09927      0.00000     0.39887    0.00186     0.40073
      H   30    0.10615      0.00000     0.39259    0.00126     0.39385
 =======================================================================
   * Total *   -0.00000     13.99465    37.82731    0.17804    52.00000

 Normal termination of Gaussian 16 at Thu Dec 10 10:05:57 2020.
