 Gaussian 16, Revision A.03,

 -----------------------------------------------------------
 # opt freq B3LYP/6-31G(d) empiricaldispersion=gd3bj scf=xqc
 -----------------------------------------------------------

 -------------------------------
 CID_102960620_JID_9510_neutraal
 -------------------------------
 Symbolic Z-matrix:
 Charge =  0 Multiplicity = 1

 SCF Done:  E(RB3LYP) =  -900.599465863     A.U. after   14 cycles
 SCF Done:  E(RB3LYP) =  -900.606114527     A.U. after   13 cycles
 SCF Done:  E(RB3LYP) =  -900.607286694     A.U. after   13 cycles
 SCF Done:  E(RB3LYP) =  -900.610031479     A.U. after   13 cycles
 SCF Done:  E(RB3LYP) =  -900.611230607     A.U. after   13 cycles
 SCF Done:  E(RB3LYP) =  -900.612290873     A.U. after   14 cycles
 SCF Done:  E(RB3LYP) =  -900.612782399     A.U. after   14 cycles
 SCF Done:  E(RB3LYP) =  -900.613160676     A.U. after   12 cycles
 SCF Done:  E(RB3LYP) =  -900.613269727     A.U. after   11 cycles
 SCF Done:  E(RB3LYP) =  -900.613306928     A.U. after   12 cycles
 SCF Done:  E(RB3LYP) =  -900.613347833     A.U. after    8 cycles
 SCF Done:  E(RB3LYP) =  -900.613348391     A.U. after    8 cycles
 SCF Done:  E(RB3LYP) =  -900.613348598     A.U. after    8 cycles
 SCF Done:  E(RB3LYP) =  -900.613348734     A.U. after    7 cycles
 SCF Done:  E(RB3LYP) =  -900.613348764     A.U. after    7 cycles
 Optimization completed.
    -- Stationary point found.
 Normal termination of Gaussian 16 at Thu Dec 17 20:19:13 2020.

 --------------------------------------------------------------------
 #N Geom=AllCheck Guess=TCheck SCRF=Check GenChk RB3LYP/6-31G(d) Freq
 --------------------------------------------------------------------

 Structure from the checkpoint file:  "JID_9510.chk"
 -------------------------------
 CID_102960620_JID_9510_neutraal
 -------------------------------
 Charge =  0 Multiplicity = 1

 SCF Done:  E(RB3LYP) =  -900.613348764     A.U. after    1 cycles

  Exact polarizability: 236.776  -5.905 152.361  -4.707 -15.799 115.475
 Approx polarizability: 312.539 -17.649 254.311  -6.515 -44.531 180.886

                      1                      2                      3
                      A                      A                      A
 Frequencies --     13.8689                38.1689                50.9461
 Red. masses --      5.7110                 4.0738                 3.7533
 Frc consts  --      0.0006                 0.0035                 0.0057
 IR Inten    --      0.0312                 2.1272                 0.4553

                      4                      5                      6
                      A                      A                      A
 Frequencies --     61.9803               102.0510               108.4564
 Red. masses --      3.0823                 5.4655                 5.8168
 Frc consts  --      0.0070                 0.0335                 0.0403
 IR Inten    --      1.9411                 0.1958                 8.7666

                      7                      8                      9
                      A                      A                      A
 Frequencies --    137.3017               152.6576               168.6301
 Red. masses --      3.8013                 2.6718                 3.1779
 Frc consts  --      0.0422                 0.0367                 0.0532
 IR Inten    --      1.8822                 0.2849                 4.3873

                     10                     11                     12
                      A                      A                      A
 Frequencies --    218.9173               231.4761               244.7522
 Red. masses --      3.4287                 1.7160                 1.6940
 Frc consts  --      0.0968                 0.0542                 0.0598
 IR Inten    --     11.3985                45.9069                 7.6793

                     13                     14                     15
                      A                      A                      A
 Frequencies --    251.0866               285.7008               304.3927
 Red. masses --      2.2889                 5.3244                 2.9722
 Frc consts  --      0.0850                 0.2561                 0.1623
 IR Inten    --      8.1250                 6.0604                16.0542

                     16                     17                     18
                      A                      A                      A
 Frequencies --    326.3688               343.3598               354.7660
 Red. masses --      2.7244                 2.7487                 4.4674
 Frc consts  --      0.1710                 0.1909                 0.3313
 IR Inten    --      1.9156                 2.3481                 7.8663

                     19                     20                     21
                      A                      A                      A
 Frequencies --    399.6486               400.7378               410.9271
 Red. masses --      1.1061                 6.2240                 2.2691
 Frc consts  --      0.1041                 0.5889                 0.2258
 IR Inten    --    109.2925                 4.3063                 1.9555

                     22                     23                     24
                      A                      A                      A
 Frequencies --    422.0639               435.0227               462.2470
 Red. masses --      2.3645                 2.7909                 2.9648
 Frc consts  --      0.2482                 0.3112                 0.3732
 IR Inten    --      4.3321                 3.4659                 0.0998

                     25                     26                     27
                      A                      A                      A
 Frequencies --    514.5837               531.3222               544.9071
 Red. masses --      3.2409                 2.8427                 6.3543
 Frc consts  --      0.5056                 0.4728                 1.1116
 IR Inten    --     13.6831                 3.1056                11.0618

                     28                     29                     30
                      A                      A                      A
 Frequencies --    578.1165               587.8873               628.2326
 Red. masses --      2.4888                 4.9666                 6.1101
 Frc consts  --      0.4901                 1.0113                 1.4208
 IR Inten    --      6.1558                 1.0929                18.3740

                     31                     32                     33
                      A                      A                      A
 Frequencies --    649.4760               711.6942               714.9463
 Red. masses --      4.1679                 3.8510                 2.9678
 Frc consts  --      1.0359                 1.1492                 0.8938
 IR Inten    --      2.2119                 5.2242                 3.6733

                     34                     35                     36
                      A                      A                      A
 Frequencies --    756.9822               779.1212               797.2765
 Red. masses --      7.1547                 3.5410                 1.4674
 Frc consts  --      2.4155                 1.2664                 0.5495
 IR Inten    --      1.8680                10.6567                26.6094

                     37                     38                     39
                      A                      A                      A
 Frequencies --    812.4636               850.0530               859.0704
 Red. masses --      4.5837                 2.4684                 1.4537
 Frc consts  --      1.7827                 1.0509                 0.6321
 IR Inten    --      0.3896                 5.5197                23.7096

                     40                     41                     42
                      A                      A                      A
 Frequencies --    881.4820               894.5857               933.1074
 Red. masses --      2.2978                 1.7773                 2.1365
 Frc consts  --      1.0519                 0.8380                 1.0960
 IR Inten    --      8.8578                 4.3670                11.2746

                     43                     44                     45
                      A                      A                      A
 Frequencies --    975.4524               984.8648               996.7610
 Red. masses --      1.3141                 3.1655                 2.3438
 Frc consts  --      0.7367                 1.8090                 1.3720
 IR Inten    --      3.8487                73.6042                16.4084

                     46                     47                     48
                      A                      A                      A
 Frequencies --   1000.8955              1019.6682              1042.2119
 Red. masses --      3.0861                 2.1928                 2.5657
 Frc consts  --      1.8216                 1.3433                 1.6420
 IR Inten    --     43.5115                 9.4533                 7.4760

                     49                     50                     51
                      A                      A                      A
 Frequencies --   1053.9794              1094.2330              1133.4732
 Red. masses --      1.9788                 1.5594                 2.2871
 Frc consts  --      1.2951                 1.1001                 1.7313
 IR Inten    --      4.6117                14.9436                64.3458

                     52                     53                     54
                      A                      A                      A
 Frequencies --   1141.3095              1157.3729              1163.0487
 Red. masses --      1.9475                 2.0664                 3.0720
 Frc consts  --      1.4946                 1.6309                 2.4483
 IR Inten    --    115.2998                 7.4970               111.3929

                     55                     56                     57
                      A                      A                      A
 Frequencies --   1181.2447              1188.9452              1203.5354
 Red. masses --      1.4427                 1.3427                 1.3344
 Frc consts  --      1.1861                 1.1183                 1.1388
 IR Inten    --    137.8898                 8.2618                34.6175

                     58                     59                     60
                      A                      A                      A
 Frequencies --   1214.3421              1221.5042              1237.5227
 Red. masses --      1.3843                 1.3359                 1.9651
 Frc consts  --      1.2027                 1.1744                 1.7732
 IR Inten    --     91.8578                26.8597                86.6276

                     61                     62                     63
                      A                      A                      A
 Frequencies --   1243.0650              1257.4899              1259.4216
 Red. masses --      1.9906                 2.0291                 1.4498
 Frc consts  --      1.8122                 1.8904                 1.3549
 IR Inten    --    190.2625                23.7115                16.4120

                     64                     65                     66
                      A                      A                      A
 Frequencies --   1302.3668              1302.7130              1350.4546
 Red. masses --      2.0159                 1.4138                 1.3987
 Frc consts  --      2.0146                 1.4136                 1.5029
 IR Inten    --     80.9510                64.0776                 6.4081

                     67                     68                     69
                      A                      A                      A
 Frequencies --   1361.9478              1364.5031              1374.0691
 Red. masses --      1.6519                 1.7971                 1.4511
 Frc consts  --      1.8053                 1.9714                 1.6142
 IR Inten    --     38.8325                81.2415                 5.2379

                     70                     71                     72
                      A                      A                      A
 Frequencies --   1382.8473              1388.3580              1397.0211
 Red. masses --      1.6525                 1.6251                 1.3674
 Frc consts  --      1.8618                 1.8456                 1.5724
 IR Inten    --     18.8393                 1.6955                28.1732

                     73                     74                     75
                      A                      A                      A
 Frequencies --   1409.4351              1410.8252              1423.6326
 Red. masses --      1.5559                 3.1012                 1.4622
 Frc consts  --      1.8210                 3.6368                 1.7460
 IR Inten    --     26.6033                32.6775                13.4770

                     76                     77                     78
                      A                      A                      A
 Frequencies --   1439.0801              1501.3860              1504.5356
 Red. masses --      1.4695                 1.1451                 1.1072
 Frc consts  --      1.7931                 1.5208                 1.4767
 IR Inten    --     12.3595                 1.0526                 6.7994

                     79                     80                     81
                      A                      A                      A
 Frequencies --   1509.0555              1513.6795              1516.9414
 Red. masses --      1.7217                 1.2421                 1.0825
 Frc consts  --      2.3101                 1.6767                 1.4676
 IR Inten    --     78.9484                44.1158                 1.5810

                     82                     83                     84
                      A                      A                      A
 Frequencies --   1520.6761              1532.2426              1540.2756
 Red. masses --      1.3715                 1.0808                 1.0729
 Frc consts  --      1.8686                 1.4950                 1.4997
 IR Inten    --     41.7565                 4.5498                 3.2382

                     85                     86                     87
                      A                      A                      A
 Frequencies --   1544.3084              1550.6555              1632.8092
 Red. masses --      3.1090                 1.0842                 5.8334
 Frc consts  --      4.3686                 1.5360                 9.1631
 IR Inten    --      8.1015                 6.8971               158.3043

                     88                     89                     90
                      A                      A                      A
 Frequencies --   1682.8739              1751.6497              2964.1274
 Red. masses --      6.1773                10.5853                 1.0563
 Frc consts  --     10.3074                19.1358                 5.4683
 IR Inten    --    402.8936               117.5260                69.1122

                     91                     92                     93
                      A                      A                      A
 Frequencies --   2968.4499              2990.0252              3001.1022
 Red. masses --      1.0816                 1.0420                 1.0669
 Frc consts  --      5.6156                 5.4887                 5.6618
 IR Inten    --     51.5463                59.6400                36.3784

                     94                     95                     96
                      A                      A                      A
 Frequencies --   3008.1389              3012.0323              3042.4211
 Red. masses --      1.0706                 1.1018                 1.0998
 Frc consts  --      5.7077                 5.8892                 5.9977
 IR Inten    --     33.5695                26.7848                65.5078

                     97                     98                     99
                      A                      A                      A
 Frequencies --   3049.2714              3057.8469              3067.6591
 Red. masses --      1.0647                 1.0780                 1.0810
 Frc consts  --      5.8329                 5.9386                 5.9934
 IR Inten    --     28.7832                25.1997                62.0764

                    100                    101                    102
                      A                      A                      A
 Frequencies --   3076.7159              3099.5941              3116.3673
 Red. masses --      1.0915                 1.0997                 1.1021
 Frc consts  --      6.0875                 6.2248                 6.3060
 IR Inten    --     34.8596                34.8507                34.9088

                    103                    104                    105
                      A                      A                      A
 Frequencies --   3127.5832              3180.4478              3230.2394
 Red. masses --      1.0967                 1.0902                 1.0911
 Frc consts  --      6.3206                 6.4974                 6.7081
 IR Inten    --     41.7678                17.3342                 4.4617

                    106                    107                    108
                      A                      A                      A
 Frequencies --   3236.4029              3748.9503              3806.8591
 Red. masses --      1.0916                 1.0659                 1.0647
 Frc consts  --      6.7366                 8.8268                 9.0906
 IR Inten    --      0.8896                67.5251               191.7561

 - Thermochemistry -
 -------------------
 Temperature   298.150 Kelvin.  Pressure   1.00000 Atm.
 Atom     1 has atomic number  6 and mass  12.00000

 Molecular mass:   265.13141 amu.
 Principal axes and moments of inertia in atomic units:
                           1         2         3
     Eigenvalues --  1815.53705********************
           X            1.00000   0.00295   0.00028
           Y           -0.00296   0.99954   0.03022
           Z           -0.00019  -0.03022   0.99954
 This molecule is an asymmetric top.
 Rotational symmetry number  1.
 Warning -- assumption of classical behavior for rotation
           may cause significant error
 Rotational temperatures (Kelvin)      0.04771     0.00728     0.00686
 Rotational constants (GHZ):           0.99405     0.15177     0.14298
 Zero-point vibrational energy     841655.2 (Joules/Mol)
                                  201.16041 (Kcal/Mol)
 Warning -- explicit consideration of  29 degrees of freedom as
           vibrations may cause significant error
 Vibrational temperatures:     19.95    54.92    73.30    89.18   146.83
          (Kelvin)            156.04   197.55   219.64   242.62   314.97
                              333.04   352.14   361.26   411.06   437.95
                              469.57   494.02   510.43   575.01   576.57
                              591.23   607.26   625.90   665.07   740.37
                              764.45   784.00   831.78   845.84   903.89
                              934.45  1023.97  1028.65  1089.13  1120.98
                             1147.10  1168.95  1223.04  1236.01  1268.26
                             1287.11  1342.53  1403.46  1417.00  1434.12
                             1440.07  1467.08  1499.51  1516.44  1574.36
                             1630.82  1642.09  1665.20  1673.37  1699.55
                             1710.63  1731.62  1747.17  1757.47  1780.52
                             1788.49  1809.25  1812.03  1873.82  1874.31
                             1943.00  1959.54  1963.22  1976.98  1989.61
                             1997.54  2010.00  2027.86  2029.86  2048.29
                             2070.52  2160.16  2164.69  2171.19  2177.85
                             2182.54  2187.91  2204.56  2216.11  2221.92
                             2231.05  2349.25  2421.28  2520.23  4264.72
                             4270.94  4301.98  4317.92  4328.04  4333.64
                             4377.37  4387.22  4399.56  4413.68  4426.71
                             4459.62  4483.76  4499.89  4575.96  4647.59
                             4656.46  5393.90  5477.22

 Zero-point correction=                           0.320570 (Hartree/Particle)
 Thermal correction to Energy=                    0.338624
 Thermal correction to Enthalpy=                  0.339568
 Thermal correction to Gibbs Free Energy=         0.273231
 Sum of electronic and zero-point Energies=           -900.292779
 Sum of electronic and thermal Energies=              -900.274725
 Sum of electronic and thermal Enthalpies=            -900.273781
 Sum of electronic and thermal Free Energies=         -900.340118

                     E (Thermal)             CV                S
                      KCal/Mol        Cal/Mol-Kelvin    Cal/Mol-Kelvin
 Total                  212.490             69.634            139.619
 Electronic               0.000              0.000              0.000
 Translational            0.889              2.981             42.624
 Rotational               0.889              2.981             33.965
 Vibrational            210.712             63.673             63.029
 Vibration     1          0.593              1.986              7.361
 Vibration     2          0.594              1.982              5.352
 Vibration     3          0.595              1.977              4.780
 Vibration     4          0.597              1.972              4.393
 Vibration     5          0.604              1.948              3.415
 Vibration     6          0.606              1.942              3.296
 Vibration     7          0.614              1.916              2.841
 Vibration     8          0.619              1.900              2.639
 Vibration     9          0.625              1.881              2.451
 Vibration    10          0.647              1.812              1.968
 Vibration    11          0.653              1.793              1.867
 Vibration    12          0.660              1.771              1.768
 Vibration    13          0.663              1.761              1.723
 Vibration    14          0.683              1.700              1.499
 Vibration    15          0.695              1.665              1.393
 Vibration    16          0.710              1.623              1.278
 Vibration    17          0.722              1.589              1.196
 Vibration    18          0.731              1.565              1.145
 Vibration    19          0.766              1.471              0.964
 Vibration    20          0.767              1.469              0.960
 Vibration    21          0.775              1.447              0.923
 Vibration    22          0.784              1.422              0.885
 Vibration    23          0.796              1.394              0.842
 Vibration    24          0.820              1.334              0.760
 Vibration    25          0.870              1.218              0.623
 Vibration    26          0.886              1.181              0.584
 Vibration    27          0.900              1.151              0.555
 Vibration    28          0.935              1.079              0.489
 Vibration    29          0.945              1.058              0.471

                           ! Non-Optimized Parameters !
 Normal termination of Gaussian 16 at Thu Dec 17 20:36:28 2020.

 ----------------------------------------------------------------------
 # B3LYP/6-311++G(d,p) empiricaldispersion=gd3bj scf=xqc pop=npa geom=c
 heck
 ----------------------------------------------------------------------

 ---------------------------------------
 CID_102960620_JID_9510_Energie_neutraal
 ---------------------------------------
 Structure from the checkpoint file:  "JID_9510.chk"
 Charge =  0 Multiplicity = 1

 SCF Done:  E(RB3LYP) =  -900.879517235     A.U. after   15 cycles
 Normal termination of Gaussian 16 at Thu Dec 17 20:44:36 2020.

 ----------------------------------------------------------------------
 # B3LYP/6-311++G(d,p) empiricaldispersion=gd3bj scf=xqc pop=npa geom=c
 heck
 ----------------------------------------------------------------------

 -------------------------------------
 CID_102960620_JID_9510_Energie_kation
 -------------------------------------
 Structure from the checkpoint file:  "JID_9510.chk"
 Charge =  1 Multiplicity = 2

 SCF Done:  E(UB3LYP) =  -900.599617352     A.U. after   33 cycles
 SCF Done:  E(UB3LYP) =  -900.599617352     a.u. after    1 cycles
 Normal termination of Gaussian 16 at Thu Dec 17 21:09:43 2020.
 Gaussian 16:  ES64L-G16RevA.03 25-Dec-2016

 ----------------------------------------------------------------------
 # B3LYP/6-311++G(d,p) empiricaldispersion=gd3bj scf=xqc pop=npa geom=c
 heck
 ----------------------------------------------------------------------

 ------------------------------------
 CID_102960620_JID_9510_Energie_anion
 ------------------------------------
 Structure from the checkpoint file:  "JID_9510.chk"
 Charge = -1 Multiplicity = 2

                         Standard orientation:
 ---------------------------------------------------------------------
 Center     Atomic      Atomic             Coordinates (Angstroms)
 Number     Number       Type             X           Y           Z
 ---------------------------------------------------------------------
      1          6           0        4.194805    2.282415    0.937049
      2          8           0        4.484333    1.072545    0.277182
      3          6           0        3.892874   -0.085399    0.854433
      4          6           0        4.346503   -1.266277   -0.004267
      5          6           0        3.700359   -1.194328   -1.393295
      6          6           0        2.176691   -1.114648   -1.277470
      7          7           0        1.798507    0.025052   -0.437899
      8          6           0        2.359453   -0.042759    0.907725
      9          6           0        0.412495    0.398429   -0.499590
     10          6           0       -0.620520   -0.586017    0.088316
     11          8           0       -0.222073   -1.634895    0.580820
     12          6           0       -2.075945   -0.265166    0.063210
     13          6           0       -2.701010    0.898219   -0.457090
     14          6           0       -4.088407    1.048071   -0.394071
     15          6           0       -4.879459    0.058557    0.177812
     16          6           0       -4.289769   -1.105748    0.699436
     17          6           0       -2.918547   -1.243394    0.633301
     18          8           0       -6.222384    0.269494    0.205390
     19          8           0       -2.063611    1.949774   -1.043115
     20          1           0        4.872196    3.037032    0.527758
     21          1           0        4.364252    2.206958    2.023953
     22          1           0        3.160383    2.615469    0.767529
     23          1           0        4.260401   -0.199913    1.889454
     24          1           0        5.439057   -1.258867   -0.079099
     25          1           0        4.052688   -2.196760    0.499349
     26          1           0        4.068693   -0.304228   -1.912780
     27          1           0        3.975203   -2.073025   -1.988805
     28          1           0        1.731395   -0.965028   -2.269132
     29          1           0        1.779065   -2.060815   -0.876723
     30          1           0        2.013920   -0.928662    1.464104
     31          1           0        2.019373    0.836525    1.467051
     32          1           0        0.295709    1.360378    0.028237
     33          1           0        0.155683    0.562558   -1.560172
     34          1           0       -4.542518    1.945152   -0.797842
     35          1           0       -4.905845   -1.882153    1.146911
     36          1           0       -2.434021   -2.129268    1.028332
     37          1           0       -6.652408   -0.491543    0.625920
     38          1           0       -1.110035    1.803753   -1.093965
 ---------------------------------------------------------------------

 SCF Done:  E(UB3LYP) =  -900.884534446     A.U. after   32 cycles

 The electronic state is 2-A.
 Alpha  occ. eigenvalues --  -19.03892 -19.03026 -19.02622 -18.92920 -14.19137
 Alpha  occ. eigenvalues --  -10.12138 -10.11704 -10.10671 -10.09571 -10.08163
 Alpha  occ. eigenvalues --  -10.08098 -10.08073 -10.07516 -10.07155 -10.06508
 Alpha  occ. eigenvalues --  -10.03879 -10.03140 -10.02954 -10.02886  -0.95101
 Alpha  occ. eigenvalues --   -0.94361  -0.94094  -0.87386  -0.81402  -0.71500
 Alpha  occ. eigenvalues --   -0.70037  -0.65122  -0.62555  -0.61466  -0.60151
 Alpha  occ. eigenvalues --   -0.58569  -0.53274  -0.51749  -0.50774  -0.47918
 Alpha  occ. eigenvalues --   -0.45143  -0.44803  -0.42639  -0.39863  -0.38886
 Alpha  occ. eigenvalues --   -0.37873  -0.37028  -0.36735  -0.35976  -0.34291
 Alpha  occ. eigenvalues --   -0.33995  -0.32884  -0.31363  -0.30847  -0.30178
 Alpha  occ. eigenvalues --   -0.29785  -0.29291  -0.29063  -0.28773  -0.28177
 Alpha  occ. eigenvalues --   -0.26856  -0.26740  -0.25110  -0.24735  -0.23814
 Alpha  occ. eigenvalues --   -0.23483  -0.22355  -0.22341  -0.21212  -0.20841
 Alpha  occ. eigenvalues --   -0.18514  -0.16269  -0.12451  -0.11089  -0.09783
 Alpha  occ. eigenvalues --   -0.08000   0.04657
 Alpha virt. eigenvalues --    0.06238   0.07407   0.07677   0.08322   0.09170
 Alpha virt. eigenvalues --    0.10134   0.10452   0.10589   0.10941   0.11369
 Alpha virt. eigenvalues --    0.11987   0.12240   0.12899   0.13242   0.13554

  Beta  occ. eigenvalues --  -19.03811 -19.02985 -19.02620 -18.92463 -14.19139
  Beta  occ. eigenvalues --  -10.12135 -10.11682 -10.10544 -10.09241 -10.08197
  Beta  occ. eigenvalues --  -10.08090 -10.08073 -10.07154 -10.07098 -10.06509
  Beta  occ. eigenvalues --  -10.03990 -10.03194 -10.02954 -10.02624  -0.94885
  Beta  occ. eigenvalues --   -0.94258  -0.94088  -0.86559  -0.81345  -0.71239
  Beta  occ. eigenvalues --   -0.70019  -0.65115  -0.62190  -0.61248  -0.59999
  Beta  occ. eigenvalues --   -0.58511  -0.53027  -0.51720  -0.50693  -0.47574
  Beta  occ. eigenvalues --   -0.45015  -0.44715  -0.42256  -0.39672  -0.38860
  Beta  occ. eigenvalues --   -0.37762  -0.36979  -0.36709  -0.35801  -0.34162
  Beta  occ. eigenvalues --   -0.33924  -0.32721  -0.31201  -0.30695  -0.29660
  Beta  occ. eigenvalues --   -0.29575  -0.29226  -0.29026  -0.28725  -0.27620
  Beta  occ. eigenvalues --   -0.26552  -0.26325  -0.24891  -0.24612  -0.23676
  Beta  occ. eigenvalues --   -0.23419  -0.22336  -0.21200  -0.20784  -0.20710
  Beta  occ. eigenvalues --   -0.17335  -0.16247  -0.12246  -0.10468  -0.08724
  Beta  occ. eigenvalues --   -0.07752
  Beta virt. eigenvalues --    0.06489   0.07400   0.07666   0.08331   0.09179
  Beta virt. eigenvalues --    0.10099   0.10419   0.10551   0.10732   0.11011
  Beta virt. eigenvalues --    0.11372   0.11972   0.12813   0.12858   0.13221

 Mulliken charges and spin densities:
               1          2
     1  C    0.256111  -0.499768
     2  O   -0.056060   0.012409
     3  C   -0.417337   0.101797
     4  C   -0.208721  -0.163447
     5  C   -0.326140   0.007809
     6  C   -0.208205   0.006365
     7  N    0.534288  -0.001298
     8  C   -0.243902  -0.079796
     9  C   -1.478287  -0.038615
    10  C    0.519453   0.222170
    11  O   -0.322400   0.176301
    12  C    2.048129  -0.054845
    13  C   -1.831018   0.072898
    14  C   -0.688260  -0.023789
    15  C   -0.475226   0.198776
    16  C   -0.243789  -0.096608
    17  C    0.447197   0.295397
    18  O   -0.260839   0.015990
    19  O   -0.242809   0.006390
    20  H   -0.053089   0.181084
    21  H   -0.108486   0.227810
    22  H   -0.004412   0.158001
    23  H    0.041736   0.123659
    24  H    0.135884   0.040037
    25  H    0.119968  -0.010194
    26  H    0.159872  -0.009018
    27  H    0.141639   0.001590
    28  H    0.115476   0.001485
    29  H    0.167761  -0.001995
    30  H    0.116741   0.065887
    31  H    0.153704  -0.005758
    32  H    0.115142   0.066083
    33  H    0.188385  -0.007694
    34  H    0.154326   0.002665
    35  H    0.086622   0.006071
    36  H    0.167250  -0.015528
    37  H    0.240486  -0.000367
    38  H    0.258809   0.018046
 Sum of Mulliken charges =  -1.00000   1.00000

 Dipole moment (field-independent basis, Debye):
    X=              2.5711    Y=             -1.1053    Z=             -0.8957  Tot=              2.9384
 Quadrupole moment (field-independent basis, Debye-Ang):
   XX=           -181.4946   YY=           -137.5172   ZZ=           -127.8690
   XY=              1.3336   XZ=             -7.0273   YZ=              0.6228

 Summary of Natural Population Analysis:

                                       Natural Population
                Natural  -----------------------------------------------
    Atom  No    Charge         Core      Valence    Rydberg      Total
 -----------------------------------------------------------------------
      C    1   -0.09951      0.99961     2.08970    0.01019     3.09951
      O    2   -0.30602      0.99987     3.29459    0.01155     4.30602
      C    3    0.06342      0.99954     1.91956    0.01748     2.93658
      C    4   -0.19495      0.99961     2.18710    0.00825     3.19495
      C    5   -0.19334      0.99963     2.18705    0.00665     3.19334
      C    6   -0.08282      0.99962     2.07422    0.00898     3.08282
      N    7   -0.28290      0.99970     2.76939    0.01380     3.78290
      C    8   -0.10322      0.99959     2.08946    0.01417     3.10322
      C    9   -0.13109      0.99958     2.11831    0.01320     3.13109
      C   10    0.31633      0.99964     1.66438    0.01965     2.68367
      O   11   -0.27229      0.99988     3.26663    0.00578     4.27229
      C   12   -0.12455      0.99945     2.11655    0.00856     3.12455
      C   13    0.20227      0.99939     1.78718    0.01116     2.79773
      C   14   -0.18239      0.99950     2.17284    0.01005     3.18239
      C   15    0.21928      0.99941     1.76940    0.01192     2.78072
      C   16   -0.19121      0.99953     2.18235    0.00934     3.19121
      C   17   -0.00788      0.99956     1.99892    0.00940     3.00788
      O   18   -0.33838      0.99988     3.33253    0.00597     4.33838
      O   19   -0.34689      0.99987     3.34016    0.00686     4.34689
      H   20    0.08742      0.00000     0.41155    0.00103     0.41258
      H   21    0.07549      0.00000     0.42300    0.00151     0.42451
      H   22    0.08283      0.00000     0.41579    0.00138     0.41717
      H   23    0.07987      0.00000     0.41886    0.00127     0.42013
      H   24    0.09929      0.00000     0.39935    0.00136     0.40071
      H   25    0.09785      0.00000     0.40103    0.00112     0.40215
      H   26    0.10098      0.00000     0.39743    0.00159     0.39902
      H   27    0.09263      0.00000     0.40633    0.00103     0.40737
      H   28    0.09192      0.00000     0.40709    0.00099     0.40808
      H   29    0.09499      0.00000     0.40358    0.00143     0.40501
      H   30    0.10216      0.00000     0.39608    0.00176     0.39784
      H   31    0.09628      0.00000     0.40248    0.00124     0.40372
      H   32    0.09672      0.00000     0.40125    0.00204     0.40328
      H   33    0.09479      0.00000     0.40378    0.00143     0.40521
      H   34    0.10242      0.00000     0.39589    0.00169     0.39758
      H   35    0.08916      0.00000     0.40958    0.00126     0.41084
      H   36    0.10734      0.00000     0.39139    0.00127     0.39266
      H   37    0.22651      0.00000     0.27105    0.00244     0.27349
      H   38    0.23749      0.00000     0.25878    0.00373     0.26251
 =======================================================================
   * Total *   -0.00000     18.99285    51.77462    0.23252    71.00000

 Normal termination of Gaussian 16 at Thu Dec 17 21:33:58 2020.
