 Gaussian 16, Revision A.03,

 -----------------------------------------------------------
 # opt freq B3LYP/6-31G(d) empiricaldispersion=gd3bj scf=xqc
 -----------------------------------------------------------

 ------------------------------
 CID_94425163_JID_6259_neutraal
 ------------------------------
 Symbolic Z-matrix:
 Charge =  0 Multiplicity = 1

 SCF Done:  E(RB3LYP) =  -767.876310354     A.U. after   14 cycles
 SCF Done:  E(RB3LYP) =  -767.879566594     A.U. after   13 cycles
 SCF Done:  E(RB3LYP) =  -767.877654810     A.U. after   13 cycles
 SCF Done:  E(RB3LYP) =  -767.879557162     A.U. after   12 cycles
 SCF Done:  E(RB3LYP) =  -767.880344727     A.U. after   10 cycles
 SCF Done:  E(RB3LYP) =  -767.880677525     A.U. after   12 cycles
 SCF Done:  E(RB3LYP) =  -767.880601875     A.U. after   12 cycles
 SCF Done:  E(RB3LYP) =  -767.880908791     A.U. after   12 cycles
 SCF Done:  E(RB3LYP) =  -767.880918731     A.U. after   10 cycles
 SCF Done:  E(RB3LYP) =  -767.880920187     A.U. after    9 cycles
 SCF Done:  E(RB3LYP) =  -767.880920875     A.U. after    8 cycles
 SCF Done:  E(RB3LYP) =  -767.880920976     A.U. after    7 cycles
 SCF Done:  E(RB3LYP) =  -767.880920974     A.U. after    7 cycles
 Optimization completed.
    -- Stationary point found.
 Normal termination of Gaussian 16 at Thu Dec 10 21:52:56 2020.

 --------------------------------------------------------------------
 #N Geom=AllCheck Guess=TCheck SCRF=Check GenChk RB3LYP/6-31G(d) Freq
 --------------------------------------------------------------------

 Structure from the checkpoint file:  "JID_6259.chk"
 ------------------------------
 CID_94425163_JID_6259_neutraal
 ------------------------------
 Charge =  0 Multiplicity = 1

 SCF Done:  E(RB3LYP) =  -767.880920974     A.U. after    1 cycles

  Exact polarizability: 135.510  20.822 125.939   5.478  -6.765 128.200
 Approx polarizability: 198.540  38.634 170.868  15.632 -18.137 233.068

                      1                      2                      3
                      A                      A                      A
 Frequencies --     30.7766                47.6152                67.1215
 Red. masses --      4.9359                 3.7855                 4.1984
 Frc consts  --      0.0028                 0.0051                 0.0111
 IR Inten    --      0.0742                 0.5031                 1.8184

                      4                      5                      6
                      A                      A                      A
 Frequencies --     88.9157               121.5442               147.8977
 Red. masses --      4.0503                 3.8125                 3.1221
 Frc consts  --      0.0189                 0.0332                 0.0402
 IR Inten    --      0.6038                 0.2590                 0.2665

                      7                      8                      9
                      A                      A                      A
 Frequencies --    179.0555               195.4565               225.7841
 Red. masses --      4.2707                 4.1085                 1.3441
 Frc consts  --      0.0807                 0.0925                 0.0404
 IR Inten    --      0.8799                 4.5731                 1.7025

                     10                     11                     12
                      A                      A                      A
 Frequencies --    237.4346               246.6804               266.5800
 Red. masses --      3.5869                 1.0827                 3.4856
 Frc consts  --      0.1191                 0.0388                 0.1459
 IR Inten    --      0.8364                 0.3665                 1.6382

                     13                     14                     15
                      A                      A                      A
 Frequencies --    310.4722               326.6482               354.7281
 Red. masses --      3.8406                 2.8872                 3.6111
 Frc consts  --      0.2181                 0.1815                 0.2677
 IR Inten    --      5.3357                 1.7902                 7.1354

                     16                     17                     18
                      A                      A                      A
 Frequencies --    367.9683               380.5694               409.4410
 Red. masses --      3.8896                 1.1063                 4.7995
 Frc consts  --      0.3103                 0.0944                 0.4741
 IR Inten    --      1.8243               116.4592                 3.1843

                     19                     20                     21
                      A                      A                      A
 Frequencies --    449.5749               468.7834               491.9294
 Red. masses --      3.5425                 2.7404                 3.7749
 Frc consts  --      0.4219                 0.3548                 0.5382
 IR Inten    --      1.4176                14.5884                 5.3397

                     22                     23                     24
                      A                      A                      A
 Frequencies --    505.2404               550.7392               558.5060
 Red. masses --      3.4350                 6.2556                 2.9581
 Frc consts  --      0.5166                 1.1179                 0.5436
 IR Inten    --      5.9940                 0.4438                 9.0162

                     25                     26                     27
                      A                      A                      A
 Frequencies --    627.4907               648.8601               659.5044
 Red. masses --      1.5545                 2.1817                 3.6006
 Frc consts  --      0.3606                 0.5412                 0.9227
 IR Inten    --     69.5567                59.7188                13.1288

                     28                     29                     30
                      A                      A                      A
 Frequencies --    713.6422               715.9707               761.8882
 Red. masses --      4.9041                 2.4013                 3.1319
 Frc consts  --      1.4715                 0.7252                 1.0711
 IR Inten    --      1.1044                14.0110                 3.6575

                     31                     32                     33
                      A                      A                      A
 Frequencies --    798.5492               815.0922               852.1399
 Red. masses --      1.4951                 1.5565                 2.6072
 Frc consts  --      0.5617                 0.6093                 1.1154
 IR Inten    --     26.8483                 2.1952                 8.7949

                     34                     35                     36
                      A                      A                      A
 Frequencies --    887.2852               889.7980               895.5885
 Red. masses --      1.6227                 1.4921                 2.3534
 Frc consts  --      0.7527                 0.6960                 1.1121
 IR Inten    --      7.3271                13.4097                 9.1191

                     37                     38                     39
                      A                      A                      A
 Frequencies --    936.9255               946.5160               964.9711
 Red. masses --      2.5970                 2.9261                 1.2584
 Frc consts  --      1.3432                 1.5446                 0.6904
 IR Inten    --      4.3704                20.9925                 0.3396

                     40                     41                     42
                      A                      A                      A
 Frequencies --    968.4722              1001.2109              1020.8665
 Red. masses --      2.3455                 1.7492                 5.8551
 Frc consts  --      1.2961                 1.0331                 3.5952
 IR Inten    --      5.6899                 4.0947                 3.4712

                     43                     44                     45
                      A                      A                      A
 Frequencies --   1048.6587              1096.7800              1108.3094
 Red. masses --      3.5583                 1.9549                 2.1617
 Frc consts  --      2.3055                 1.3855                 1.5645
 IR Inten    --     33.9759                 9.0570                36.4435

                     46                     47                     48
                      A                      A                      A
 Frequencies --   1124.4828              1133.5230              1160.8782
 Red. masses --      1.6700                 1.9554                 1.5282
 Frc consts  --      1.2441                 1.4803                 1.2134
 IR Inten    --     23.1055                31.3616                23.5949

                     49                     50                     51
                      A                      A                      A
 Frequencies --   1195.3377              1200.2716              1208.9499
 Red. masses --      2.0422                 1.3911                 1.7318
 Frc consts  --      1.7192                 1.1808                 1.4913
 IR Inten    --     15.5190                34.6663                 4.9786

                     52                     53                     54
                      A                      A                      A
 Frequencies --   1216.0266              1259.2152              1284.9932
 Red. masses --      1.3014                 2.3654                 1.7411
 Frc consts  --      1.1338                 2.2098                 1.6938
 IR Inten    --    130.5746               259.5216                48.6316

                     55                     56                     57
                      A                      A                      A
 Frequencies --   1326.9474              1337.2174              1358.1346
 Red. masses --      2.6273                 1.1553                 1.5827
 Frc consts  --      2.7257                 1.2171                 1.7200
 IR Inten    --     60.4559                 7.9141                 0.4853

                     58                     59                     60
                      A                      A                      A
 Frequencies --   1366.3008              1382.0100              1424.0370
 Red. masses --      1.9326                 3.9941                 1.4129
 Frc consts  --      2.1256                 4.4947                 1.6881
 IR Inten    --    148.7109                 8.9458                28.5751

                     61                     62                     63
                      A                      A                      A
 Frequencies --   1428.3276              1447.7741              1462.9310
 Red. masses --      1.2156                 1.3285                 1.3995
 Frc consts  --      1.4612                 1.6406                 1.7648
 IR Inten    --     16.9187                 8.2318               112.5201

                     64                     65                     66
                      A                      A                      A
 Frequencies --   1499.7607              1500.0952              1512.8933
 Red. masses --      2.5748                 1.2060                 1.0601
 Frc consts  --      3.4122                 1.5990                 1.4297
 IR Inten    --    107.9127                 1.3329                 0.9309

                     67                     68                     69
                      A                      A                      A
 Frequencies --   1514.9936              1520.6939              1524.3913
 Red. masses --      1.0502                 1.0815                 1.0631
 Frc consts  --      1.4201                 1.4735                 1.4556
 IR Inten    --     14.5668                 1.8536                 1.5203

                     70                     71                     72
                      A                      A                      A
 Frequencies --   1534.0658              1551.0382              1661.6310
 Red. masses --      1.0758                 2.3739                 5.9238
 Frc consts  --      1.4917                 3.3648                 9.6366
 IR Inten    --     25.8839                 5.8641                43.6071

                     73                     74                     75
                      A                      A                      A
 Frequencies --   1666.9108              1775.1216              3063.8617
 Red. masses --      6.0281                 9.7405                 1.0345
 Frc consts  --      9.8686                18.0838                 5.7214
 IR Inten    --     64.4332               146.0466                18.2082

                     76                     77                     78
                      A                      A                      A
 Frequencies --   3068.0533              3087.2574              3101.0003
 Red. masses --      1.0379                 1.0631                 1.0586
 Frc consts  --      5.7563                 5.9701                 5.9976
 IR Inten    --     12.5171                 9.0535                30.1080

                     79                     80                     81
                      A                      A                      A
 Frequencies --   3138.9495              3139.3519              3145.3731
 Red. masses --      1.1033                 1.0995                 1.1031
 Frc consts  --      6.4047                 6.3845                 6.4301
 IR Inten    --     23.3203                26.4297                11.5930

                     82                     83                     84
                      A                      A                      A
 Frequencies --   3146.6183              3156.0625              3167.6455
 Red. masses --      1.1057                 1.1014                 1.1072
 Frc consts  --      6.4500                 6.4635                 6.5457
 IR Inten    --      2.9963                12.1499                22.0396

                     85                     86                     87
                      A                      A                      A
 Frequencies --   3186.7463              3200.1363              3204.9353
 Red. masses --      1.0864                 1.0891                 1.0921
 Frc consts  --      6.5004                 6.5715                 6.6093
 IR Inten    --      7.6453                10.2404                15.0281

                     88                     89                     90
                      A                      A                      A
 Frequencies --   3220.5848              3594.5016              3748.7423
 Red. masses --      1.0942                 1.0659                 1.0658
 Frc consts  --      6.6869                 8.1144                 8.8249
 IR Inten    --      8.7304               141.5350                38.8488

 - Thermochemistry -
 -------------------
 Temperature   298.150 Kelvin.  Pressure   1.00000 Atm.
 Atom     1 has atomic number  6 and mass  12.00000

 Molecular mass:   224.10486 amu.
 Principal axes and moments of inertia in atomic units:
                           1         2         3
     Eigenvalues --  2928.958233621.987744858.41929
           X            0.99937   0.03507   0.00554
           Y           -0.03515   0.99927   0.01489
           Z           -0.00501  -0.01508   0.99987
 This molecule is an asymmetric top.
 Rotational symmetry number  1.
 Warning -- assumption of classical behavior for rotation
           may cause significant error
 Rotational temperatures (Kelvin)      0.02957     0.02391     0.01783
 Rotational constants (GHZ):           0.61617     0.49827     0.37147
 Zero-point vibrational energy     701829.7 (Joules/Mol)
                                  167.74131 (Kcal/Mol)
 Warning -- explicit consideration of  24 degrees of freedom as
           vibrations may cause significant error
 Vibrational temperatures:     44.28    68.51    96.57   127.93   174.87
          (Kelvin)            212.79   257.62   281.22   324.85   341.62
                              354.92   383.55   446.70   469.97   510.37
                              529.42   547.55   589.09   646.84   674.47
                              707.78   726.93   792.39   803.57   902.82
                              933.56   948.88  1026.77  1030.12  1096.19
                             1148.93  1172.74  1226.04  1276.61  1280.22
                             1288.55  1348.03  1361.83  1388.38  1393.42
                             1440.52  1468.80  1508.79  1578.02  1594.61
                             1617.88  1630.89  1670.24  1719.82  1726.92
                             1739.41  1749.59  1811.73  1848.82  1909.18
                             1923.96  1954.05  1965.80  1988.40  2048.87
                             2055.04  2083.02  2104.83  2157.82  2158.30
                             2176.72  2179.74  2187.94  2193.26  2207.18
                             2231.60  2390.72  2398.31  2554.00  4408.21
                             4414.24  4441.87  4461.65  4516.25  4516.83
                             4525.49  4527.28  4540.87  4557.54  4585.02
                             4604.28  4611.19  4633.70  5171.69  5393.60

 Zero-point correction=                           0.267313 (Hartree/Particle)
 Thermal correction to Energy=                    0.283053
 Thermal correction to Enthalpy=                  0.283997
 Thermal correction to Gibbs Free Energy=         0.224295
 Sum of electronic and zero-point Energies=           -767.613608
 Sum of electronic and thermal Energies=              -767.597868
 Sum of electronic and thermal Enthalpies=            -767.596924
 Sum of electronic and thermal Free Energies=         -767.656626

                     E (Thermal)             CV                S
                      KCal/Mol        Cal/Mol-Kelvin    Cal/Mol-Kelvin
 Total                  177.618             60.664            125.654
 Electronic               0.000              0.000              0.000
 Translational            0.889              2.981             42.123
 Rotational               0.889              2.981             32.311
 Vibrational            175.841             54.702             51.220
 Vibration     1          0.594              1.984              5.779
 Vibration     2          0.595              1.978              4.914
 Vibration     3          0.598              1.970              4.236
 Vibration     4          0.602              1.957              3.684
 Vibration     5          0.609              1.931              3.076
 Vibration     6          0.617              1.905              2.699
 Vibration     7          0.629              1.868              2.338
 Vibration     8          0.636              1.846              2.175
 Vibration     9          0.650              1.802              1.912
 Vibration    10          0.656              1.783              1.822
 Vibration    11          0.661              1.768              1.754
 Vibration    12          0.672              1.734              1.618
 Vibration    13          0.699              1.654              1.360
 Vibration    14          0.710              1.622              1.277
 Vibration    15          0.731              1.566              1.145
 Vibration    16          0.741              1.538              1.088
 Vibration    17          0.750              1.512              1.037
 Vibration    18          0.774              1.450              0.929
 Vibration    19          0.808              1.362              0.797
 Vibration    20          0.826              1.319              0.741
 Vibration    21          0.848              1.268              0.679
 Vibration    22          0.860              1.238              0.645
 Vibration    23          0.906              1.138              0.543
 Vibration    24          0.914              1.121              0.527

 Optimization completed.
    -- Stationary point found.
 Normal termination of Gaussian 16 at Thu Dec 10 22:04:56 2020.

 ----------------------------------------------------------------------
 # B3LYP/6-311++G(d,p) empiricaldispersion=gd3bj scf=xqc pop=npa geom=c
 heck
 ----------------------------------------------------------------------

 --------------------------------------
 CID_94425163_JID_6259_Energie_neutraal
 --------------------------------------
 Structure from the checkpoint file:  "JID_6259.chk"
 Charge =  0 Multiplicity = 1

 SCF Done:  E(RB3LYP) =  -768.113441726     A.U. after   15 cycles
 Normal termination of Gaussian 16 at Thu Dec 10 22:10:29 2020.

 ----------------------------------------------------------------------
 # B3LYP/6-311++G(d,p) empiricaldispersion=gd3bj scf=xqc pop=npa geom=c
 heck
 ----------------------------------------------------------------------

 ------------------------------------
 CID_94425163_JID_6259_Energie_kation
 ------------------------------------
 Structure from the checkpoint file:  "JID_6259.chk"
 Charge =  1 Multiplicity = 2

 SCF Done:  E(UB3LYP) =  -767.809726941     A.U. after   24 cycles
 Normal termination of Gaussian 16 at Thu Dec 10 22:23:34 2020.
 Gaussian 16:  ES64L-G16RevA.03 25-Dec-2016

 ----------------------------------------------------------------------
 # B3LYP/6-311++G(d,p) empiricaldispersion=gd3bj scf=xqc pop=npa geom=c
 heck
 ----------------------------------------------------------------------

 -----------------------------------
 CID_94425163_JID_6259_Energie_anion
 -----------------------------------
 Structure from the checkpoint file:  "JID_6259.chk"
 Charge = -1 Multiplicity = 2

                         Standard orientation:
 ---------------------------------------------------------------------
 Center     Atomic      Atomic             Coordinates (Angstroms)
 Number     Number       Type             X           Y           Z
 ---------------------------------------------------------------------
      1          6           0        0.214393   -2.954988   -0.108363
      2          6           0        1.710935   -2.767962    0.081010
      3          8           0        1.987820   -1.453155    0.633501
      4          6           0        2.000544   -0.434016   -0.232235
      5          8           0        1.913998   -0.566670   -1.444841
      6          6           0        2.051971    0.912758    0.446190
      7          6           0        0.806555    1.740520    0.005896
      8          6           0        0.779208    3.085137    0.734750
      9          6           0       -0.471087    0.939469    0.298749
     10          6           0       -1.380007    0.687587   -0.729191
     11          6           0       -2.533082   -0.064954   -0.488878
     12          6           0       -2.792239   -0.572489    0.786657
     13          6           0       -1.887812   -0.311566    1.813164
     14          6           0       -0.733368    0.435900    1.579012
     15          8           0       -3.443160   -0.334339   -1.473437
     16          8           0        0.926881    2.043814   -1.377495
     17          1           0       -0.319548   -2.787996    0.831121
     18          1           0        0.008211   -3.973757   -0.455130
     19          1           0       -0.170945   -2.250528   -0.849492
     20          1           0        2.119399   -3.458579    0.821514
     21          1           0        2.255332   -2.875805   -0.859599
     22          1           0        2.093604    0.789977    1.529237
     23          1           0        2.944154    1.452651    0.112609
     24          1           0        1.706313    3.634182    0.541945
     25          1           0       -0.060981    3.678681    0.363045
     26          1           0        0.658389    2.948649    1.813237
     27          1           0       -1.176847    1.090411   -1.717037
     28          1           0       -3.692363   -1.154814    0.952841
     29          1           0       -2.084692   -0.699452    2.808897
     30          1           0       -0.039954    0.618104    2.394012
     31          1           0       -3.140032    0.080768   -2.295952
     32          1           0        1.219591    1.217939   -1.813631
 ---------------------------------------------------------------------

 SCF Done:  E(UB3LYP) =  -768.100089790     A.U. after   33 cycles
 SCF Done:  E(UB3LYP) =  -768.100089789     a.u. after    1 cycles

 The electronic state is 2-A.
 Alpha  occ. eigenvalues --  -19.08141 -19.05663 -19.02870 -19.02307 -10.21839
 Alpha  occ. eigenvalues --  -10.15343 -10.14036 -10.13431 -10.09582 -10.08908
 Alpha  occ. eigenvalues --  -10.08167 -10.07477 -10.07439 -10.07287 -10.07281
 Alpha  occ. eigenvalues --  -10.06537  -1.02335  -0.96719  -0.94303  -0.92795
 Alpha  occ. eigenvalues --   -0.76296  -0.71387  -0.68144  -0.65313  -0.64206
 Alpha  occ. eigenvalues --   -0.62950  -0.56203  -0.53832  -0.52515  -0.48208
 Alpha  occ. eigenvalues --   -0.46882  -0.45018  -0.42833  -0.41967  -0.40660
 Alpha  occ. eigenvalues --   -0.39707  -0.38022  -0.36823  -0.36180  -0.35493
 Alpha  occ. eigenvalues --   -0.33529  -0.32845  -0.31845  -0.31098  -0.30377
 Alpha  occ. eigenvalues --   -0.30133  -0.29751  -0.29541  -0.28241  -0.27797
 Alpha  occ. eigenvalues --   -0.26713  -0.25522  -0.25154  -0.24606  -0.23467
 Alpha  occ. eigenvalues --   -0.22010  -0.19493  -0.18817  -0.15959  -0.13176
 Alpha  occ. eigenvalues --    0.04272
 Alpha virt. eigenvalues --    0.06086   0.06515   0.07232   0.07461   0.08383
 Alpha virt. eigenvalues --    0.08627   0.09027   0.09155   0.09795   0.09899
 Alpha virt. eigenvalues --    0.10363   0.11338   0.11892   0.12405   0.12673

  Beta  occ. eigenvalues --  -19.08137 -19.05621 -19.02859 -19.02300 -10.21828
  Beta  occ. eigenvalues --  -10.15337 -10.14035 -10.13408 -10.09567 -10.08909
  Beta  occ. eigenvalues --  -10.08153 -10.07468 -10.07419 -10.07271 -10.07263
  Beta  occ. eigenvalues --  -10.06512  -1.02319  -0.96642  -0.94287  -0.92778
  Beta  occ. eigenvalues --   -0.76272  -0.71362  -0.68113  -0.65284  -0.64165
  Beta  occ. eigenvalues --   -0.62920  -0.56157  -0.53794  -0.52461  -0.48166
  Beta  occ. eigenvalues --   -0.46838  -0.44965  -0.42810  -0.41930  -0.40619
  Beta  occ. eigenvalues --   -0.39664  -0.37988  -0.36791  -0.36158  -0.35469
  Beta  occ. eigenvalues --   -0.33485  -0.32818  -0.31819  -0.31070  -0.30342
  Beta  occ. eigenvalues --   -0.30103  -0.29720  -0.29509  -0.28202  -0.27773
  Beta  occ. eigenvalues --   -0.26682  -0.25501  -0.25129  -0.24578  -0.23444
  Beta  occ. eigenvalues --   -0.21988  -0.19478  -0.18805  -0.15941  -0.13151
  Beta virt. eigenvalues --    0.06518   0.06968   0.07506   0.07565   0.07861
  Beta virt. eigenvalues --    0.08514   0.09067   0.09206   0.09419   0.10143
  Beta virt. eigenvalues --    0.10363   0.10599   0.11596   0.12002   0.12743

 Mulliken charges and spin densities:
               1          2
     1  C    0.084695  -0.453052
     2  C    0.331895  -0.543353
     3  O    0.044915   0.052373
     4  C   -0.423079   0.307918
     5  O   -0.251648   0.028466
     6  C    0.735097  -1.140141
     7  C    1.251034  -1.300160
     8  C    0.234169  -0.720666
     9  C    0.195513   0.367435
    10  C   -2.421413   2.550251
    11  C   -0.135373  -0.727066
    12  C    2.145777  -2.027489
    13  C    0.798596  -1.151196
    14  C   -1.187525   0.655485
    15  O   -0.222867   0.030214
    16  O   -0.118954   0.000925
    17  H    0.253717  -0.098654
    18  H   -0.388541   0.545986
    19  H   -0.047712   0.225930
    20  H   -0.617152   0.792082
    21  H    0.118237   0.050685
    22  H   -0.238106   0.454608
    23  H    0.119635   0.104028
    24  H    0.091978   0.045378
    25  H    0.102489   0.079769
    26  H   -0.216410   0.386844
    27  H   -0.305452   0.478025
    28  H    0.087353   0.093568
    29  H   -0.606162   0.793800
    30  H   -0.289792   0.455280
    31  H   -0.303663   0.583914
    32  H    0.178752   0.078812
 Sum of Mulliken charges =  -1.00000   1.00000

 Dipole moment (field-independent basis, Debye):
    X=              1.8139    Y=              2.3034    Z=             -0.5896  Tot=              2.9906
 Quadrupole moment (field-independent basis, Debye-Ang):
   XX=           -143.1768   YY=           -147.6298   ZZ=           -147.2999
   XY=              2.5641   XZ=             -8.0697   YZ=              2.5749

 Summary of Natural Population Analysis:

                                       Natural Population
                Natural  -----------------------------------------------
    Atom  No    Charge         Core      Valence    Rydberg      Total
 -----------------------------------------------------------------------
      C    1   -0.30038      0.99966     2.29540    0.00532     3.30038
      C    2   -0.01606      0.99957     2.00538    0.01111     3.01606
      O    3   -0.27238      0.99986     3.26227    0.01026     4.27238
      C    4    0.41821      0.99968     1.55564    0.02648     2.58179
      O    5   -0.32526      0.99986     3.31969    0.00570     4.32526
      C    6   -0.24491      0.99954     2.23554    0.00983     3.24491
      C    7    0.13345      0.99951     1.85064    0.01640     2.86655
      C    8   -0.28469      0.99961     2.27787    0.00721     3.28469
      C    9   -0.02376      0.99947     2.01026    0.01404     3.02376
      C   10   -0.13871      0.99945     2.12809    0.01116     3.13871
      C   11    0.16118      0.99939     1.82555    0.01389     2.83882
      C   12   -0.12829      0.99951     2.11928    0.00950     3.12829
      C   13   -0.08899      0.99957     2.07881    0.01061     3.08899
      C   14   -0.11831      0.99950     2.10810    0.01070     3.11831
      O   15   -0.33963      0.99988     3.33288    0.00687     4.33963
      O   16   -0.38313      0.99989     3.37710    0.00614     4.38313
      H   17    0.10579      0.00000     0.39266    0.00154     0.39421
      H   18    0.10235      0.00000     0.39648    0.00117     0.39765
      H   19    0.10756      0.00000     0.39087    0.00158     0.39244
      H   20    0.09296      0.00000     0.40527    0.00177     0.40704
      H   21    0.09391      0.00000     0.40489    0.00120     0.40609
      H   22    0.11687      0.00000     0.38143    0.00171     0.38313
      H   23    0.11534      0.00000     0.38369    0.00097     0.38466
      H   24    0.10078      0.00000     0.39838    0.00084     0.39922
      H   25    0.10680      0.00000     0.39234    0.00086     0.39320
      H   26    0.10358      0.00000     0.39534    0.00107     0.39642
      H   27    0.11249      0.00000     0.38593    0.00158     0.38751
      H   28    0.10567      0.00000     0.39337    0.00096     0.39433
      H   29    0.10221      0.00000     0.39668    0.00111     0.39779
      H   30    0.10393      0.00000     0.39361    0.00246     0.39607
      H   31    0.23805      0.00000     0.25483    0.00713     0.26195
      H   32    0.24338      0.00000     0.25337    0.00325     0.25662
 =======================================================================
   * Total *   -0.00000     15.99392    43.80163    0.20444    60.00000

 Normal termination of Gaussian 16 at Thu Dec 10 22:39:41 2020.
