 Gaussian 16, Revision A.03,

 -----------------------------------------------------------
 # opt freq B3LYP/6-31G(d) empiricaldispersion=gd3bj scf=xqc
 -----------------------------------------------------------

 -------------------------------
 CID_116049936_JID_7615_neutraal
 -------------------------------
 Symbolic Z-matrix:
 Charge =  0 Multiplicity = 1

 SCF Done:  E(RB3LYP) =  -806.934310974     A.U. after   14 cycles
 SCF Done:  E(RB3LYP) =  -806.940679761     A.U. after   12 cycles
 SCF Done:  E(RB3LYP) =  -806.939948384     A.U. after   12 cycles
 SCF Done:  E(RB3LYP) =  -806.940022808     A.U. after   12 cycles
 SCF Done:  E(RB3LYP) =  -806.942350126     A.U. after   10 cycles
 SCF Done:  E(RB3LYP) =  -806.944037373     A.U. after   12 cycles
 SCF Done:  E(RB3LYP) =  -806.944496066     A.U. after   12 cycles
 SCF Done:  E(RB3LYP) =  -806.944769087     A.U. after   11 cycles
 SCF Done:  E(RB3LYP) =  -806.944287331     A.U. after   12 cycles
 SCF Done:  E(RB3LYP) =  -806.944909063     A.U. after   11 cycles
 SCF Done:  E(RB3LYP) =  -806.945085692     A.U. after    9 cycles
 SCF Done:  E(RB3LYP) =  -806.945087235     A.U. after    8 cycles
 SCF Done:  E(RB3LYP) =  -806.945087701     A.U. after    7 cycles
 SCF Done:  E(RB3LYP) =  -806.945087848     A.U. after    7 cycles
 SCF Done:  E(RB3LYP) =  -806.945087936     A.U. after    6 cycles
 Optimization completed.
    -- Stationary point found.
 Normal termination of Gaussian 16 at Sun Dec 13 12:38:44 2020.

 --------------------------------------------------------------------
 #N Geom=AllCheck Guess=TCheck SCRF=Check GenChk RB3LYP/6-31G(d) Freq
 --------------------------------------------------------------------

 Structure from the checkpoint file:  "JID_7615.chk"
 -------------------------------
 CID_116049936_JID_7615_neutraal
 -------------------------------
 Charge =  0 Multiplicity = 1

 SCF Done:  E(RB3LYP) =  -806.945087936     A.U. after    1 cycles

  Exact polarizability: 171.507   4.484 144.372  -0.682  -0.236 127.232
 Approx polarizability: 210.896   7.376 219.514  -1.761   9.273 188.964

                      1                      2                      3
                      A                      A                      A
 Frequencies --     39.3700                45.5042                63.7563
 Red. masses --      2.9027                 4.3437                 3.9164
 Frc consts  --      0.0027                 0.0053                 0.0094
 IR Inten    --      0.7345                 0.4378                 0.9581

                      4                      5                      6
                      A                      A                      A
 Frequencies --     75.4995                88.9844               106.8127
 Red. masses --      3.5805                 4.0732                 3.5332
 Frc consts  --      0.0120                 0.0190                 0.0238
 IR Inten    --      1.6669                 0.7132                 1.7672

                      7                      8                      9
                      A                      A                      A
 Frequencies --    146.7081               156.5794               159.1496
 Red. masses --      4.3782                 2.6313                 2.7884
 Frc consts  --      0.0555                 0.0380                 0.0416
 IR Inten    --      1.2102                 2.8471                 4.8456

                     10                     11                     12
                      A                      A                      A
 Frequencies --    182.1002               197.7346               225.3336
 Red. masses --      2.8507                 2.8105                 2.6434
 Frc consts  --      0.0557                 0.0647                 0.0791
 IR Inten    --      3.3116                 2.9857                 2.2920

                     13                     14                     15
                      A                      A                      A
 Frequencies --    231.4627               253.5279               260.1682
 Red. masses --      1.6006                 3.0199                 1.2123
 Frc consts  --      0.0505                 0.1144                 0.0483
 IR Inten    --      6.2566                 7.5394                 3.4979

                     16                     17                     18
                      A                      A                      A
 Frequencies --    283.7187               284.1448               319.2038
 Red. masses --      1.8346                 1.6420                 3.0255
 Frc consts  --      0.0870                 0.0781                 0.1816
 IR Inten    --     30.0572                75.5335                20.7450

                     19                     20                     21
                      A                      A                      A
 Frequencies --    334.3360               361.3769               391.3238
 Red. masses --      2.3013                 2.4199                 2.5521
 Frc consts  --      0.1516                 0.1862                 0.2303
 IR Inten    --      1.3474                 2.8509                 0.5480

                     22                     23                     24
                      A                      A                      A
 Frequencies --    401.6809               412.8731               440.8632
 Red. masses --      1.9143                 2.5290                 4.0690
 Frc consts  --      0.1820                 0.2540                 0.4660
 IR Inten    --      2.4513                 4.5549                16.7004

                     25                     26                     27
                      A                      A                      A
 Frequencies --    492.2335               504.1324               510.0539
 Red. masses --      2.1177                 2.5236                 2.4225
 Frc consts  --      0.3023                 0.3779                 0.3713
 IR Inten    --      4.9596                22.4156                 2.0296

                     28                     29                     30
                      A                      A                      A
 Frequencies --    545.1494               648.7738               655.8456
 Red. masses --      2.8789                 2.4819                 3.9129
 Frc consts  --      0.5041                 0.6155                 0.9916
 IR Inten    --      1.9085                14.1824                10.0382

                     31                     32                     33
                      A                      A                      A
 Frequencies --    703.1945               755.2105               814.5993
 Red. masses --      3.3030                 3.7797                 2.5866
 Frc consts  --      0.9623                 1.2701                 1.0113
 IR Inten    --     10.5925                 4.0810                13.9714

                     34                     35                     36
                      A                      A                      A
 Frequencies --    828.5380               840.6718               872.2645
 Red. masses --      2.3734                 1.9799                 2.5602
 Frc consts  --      0.9599                 0.8244                 1.1477
 IR Inten    --     17.2209                19.8912                 2.4206

                     37                     38                     39
                      A                      A                      A
 Frequencies --    893.6697               907.5808               929.9698
 Red. masses --      2.6206                 1.5390                 2.3229
 Frc consts  --      1.2331                 0.7469                 1.1836
 IR Inten    --     11.1541                27.5804                18.6431

                     40                     41                     42
                      A                      A                      A
 Frequencies --    938.1365               960.3476               989.8142
 Red. masses --      2.1435                 2.2616                 1.9355
 Frc consts  --      1.1115                 1.2289                 1.1172
 IR Inten    --     15.1693                17.4160                 9.5479

                     43                     44                     45
                      A                      A                      A
 Frequencies --   1010.8358              1013.4543              1028.0122
 Red. masses --      2.8584                 1.6847                 1.9560
 Frc consts  --      1.7208                 1.0195                 1.2179
 IR Inten    --     23.8127                 2.2164                 2.1905

                     46                     47                     48
                      A                      A                      A
 Frequencies --   1053.2140              1078.1764              1091.0725
 Red. masses --      2.0626                 1.8395                 2.2447
 Frc consts  --      1.3480                 1.2599                 1.5744
 IR Inten    --      9.1221                16.3572                 7.5460

                     49                     50                     51
                      A                      A                      A
 Frequencies --   1096.9433              1107.0585              1115.0329
 Red. masses --      2.5012                 1.5931                 2.3629
 Frc consts  --      1.7732                 1.1504                 1.7309
 IR Inten    --     66.0433                13.8986                18.1742

                     52                     53                     54
                      A                      A                      A
 Frequencies --   1137.7149              1162.8198              1173.1730
 Red. masses --      2.3743                 2.6220                 2.5145
 Frc consts  --      1.8107                 2.0889                 2.0390
 IR Inten    --     13.6416                17.5854                54.0906

                     55                     56                     57
                      A                      A                      A
 Frequencies --   1176.6342              1198.6281              1208.5986
 Red. masses --      1.9670                 1.4832                 1.8675
 Frc consts  --      1.6045                 1.2555                 1.6072
 IR Inten    --     27.6812                16.5234                18.4621

                     58                     59                     60
                      A                      A                      A
 Frequencies --   1227.5566              1247.8053              1251.6506
 Red. masses --      1.3377                 1.5363                 1.6311
 Frc consts  --      1.1877                 1.4093                 1.5055
 IR Inten    --     11.4132               151.0516                10.4930

                     61                     62                     63
                      A                      A                      A
 Frequencies --   1259.0654              1283.8535              1299.1196
 Red. masses --      1.5682                 1.1236                 1.2717
 Frc consts  --      1.4647                 1.0911                 1.2645
 IR Inten    --     10.0920                34.8024                 8.0089

                     64                     65                     66
                      A                      A                      A
 Frequencies --   1324.0837              1330.6386              1350.2669
 Red. masses --      1.4805                 1.2763                 1.3638
 Frc consts  --      1.5293                 1.3315                 1.4650
 IR Inten    --     65.5386                 2.5045                36.2675

                     67                     68                     69
                      A                      A                      A
 Frequencies --   1353.1863              1367.3764              1380.9694
 Red. masses --      1.3287                 1.1710                 1.3311
 Frc consts  --      1.4334                 1.2900                 1.4956
 IR Inten    --      8.1529                13.2805                 0.0856

                     70                     71                     72
                      A                      A                      A
 Frequencies --   1389.8018              1395.0990              1406.6281
 Red. masses --      1.5033                 1.4533                 1.2803
 Frc consts  --      1.7108                 1.6666                 1.4925
 IR Inten    --      1.9274                12.7995                43.9768

                     73                     74                     75
                      A                      A                      A
 Frequencies --   1412.3850              1422.5544              1431.6794
 Red. masses --      1.3410                 1.2796                 1.2483
 Frc consts  --      1.5761                 1.5257                 1.5075
 IR Inten    --      1.1584                 1.8513                 9.7691

                     76                     77                     78
                      A                      A                      A
 Frequencies --   1443.3940              1446.4494              1469.8471
 Red. masses --      1.3282                 1.3560                 1.4035
 Frc consts  --      1.6303                 1.6715                 1.7865
 IR Inten    --      9.1497                19.9250                26.8744

                     79                     80                     81
                      A                      A                      A
 Frequencies --   1475.9462              1492.0354              1498.1926
 Red. masses --      1.3042                 1.1457                 1.3383
 Frc consts  --      1.6739                 1.5027                 1.7698
 IR Inten    --     17.8041                 6.9487                33.0681

                     82                     83                     84
                      A                      A                      A
 Frequencies --   1500.9527              1508.9866              1510.7695
 Red. masses --      1.2948                 1.1507                 1.1073
 Frc consts  --      1.7186                 1.5438                 1.4891
 IR Inten    --      7.8082                14.4373                 4.1263

                     85                     86                     87
                      A                      A                      A
 Frequencies --   1516.6256              1519.3848              1526.4949
 Red. masses --      1.1323                 1.0928                 1.0699
 Frc consts  --      1.5345                 1.4864                 1.4689
 IR Inten    --      1.4322                 8.5534                 2.4087

                     88                     89                     90
                      A                      A                      A
 Frequencies --   1534.5420              1535.4832              1541.2659
 Red. masses --      1.1037                 1.0737                 1.0880
 Frc consts  --      1.5313                 1.4916                 1.5228
 IR Inten    --      3.1975                 5.3936                 6.9050

                     91                     92                     93
                      A                      A                      A
 Frequencies --   1547.2303              1556.5073              1721.5719
 Red. masses --      1.0567                 1.0495                 8.7898
 Frc consts  --      1.4904                 1.4981                15.3489
 IR Inten    --      8.1086                 3.5793               231.2895

                     94                     95                     96
                      A                      A                      A
 Frequencies --   2936.7219              2979.0208              2981.0994
 Red. masses --      1.0733                 1.0821                 1.0533
 Frc consts  --      5.4535                 5.6582                 5.5152
 IR Inten    --     85.5256                30.4856                61.6536

                     97                     98                     99
                      A                      A                      A
 Frequencies --   3000.7947              3016.3639              3032.5537
 Red. masses --      1.0635                 1.0720                 1.0640
 Frc consts  --      5.6424                 5.7465                 5.7651
 IR Inten    --     57.8032                24.1573                31.8724

                    100                    101                    102
                      A                      A                      A
 Frequencies --   3039.5943              3052.1146              3054.1431
 Red. masses --      1.0601                 1.0927                 1.0635
 Frc consts  --      5.7707                 5.9974                 5.8447
 IR Inten    --     58.6197                55.0252                20.3837

                    103                    104                    105
                      A                      A                      A
 Frequencies --   3059.5936              3063.9246              3077.6606
 Red. masses --      1.0457                 1.0818                 1.0962
 Frc consts  --      5.7676                 5.9832                 6.1177
 IR Inten    --     20.0116                20.1343                47.2216

                    106                    107                    108
                      A                      A                      A
 Frequencies --   3078.1626              3085.9666              3093.5436
 Red. masses --      1.0746                 1.0884                 1.0922
 Frc consts  --      5.9988                 6.1067                 6.1583
 IR Inten    --      8.3335                58.7308                79.1054

                    109                    110                    111
                      A                      A                      A
 Frequencies --   3096.1723              3097.2308              3122.2242
 Red. masses --      1.0784                 1.1048                 1.0990
 Frc consts  --      6.0911                 6.2442                 6.3120
 IR Inten    --     30.0923                50.5980                31.5699

                    112                    113                    114
                      A                      A                      A
 Frequencies --   3131.6076              3141.1161              3153.2535
 Red. masses --      1.1061                 1.1017                 1.0942
 Frc consts  --      6.3913                 6.4043                 6.4103
 IR Inten    --     31.2691                20.4722                50.2117

                    115                    116                    117
                      A                      A                      A
 Frequencies --   3154.8402              3480.2359              3755.7752
 Red. masses --      1.1000                 1.0745                 1.0664
 Frc consts  --      6.4506                 7.6682                 8.8631
 IR Inten    --     12.5952                 0.9003                19.9879

 - Thermochemistry -
 -------------------
 Temperature   298.150 Kelvin.  Pressure   1.00000 Atm.
 Atom     1 has atomic number  6 and mass  12.00000

 Molecular mass:   244.17869 amu.
 Principal axes and moments of inertia in atomic units:
                           1         2         3
     Eigenvalues --  2551.001495870.492666767.39899
           X            0.99999   0.00350   0.00084
           Y           -0.00348   0.99956  -0.02944
           Z           -0.00094   0.02944   0.99957
 This molecule is an asymmetric top.
 Rotational symmetry number  1.
 Warning -- assumption of classical behavior for rotation
           may cause significant error
 Rotational temperatures (Kelvin)      0.03395     0.01475     0.01280
 Rotational constants (GHZ):           0.70746     0.30743     0.26668
 Zero-point vibrational energy     969375.2 (Joules/Mol)
                                  231.68624 (Kcal/Mol)
 Warning -- explicit consideration of  28 degrees of freedom as
           vibrations may cause significant error
 Vibrational temperatures:     56.64    65.47    91.73   108.63   128.03
          (Kelvin)            153.68   211.08   225.28   228.98   262.00
                              284.50   324.20   333.02   364.77   374.32
                              408.21   408.82   459.26   481.03   519.94
                              563.03   577.93   594.03   634.30   708.21
                              725.33   733.85   784.35   933.44   943.62
                             1011.74  1086.58  1172.03  1192.08  1209.54
                             1254.99  1285.79  1305.81  1338.02  1349.77
                             1381.73  1424.12  1454.37  1458.13  1479.08
                             1515.34  1551.26  1569.81  1578.26  1592.81
                             1604.28  1636.92  1673.04  1687.93  1692.91
                             1724.56  1738.90  1766.18  1795.31  1800.85
                             1811.51  1847.18  1869.14  1905.06  1914.49
                             1942.73  1946.93  1967.35  1986.91  1999.61
                             2007.24  2023.82  2032.11  2046.74  2059.87
                             2076.72  2081.12  2114.78  2123.56  2146.71
                             2155.56  2159.54  2171.10  2173.66  2182.09
                             2186.06  2196.29  2207.86  2209.22  2217.54
                             2226.12  2239.47  2476.96  4225.29  4286.15
                             4289.14  4317.47  4339.87  4363.17  4373.30
                             4391.31  4394.23  4402.07  4408.30  4428.07
                             4428.79  4440.02  4450.92  4454.70  4456.22
                             4492.18  4505.68  4519.37  4536.83  4539.11
                             5007.28  5403.72

 Zero-point correction=                           0.369216 (Hartree/Particle)
 Thermal correction to Energy=                    0.387585
 Thermal correction to Enthalpy=                  0.388530
 Thermal correction to Gibbs Free Energy=         0.323122
 Sum of electronic and zero-point Energies=           -806.575872
 Sum of electronic and thermal Energies=              -806.557502
 Sum of electronic and thermal Enthalpies=            -806.556558
 Sum of electronic and thermal Free Energies=         -806.621966

                     E (Thermal)             CV                S
                      KCal/Mol        Cal/Mol-Kelvin    Cal/Mol-Kelvin
 Total                  243.214             69.400            137.663
 Electronic               0.000              0.000              0.000
 Translational            0.889              2.981             42.379
 Rotational               0.889              2.981             32.983
 Vibrational            241.436             63.438             62.301
 Vibration     1          0.594              1.981              5.291
 Vibration     2          0.595              1.979              5.004
 Vibration     3          0.597              1.972              4.337
 Vibration     4          0.599              1.965              4.005
 Vibration     5          0.602              1.957              3.682
 Vibration     6          0.606              1.944              3.326
 Vibration     7          0.617              1.906              2.714
 Vibration     8          0.620              1.895              2.591
 Vibration     9          0.621              1.892              2.560
 Vibration    10          0.630              1.864              2.307
 Vibration    11          0.637              1.843              2.154
 Vibration    12          0.650              1.802              1.916
 Vibration    13          0.653              1.793              1.868
 Vibration    14          0.665              1.757              1.706
 Vibration    15          0.668              1.746              1.661
 Vibration    16          0.682              1.704              1.511
 Vibration    17          0.683              1.703              1.509
 Vibration    18          0.705              1.637              1.314
 Vibration    19          0.716              1.607              1.239
 Vibration    20          0.736              1.552              1.116
 Vibration    21          0.759              1.489              0.995
 Vibration    22          0.767              1.466              0.956
 Vibration    23          0.777              1.442              0.917
 Vibration    24          0.801              1.381              0.824
 Vibration    25          0.848              1.267              0.678
 Vibration    26          0.859              1.241              0.648
 Vibration    27          0.865              1.228              0.633
 Vibration    28          0.900              1.150              0.554

                           ! Non-Optimized Parameters !
 Normal termination of Gaussian 16 at Sun Dec 13 12:59:11 2020.

 ----------------------------------------------------------------------
 # B3LYP/6-311++G(d,p) empiricaldispersion=gd3bj scf=xqc pop=npa geom=c
 heck
 ----------------------------------------------------------------------

 ---------------------------------------
 CID_116049936_JID_7615_Energie_neutraal
 ---------------------------------------
 Structure from the checkpoint file:  "JID_7615.chk"
 Charge =  0 Multiplicity = 1

 SCF Done:  E(RB3LYP) =  -807.188794066     A.U. after   14 cycles
 Normal termination of Gaussian 16 at Sun Dec 13 13:08:30 2020.

 ----------------------------------------------------------------------
 # B3LYP/6-311++G(d,p) empiricaldispersion=gd3bj scf=xqc pop=npa geom=c
 heck
 ----------------------------------------------------------------------

 -------------------------------------
 CID_116049936_JID_7615_Energie_kation
 -------------------------------------
 Structure from the checkpoint file:  "JID_7615.chk"
 Charge =  1 Multiplicity = 2

 SCF Done:  E(UB3LYP) =  -806.890291123     A.U. after   25 cycles
 Normal termination of Gaussian 16 at Sun Dec 13 13:31:25 2020.
 Gaussian 16:  ES64L-G16RevA.03 25-Dec-2016

 ----------------------------------------------------------------------
 # B3LYP/6-311++G(d,p) empiricaldispersion=gd3bj scf=xqc pop=npa geom=c
 heck
 ----------------------------------------------------------------------

 ------------------------------------
 CID_116049936_JID_7615_Energie_anion
 ------------------------------------
 Structure from the checkpoint file:  "JID_7615.chk"
 Charge = -1 Multiplicity = 2

                         Standard orientation:
 ---------------------------------------------------------------------
 Center     Atomic      Atomic             Coordinates (Angstroms)
 Number     Number       Type             X           Y           Z
 ---------------------------------------------------------------------
      1          6           0       -1.186367   -0.289574    1.816014
      2          6           0       -1.861424   -1.031194    0.656837
      3          6           0       -3.394809   -1.067441    0.804361
      4          6           0       -4.031022    0.298610    0.517709
      5          6           0       -3.588185    0.806067   -0.853912
      6          7           0       -2.122550    0.874894   -0.909675
      7          6           0       -1.515293   -0.452245   -0.741182
      8          6           0       -0.004497   -0.590154   -1.020604
      9          8           0        0.347228   -1.687138   -1.458599
     10          7           0        0.922139    0.385864   -0.742191
     11          6           0        0.604560    1.748342   -0.307987
     12          6           0        1.344823    2.231359    0.932211
     13          8           0        2.679827    2.586080    0.577616
     14          6           0        2.307703    0.132043   -1.172559
     15          6           0        3.299034   -0.347607   -0.095337
     16          8           0        3.342945   -1.738537    0.136782
     17          6           0        2.324127   -2.241146    0.978844
     18          1           0       -0.097790   -0.376117    1.755746
     19          1           0       -1.502172   -0.718023    2.773998
     20          1           0       -1.443750    0.773755    1.822764
     21          1           0       -1.491098   -2.063166    0.652018
     22          1           0       -3.800359   -1.801240    0.094123
     23          1           0       -3.664294   -1.416498    1.808682
     24          1           0       -3.734100    1.027398    1.281075
     25          1           0       -5.124471    0.224348    0.548102
     26          1           0       -3.983885    1.809480   -1.044872
     27          1           0       -3.996518    0.133090   -1.632606
     28          1           0       -1.845646    1.248149   -1.816424
     29          1           0       -1.939049   -1.161124   -1.471389
     30          1           0        0.837820    2.451364   -1.121848
     31          1           0       -0.466503    1.801288   -0.119644
     32          1           0        0.807198    3.109131    1.324289
     33          1           0        1.325897    1.450762    1.705144
     34          1           0        3.155736    2.817903    1.389181
     35          1           0        2.280404   -0.614306   -1.968147
     36          1           0        2.688752    1.077058   -1.571426
     37          1           0        4.301962   -0.085080   -0.451471
     38          1           0        3.133466    0.195698    0.844411
     39          1           0        2.213434   -1.620357    1.884505
     40          1           0        1.362023   -2.308856    0.461069
     41          1           0        2.633921   -3.245572    1.283016
 ---------------------------------------------------------------------

 SCF Done:  E(UB3LYP) =  -807.181062498     A.U. after   33 cycles
 SCF Done:  E(UB3LYP) =  -807.181062498     a.u. after    1 cycles

 The electronic state is 2-A.
 Alpha  occ. eigenvalues --  -19.02842 -19.02657 -18.98978 -14.25180 -14.21316
 Alpha  occ. eigenvalues --  -10.17590 -10.12214 -10.11871 -10.11563 -10.10942
 Alpha  occ. eigenvalues --  -10.10398 -10.10339 -10.10213 -10.08743 -10.07721
 Alpha  occ. eigenvalues --  -10.07441 -10.06505  -0.94624  -0.93783  -0.92980
 Alpha  occ. eigenvalues --   -0.83984  -0.82740  -0.71283  -0.68244  -0.66829
 Alpha  occ. eigenvalues --   -0.64816  -0.60668  -0.59062  -0.56138  -0.53549
 Alpha  occ. eigenvalues --   -0.52839  -0.51260  -0.46069  -0.45193  -0.43625
 Alpha  occ. eigenvalues --   -0.42894  -0.40110  -0.38974  -0.38788  -0.38041
 Alpha  occ. eigenvalues --   -0.36400  -0.35919  -0.35077  -0.34694  -0.34186
 Alpha  occ. eigenvalues --   -0.33828  -0.32686  -0.32136  -0.31373  -0.30555
 Alpha  occ. eigenvalues --   -0.29238  -0.29075  -0.28861  -0.27895  -0.27203
 Alpha  occ. eigenvalues --   -0.26782  -0.25256  -0.24765  -0.23662  -0.23115
 Alpha  occ. eigenvalues --   -0.22171  -0.21944  -0.18797  -0.16838  -0.16083
 Alpha  occ. eigenvalues --   -0.14944  -0.14323   0.03804
 Alpha virt. eigenvalues --    0.05477   0.06633   0.07392   0.07627   0.08348
 Alpha virt. eigenvalues --    0.08496   0.09452   0.09685   0.09841   0.10591
 Alpha virt. eigenvalues --    0.10852   0.11223   0.11295   0.11716   0.12595

  Beta  occ. eigenvalues --  -19.02799 -19.02654 -18.98961 -14.25184 -14.21292
  Beta  occ. eigenvalues --  -10.17574 -10.12180 -10.11861 -10.11561 -10.10933
  Beta  occ. eigenvalues --  -10.10391 -10.10336 -10.10188 -10.08741 -10.07710
  Beta  occ. eigenvalues --  -10.07423 -10.06488  -0.94599  -0.93773  -0.92889
  Beta  occ. eigenvalues --   -0.83970  -0.82714  -0.71258  -0.68215  -0.66797
  Beta  occ. eigenvalues --   -0.64774  -0.60641  -0.59039  -0.56092  -0.53479
  Beta  occ. eigenvalues --   -0.52797  -0.51227  -0.46027  -0.45164  -0.43562
  Beta  occ. eigenvalues --   -0.42793  -0.40090  -0.38955  -0.38758  -0.38018
  Beta  occ. eigenvalues --   -0.36368  -0.35902  -0.35046  -0.34662  -0.34157
  Beta  occ. eigenvalues --   -0.33797  -0.32660  -0.32108  -0.31350  -0.30525
  Beta  occ. eigenvalues --   -0.29183  -0.29051  -0.28834  -0.27879  -0.27179
  Beta  occ. eigenvalues --   -0.26761  -0.25223  -0.24711  -0.23633  -0.23090
  Beta  occ. eigenvalues --   -0.22146  -0.21918  -0.18753  -0.16817  -0.16064
  Beta  occ. eigenvalues --   -0.14922  -0.14282
  Beta virt. eigenvalues --    0.05995   0.06862   0.07177   0.07745   0.08195
  Beta virt. eigenvalues --    0.08532   0.08762   0.09746   0.09964   0.10203
  Beta virt. eigenvalues --    0.10793   0.11019   0.11401   0.11533   0.11916

 Mulliken charges and spin densities:
               1          2
     1  C   -0.309049  -0.399339
     2  C   -0.371082   0.994644
     3  C    0.140206  -0.555817
     4  C   -0.075510  -0.324085
     5  C    0.364256  -0.614218
     6  N   -0.333885   0.248947
     7  C    0.963146  -1.140351
     8  C   -0.990327   0.169655
     9  O   -0.237667   0.004350
    10  N    0.282309  -0.009282
    11  C   -1.345814   0.869530
    12  C    1.730799  -2.122269
    13  O   -0.318343   0.066083
    14  C   -0.463099   0.388219
    15  C   -0.158712  -0.281961
    16  O   -0.113089   0.007993
    17  C   -0.247880  -0.105984
    18  H    0.857498  -0.780520
    19  H   -0.258083   0.419032
    20  H   -0.004119   0.182575
    21  H    0.152293   0.087816
    22  H    0.018870   0.096753
    23  H    0.008006   0.156570
    24  H    0.142142  -0.013743
    25  H   -0.486328   0.675244
    26  H   -0.539144   0.718474
    27  H    0.019818   0.098058
    28  H   -0.117423   0.384796
    29  H    0.209295   0.021423
    30  H   -0.106190   0.296663
    31  H    0.859263  -0.625437
    32  H   -0.569415   0.744870
    33  H   -0.423860   0.606136
    34  H   -0.213657   0.481507
    35  H    0.188409   0.044199
    36  H    0.153487  -0.011811
    37  H    0.097732   0.089019
    38  H    0.266974  -0.115757
    39  H   -0.123123   0.231089
    40  H    0.251238  -0.031039
    41  H    0.100060   0.047966
 Sum of Mulliken charges =  -1.00000   1.00000

 Dipole moment (field-independent basis, Debye):
    X=              0.5747    Y=             -3.8819    Z=             -1.8614  Tot=              4.3433
 Quadrupole moment (field-independent basis, Debye-Ang):
   XX=           -185.5344   YY=           -161.3685   ZZ=           -144.4799
   XY=              0.2325   XZ=             -6.6713   YZ=            -10.5595

 Summary of Natural Population Analysis:

                                       Natural Population
                Natural  -----------------------------------------------
    Atom  No    Charge         Core      Valence    Rydberg      Total
 -----------------------------------------------------------------------
      C    1   -0.29119      0.99964     2.28502    0.00654     3.29119
      C    2   -0.11066      0.99958     2.10107    0.01001     3.11066
      C    3   -0.18750      0.99961     2.17865    0.00924     3.18750
      C    4   -0.19585      0.99962     2.18793    0.00830     3.19585
      C    5   -0.08271      0.99962     2.07148    0.01162     3.08271
      N    6   -0.34832      0.99973     2.83630    0.01229     3.84832
      C    7   -0.04135      0.99952     2.02845    0.01338     3.04135
      C    8    0.34940      0.99960     1.62719    0.02381     2.65060
      O    9   -0.33232      0.99988     3.32733    0.00511     4.33232
      N   10   -0.25397      0.99963     2.74366    0.01068     3.75397
      C   11   -0.10634      0.99957     2.09519    0.01158     3.10634
      C   12   -0.01733      0.99959     2.00535    0.01239     3.01733
      O   13   -0.37540      0.99989     3.36818    0.00733     4.37540
      C   14   -0.10428      0.99960     2.09527    0.00941     3.10428
      C   15   -0.01303      0.99957     1.99962    0.01383     3.01303
      O   16   -0.29793      0.99989     3.28910    0.00895     4.29793
      C   17   -0.10250      0.99961     2.09341    0.00948     3.10250
      H   18    0.10074      0.00000     0.39769    0.00157     0.39926
      H   19    0.09980      0.00000     0.39928    0.00093     0.40020
      H   20    0.10163      0.00000     0.39692    0.00146     0.39837
      H   21    0.10261      0.00000     0.39575    0.00164     0.39739
      H   22    0.09572      0.00000     0.40304    0.00124     0.40428
      H   23    0.10031      0.00000     0.39878    0.00091     0.39969
      H   24    0.09859      0.00000     0.40003    0.00137     0.40141
      H   25    0.10083      0.00000     0.39794    0.00123     0.39917
      H   26    0.09928      0.00000     0.39921    0.00151     0.40072
      H   27    0.07669      0.00000     0.42175    0.00156     0.42331
      H   28    0.17769      0.00000     0.31979    0.00252     0.32231
      H   29    0.09729      0.00000     0.40074    0.00197     0.40271
      H   30    0.09357      0.00000     0.40513    0.00130     0.40643
      H   31    0.12646      0.00000     0.37115    0.00239     0.37354
      H   32    0.08349      0.00000     0.41445    0.00207     0.41651
      H   33    0.08113      0.00000     0.41645    0.00242     0.41887
      H   34    0.23602      0.00000     0.25455    0.00943     0.26398
      H   35    0.11284      0.00000     0.38586    0.00130     0.38716
      H   36    0.10202      0.00000     0.39676    0.00122     0.39798
      H   37    0.08846      0.00000     0.41045    0.00109     0.41154
      H   38    0.08511      0.00000     0.41300    0.00189     0.41489
      H   39    0.07504      0.00000     0.42374    0.00123     0.42496
      H   40    0.09199      0.00000     0.40650    0.00150     0.40801
      H   41    0.08398      0.00000     0.41521    0.00082     0.41602
 =======================================================================
   * Total *    0.00000     16.99414    49.77735    0.22851    67.00000

 Normal termination of Gaussian 16 at Sun Dec 13 13:59:36 2020.
