 Gaussian 16, Revision A.03,

 -----------------------------------------------------------
 # opt freq B3LYP/6-31G(d) empiricaldispersion=gd3bj scf=xqc
 -----------------------------------------------------------

 ------------------------------
 CID_62914567_JID_8176_neutraal
 ------------------------------
 Symbolic Z-matrix:
 Charge =  0 Multiplicity = 1

 SCF Done:  E(RB3LYP) =  -767.045496824     A.U. after   14 cycles
 SCF Done:  E(RB3LYP) =  -767.052632844     A.U. after   12 cycles
 SCF Done:  E(RB3LYP) =  -767.052945376     A.U. after   12 cycles
 SCF Done:  E(RB3LYP) =  -767.054333920     A.U. after   12 cycles
 SCF Done:  E(RB3LYP) =  -767.053587090     A.U. after   12 cycles
 SCF Done:  E(RB3LYP) =  -767.055430977     A.U. after   12 cycles
 SCF Done:  E(RB3LYP) =  -767.055722450     A.U. after   10 cycles
 SCF Done:  E(RB3LYP) =  -767.055819962     A.U. after   10 cycles
 SCF Done:  E(RB3LYP) =  -767.055847537     A.U. after    9 cycles
 SCF Done:  E(RB3LYP) =  -767.055869497     A.U. after   10 cycles
 SCF Done:  E(RB3LYP) =  -767.055987761     A.U. after   10 cycles
 SCF Done:  E(RB3LYP) =  -767.055991359     A.U. after   10 cycles
 SCF Done:  E(RB3LYP) =  -767.055991010     A.U. after    9 cycles
 SCF Done:  E(RB3LYP) =  -767.055991593     A.U. after    9 cycles
 SCF Done:  E(RB3LYP) =  -767.055991668     A.U. after    7 cycles
 Optimization completed.
    -- Stationary point found.
 Normal termination of Gaussian 16 at Fri Dec 11 19:34:52 2020.

 --------------------------------------------------------------------
 #N Geom=AllCheck Guess=TCheck SCRF=Check GenChk RB3LYP/6-31G(d) Freq
 --------------------------------------------------------------------

 Structure from the checkpoint file:  "JID_8176.chk"
 ------------------------------
 CID_62914567_JID_8176_neutraal
 ------------------------------
 Charge =  0 Multiplicity = 1

 SCF Done:  E(RB3LYP) =  -767.055991668     A.U. after    1 cycles

  Exact polarizability: 240.416  -1.623 184.433   0.828   3.048 119.852
 Approx polarizability: 306.136   2.245 271.416   3.191   9.158 181.933

                      1                      2                      3
                      A                      A                      A
 Frequencies --     24.8255                31.9513                61.5381
 Red. masses --      2.3572                 3.3736                 2.5824
 Frc consts  --      0.0009                 0.0020                 0.0058
 IR Inten    --      0.3003                 1.4774                 0.3861

                      4                      5                      6
                      A                      A                      A
 Frequencies --     69.3295                88.9215                99.9697
 Red. masses --      3.1453                 2.5877                 3.5818
 Frc consts  --      0.0089                 0.0121                 0.0211
 IR Inten    --      1.1572                 1.1483                 0.9036

                      7                      8                      9
                      A                      A                      A
 Frequencies --    139.9484               155.9148               173.1849
 Red. masses --      2.6085                 2.6036                 2.0913
 Frc consts  --      0.0301                 0.0373                 0.0370
 IR Inten    --      1.8239                 2.0097                 1.4787

                     10                     11                     12
                      A                      A                      A
 Frequencies --    179.4176               180.7033               190.2380
 Red. masses --      1.0988                 1.1505                 1.5301
 Frc consts  --      0.0208                 0.0221                 0.0326
 IR Inten    --      0.1398                 0.7593                 0.6827

                     13                     14                     15
                      A                      A                      A
 Frequencies --    219.1417               230.6796               244.6138
 Red. masses --      2.3560                 3.4600                 2.4557
 Frc consts  --      0.0667                 0.1085                 0.0866
 IR Inten    --      0.5146                 0.0275                 0.4352

                     16                     17                     18
                      A                      A                      A
 Frequencies --    252.5301               257.0040               267.6411
 Red. masses --      2.0927                 2.2678                 2.4655
 Frc consts  --      0.0786                 0.0883                 0.1041
 IR Inten    --      0.5815                 0.2512                 0.2018

                     19                     20                     21
                      A                      A                      A
 Frequencies --    279.8936               308.6808               326.4354
 Red. masses --      1.7541                 2.8134                 3.2430
 Frc consts  --      0.0810                 0.1579                 0.2036
 IR Inten    --      5.7502                 0.8211                 1.9393

                     22                     23                     24
                      A                      A                      A
 Frequencies --    377.6580               401.0397               447.1623
 Red. masses --      3.4072                 2.7461                 4.0704
 Frc consts  --      0.2863                 0.2602                 0.4795
 IR Inten    --      0.2692                 1.9970                 2.2890

                     25                     26                     27
                      A                      A                      A
 Frequencies --    502.5861               540.2150               581.6812
 Red. masses --      3.1213                 4.1769                 1.8107
 Frc consts  --      0.4645                 0.7182                 0.3610
 IR Inten    --      1.4935                 1.8120                 2.2664

                     28                     29                     30
                      A                      A                      A
 Frequencies --    592.2813               616.7281               644.3751
 Red. masses --      5.0526                 4.1794                 3.6429
 Frc consts  --      1.0443                 0.9366                 0.8912
 IR Inten    --      2.0613                 7.8281                33.1664

                     31                     32                     33
                      A                      A                      A
 Frequencies --    673.6643               739.1369               749.3858
 Red. masses --      3.2376                 3.4559                 4.7707
 Frc consts  --      0.8657                 1.1124                 1.5785
 IR Inten    --      5.6881                 7.1060                 8.2524

                     34                     35                     36
                      A                      A                      A
 Frequencies --    809.7795               818.5036               837.1833
 Red. masses --      4.2441                 1.5827                 1.3966
 Frc consts  --      1.6397                 0.6247                 0.5767
 IR Inten    --      5.5386                58.6893                18.8847

                     37                     38                     39
                      A                      A                      A
 Frequencies --    863.1617               887.6547               892.5664
 Red. masses --      1.8327                 1.9725                 2.5988
 Frc consts  --      0.8045                 0.9157                 1.2199
 IR Inten    --      3.2348                 2.3556                 2.3858

                     40                     41                     42
                      A                      A                      A
 Frequencies --    916.2801               927.8437               937.7135
 Red. masses --      3.5938                 2.3175                 1.4475
 Frc consts  --      1.7777                 1.1755                 0.7499
 IR Inten    --      6.6722                 7.3755                 0.0846

                     43                     44                     45
                      A                      A                      A
 Frequencies --    944.6199               946.0518               979.5411
 Red. masses --      1.2478                 1.8069                 1.4076
 Frc consts  --      0.6560                 0.9528                 0.7957
 IR Inten    --      0.4219                 4.4518                 0.2183

                     46                     47                     48
                      A                      A                      A
 Frequencies --    985.1999              1007.9282              1028.1958
 Red. masses --      1.5741                 2.5309                 2.0889
 Frc consts  --      0.9002                 1.5149                 1.3011
 IR Inten    --      4.1935                 5.8406                 7.1014

                     49                     50                     51
                      A                      A                      A
 Frequencies --   1048.9953              1065.9260              1083.5221
 Red. masses --      1.8129                 1.5958                 2.2285
 Frc consts  --      1.1753                 1.0683                 1.5415
 IR Inten    --      0.9266                 3.3487                 7.2838

                     52                     53                     54
                      A                      A                      A
 Frequencies --   1099.2818              1134.9180              1149.0228
 Red. masses --      2.7062                 2.1343                 2.4885
 Frc consts  --      1.9268                 1.6197                 1.9357
 IR Inten    --      2.1659                17.0981                 2.5520

                     55                     56                     57
                      A                      A                      A
 Frequencies --   1163.5220              1168.0044              1189.9345
 Red. masses --      1.7816                 1.6945                 1.8769
 Frc consts  --      1.4210                 1.3620                 1.5658
 IR Inten    --     14.0502                 7.3095                10.6574

                     58                     59                     60
                      A                      A                      A
 Frequencies --   1196.2591              1200.3827              1221.6089
 Red. masses --      1.5395                 1.7540                 1.9385
 Frc consts  --      1.2980                 1.4891                 1.7044
 IR Inten    --      2.7024                46.0735                 2.2751

                     61                     62                     63
                      A                      A                      A
 Frequencies --   1233.5593              1258.1042              1280.4447
 Red. masses --      2.8085                 1.3304                 1.9879
 Frc consts  --      2.5179                 1.2407                 1.9202
 IR Inten    --     19.8651                41.7875                 4.5578

                     64                     65                     66
                      A                      A                      A
 Frequencies --   1285.8048              1307.4680              1314.1140
 Red. masses --      1.9292                 4.5510                 1.2104
 Frc consts  --      1.8792                 4.5837                 1.2315
 IR Inten    --     41.8201                29.2018                38.0887

                     67                     68                     69
                      A                      A                      A
 Frequencies --   1334.1305              1364.4046              1364.9128
 Red. masses --      1.3539                 1.6996                 1.2857
 Frc consts  --      1.4198                 1.8642                 1.4112
 IR Inten    --      1.1586                41.0261                 3.4007

                     70                     71                     72
                      A                      A                      A
 Frequencies --   1376.0606              1386.1905              1392.6156
 Red. masses --      1.2871                 1.5265                 1.7541
 Frc consts  --      1.4359                 1.7282                 2.0043
 IR Inten    --     16.5116                94.7747               132.0525

                     73                     74                     75
                      A                      A                      A
 Frequencies --   1402.9811              1416.4917              1427.9608
 Red. masses --      1.3936                 1.7326                 1.3085
 Frc consts  --      1.6162                 2.0482                 1.5721
 IR Inten    --      7.6256                16.9480                17.5367

                     76                     77                     78
                      A                      A                      A
 Frequencies --   1436.7634              1441.7685              1447.0515
 Red. masses --      1.7679                 1.6692                 1.9995
 Frc consts  --      2.1503                 2.0443                 2.4668
 IR Inten    --     80.3403                20.4777                21.6638

                     79                     80                     81
                      A                      A                      A
 Frequencies --   1453.1408              1496.4862              1516.2013
 Red. masses --      1.2168                 1.3820                 1.1385
 Frc consts  --      1.5139                 1.8234                 1.5420
 IR Inten    --      2.1888                30.3452               113.1404

                     82                     83                     84
                      A                      A                      A
 Frequencies --   1517.1595              1518.5365              1519.7692
 Red. masses --      1.0582                 1.0570                 1.0904
 Frc consts  --      1.4350                 1.4360                 1.4838
 IR Inten    --      2.2338                 2.0010                 2.9647

                     85                     86                     87
                      A                      A                      A
 Frequencies --   1521.9831              1526.3098              1527.5827
 Red. masses --      1.0591                 1.1557                 1.1131
 Frc consts  --      1.4454                 1.5863                 1.5303
 IR Inten    --      3.2649               113.4517                25.4518

                     88                     89                     90
                      A                      A                      A
 Frequencies --   1531.6868              1534.9376              1542.3969
 Red. masses --      1.0700                 1.1312                 1.0624
 Frc consts  --      1.4790                 1.5703                 1.4891
 IR Inten    --     24.9749                29.1606                 3.5635

                     91                     92                     93
                      A                      A                      A
 Frequencies --   1549.6608              1558.8627              1564.8400
 Red. masses --      1.0821                 1.1769                 1.1829
 Frc consts  --      1.5311                 1.6850                 1.7066
 IR Inten    --      3.0550               141.4544                39.1404

                     94                     95                     96
                      A                      A                      A
 Frequencies --   1581.2880              1597.4157              1643.7499
 Red. masses --      3.9662                 4.1254                 4.0291
 Frc consts  --      5.8432                 6.2023                 6.4140
 IR Inten    --    286.4475               453.0660               557.6123

                     97                     98                     99
                      A                      A                      A
 Frequencies --   3001.5803              3018.3522              3023.9210
 Red. masses --      1.0746                 1.0728                 1.0739
 Frc consts  --      5.7040                 5.7582                 5.7859
 IR Inten    --     41.8677                66.4150                32.9853

                    100                    101                    102
                      A                      A                      A
 Frequencies --   3049.6894              3050.0608              3050.6599
 Red. masses --      1.0486                 1.0373                 1.0422
 Frc consts  --      5.7460                 5.6855                 5.7149
 IR Inten    --     10.1487                27.6558                31.1308

                    103                    104                    105
                      A                      A                      A
 Frequencies --   3054.4258              3058.8606              3062.5255
 Red. masses --      1.0520                 1.0691                 1.0648
 Frc consts  --      5.7824                 5.8938                 5.8842
 IR Inten    --     20.5463                23.5927                43.9469

                    106                    107                    108
                      A                      A                      A
 Frequencies --   3064.1773              3100.9573              3108.9458
 Red. masses --      1.0619                 1.0912                 1.0981
 Frc consts  --      5.8743                 6.1824                 6.2535
 IR Inten    --     29.7153                30.4456                 6.7872

                    109                    110                    111
                      A                      A                      A
 Frequencies --   3109.3045              3109.7346              3111.6964
 Red. masses --      1.0970                 1.0910                 1.0958
 Frc consts  --      6.2485                 6.2160                 6.2516
 IR Inten    --     18.2575                20.7261                31.5448

                    112                    113                    114
                      A                      A                      A
 Frequencies --   3114.6130              3116.4939              3124.2240
 Red. masses --      1.1013                 1.0981                 1.1052
 Frc consts  --      6.2944                 6.2840                 6.3560
 IR Inten    --     44.1497                38.0239                50.9117

                    115                    116                    117
                      A                      A                      A
 Frequencies --   3131.6093              3133.2784              3156.0761
 Red. masses --      1.0967                 1.1005                 1.0942
 Frc consts  --      6.3368                 6.3655                 6.4218
 IR Inten    --     54.9615                32.4793                19.3800

                    118                    119                    120
                      A                      A                      A
 Frequencies --   3161.7936              3171.2423              3515.5745
 Red. masses --      1.1007                 1.0940                 1.0734
 Frc consts  --      6.4831                 6.4820                 7.8162
 IR Inten    --     11.1997                28.6502                 6.7733

 - Thermochemistry -
 -------------------
 Temperature   298.150 Kelvin.  Pressure   1.00000 Atm.
 Atom     1 has atomic number  6 and mass  12.00000

 Molecular mass:   248.20010 amu.
 Principal axes and moments of inertia in atomic units:
                           1         2         3
     Eigenvalues --  2723.380097246.247469337.39414
           X            1.00000  -0.00024  -0.00136
           Y            0.00024   1.00000  -0.00213
           Z            0.00136   0.00213   1.00000
 This molecule is an asymmetric top.
 Rotational symmetry number  1.
 Warning -- assumption of classical behavior for rotation
           may cause significant error
 Rotational temperatures (Kelvin)      0.03180     0.01195     0.00928
 Rotational constants (GHZ):           0.66268     0.24906     0.19328
 Zero-point vibrational energy     986468.8 (Joules/Mol)
                                  235.77171 (Kcal/Mol)
 Warning -- explicit consideration of  29 degrees of freedom as
           vibrations may cause significant error
 Vibrational temperatures:     35.72    45.97    88.54    99.75   127.94
          (Kelvin)            143.83   201.35   224.33   249.17   258.14
                              259.99   273.71   315.30   331.90   351.94
                              363.33   369.77   385.08   402.70   444.12
                              469.67   543.37   577.01   643.37   723.11
                              777.25   836.91   852.16   887.33   927.11
                              969.25  1063.45  1078.20  1165.09  1177.64
                             1204.52  1241.90  1277.14  1284.20  1318.32
                             1334.96  1349.16  1359.10  1361.16  1409.34
                             1417.48  1450.18  1479.34  1509.27  1533.63
                             1558.95  1581.62  1632.89  1653.19  1674.05
                             1680.50  1712.05  1721.15  1727.08  1757.62
                             1774.82  1810.13  1842.27  1849.99  1881.15
                             1890.72  1919.52  1963.07  1963.81  1979.84
                             1994.42  2003.66  2018.58  2038.02  2054.52
                             2067.18  2074.38  2081.98  2090.75  2153.11
                             2181.48  2182.85  2184.84  2186.61  2189.79
                             2196.02  2197.85  2203.76  2208.43  2219.17
                             2229.62  2242.86  2251.46  2275.12  2298.32
                             2364.99  4318.60  4342.74  4350.75  4387.82
                             4388.36  4389.22  4394.64  4401.02  4406.29
                             4408.67  4461.59  4473.08  4473.60  4474.21
                             4477.04  4481.23  4483.94  4495.06  4505.69
                             4508.09  4540.89  4549.12  4562.71  5058.13

 Zero-point correction=                           0.375726 (Hartree/Particle)
 Thermal correction to Energy=                    0.394819
 Thermal correction to Enthalpy=                  0.395763
 Thermal correction to Gibbs Free Energy=         0.327832
 Sum of electronic and zero-point Energies=           -766.680266
 Sum of electronic and thermal Energies=              -766.661173
 Sum of electronic and thermal Enthalpies=            -766.660229
 Sum of electronic and thermal Free Energies=         -766.728160

                     E (Thermal)             CV                S
                      KCal/Mol        Cal/Mol-Kelvin    Cal/Mol-Kelvin
 Total                  247.752             71.456            142.972
 Electronic               0.000              0.000              0.000
 Translational            0.889              2.981             42.428
 Rotational               0.889              2.981             33.577
 Vibrational            245.975             65.494             66.968
 Vibration     1          0.593              1.985              6.205
 Vibration     2          0.594              1.983              5.704
 Vibration     3          0.597              1.973              4.407
 Vibration     4          0.598              1.969              4.172
 Vibration     5          0.602              1.957              3.684
 Vibration     6          0.604              1.949              3.455
 Vibration     7          0.615              1.913              2.805
 Vibration     8          0.620              1.896              2.599
 Vibration     9          0.627              1.875              2.401
 Vibration    10          0.629              1.868              2.334
 Vibration    11          0.630              1.866              2.321
 Vibration    12          0.634              1.853              2.226
 Vibration    13          0.647              1.812              1.966
 Vibration    14          0.652              1.794              1.874
 Vibration    15          0.660              1.772              1.769
 Vibration    16          0.664              1.759              1.713
 Vibration    17          0.667              1.751              1.682
 Vibration    18          0.673              1.733              1.611
 Vibration    19          0.680              1.711              1.534
 Vibration    20          0.698              1.657              1.369
 Vibration    21          0.710              1.623              1.278
 Vibration    22          0.748              1.518              1.049
 Vibration    23          0.767              1.468              0.959
 Vibration    24          0.806              1.367              0.804
 Vibration    25          0.858              1.244              0.652
 Vibration    26          0.895              1.161              0.565
 Vibration    27          0.938              1.071              0.482
 Vibration    28          0.950              1.048              0.463
 Vibration    29          0.976              0.997              0.422

                           ! Non-Optimized Parameters !
 Normal termination of Gaussian 16 at Fri Dec 11 19:54:10 2020.

 ----------------------------------------------------------------------
 # B3LYP/6-311++G(d,p) empiricaldispersion=gd3bj scf=xqc pop=npa geom=c
 heck
 ----------------------------------------------------------------------

 --------------------------------------
 CID_62914567_JID_8176_Energie_neutraal
 --------------------------------------
 Structure from the checkpoint file:  "JID_8176.chk"
 Charge =  0 Multiplicity = 1

 SCF Done:  E(RB3LYP) =  -767.260236571     A.U. after   15 cycles
 Normal termination of Gaussian 16 at Fri Dec 11 20:02:15 2020.

 ----------------------------------------------------------------------
 # B3LYP/6-311++G(d,p) empiricaldispersion=gd3bj scf=xqc pop=npa geom=c
 heck
 ----------------------------------------------------------------------

 ------------------------------------
 CID_62914567_JID_8176_Energie_kation
 ------------------------------------
 Structure from the checkpoint file:  "JID_8176.chk"
 Charge =  1 Multiplicity = 2

 SCF Done:  E(UB3LYP) =  -767.004531652     A.U. after   22 cycles
 Normal termination of Gaussian 16 at Fri Dec 11 20:18:49 2020.
 Gaussian 16:  ES64L-G16RevA.03 25-Dec-2016

 ----------------------------------------------------------------------
 # B3LYP/6-311++G(d,p) empiricaldispersion=gd3bj scf=xqc pop=npa geom=c
 heck
 ----------------------------------------------------------------------

 -----------------------------------
 CID_62914567_JID_8176_Energie_anion
 -----------------------------------
 Structure from the checkpoint file:  "JID_8176.chk"
 Charge = -1 Multiplicity = 2

                         Standard orientation:
 ---------------------------------------------------------------------
 Center     Atomic      Atomic             Coordinates (Angstroms)
 Number     Number       Type             X           Y           Z
 ---------------------------------------------------------------------
      1          6           0        3.051627    3.472055   -0.507324
      2          6           0        2.712795    1.989254   -0.622024
      3          7           0        1.661132    1.649523    0.344820
      4          6           0        0.861917    0.512025    0.188503
      5          7           0       -0.447926    0.808242    0.157998
      6          6           0       -1.308396   -0.211079    0.014242
      7          7           0       -0.971524   -1.501210   -0.178643
      8          6           0        0.334867   -1.783502   -0.115478
      9          6           0        1.339541   -0.819689    0.116123
     10          6           0        2.772666   -1.284330    0.355427
     11          6           0        3.633979   -1.334504   -0.923103
     12          6           0        3.474682   -0.578348    1.528869
     13          6           0        0.656315   -3.250907   -0.285741
     14          7           0       -2.633426    0.086323    0.036545
     15          6           0       -3.146477    1.438661    0.237774
     16          6           0       -4.652327    1.210843    0.432651
     17          6           0       -4.931683   -0.043070   -0.412171
     18          6           0       -3.682504   -0.906845   -0.185896
     19          1           0        2.184846    4.097330   -0.754077
     20          1           0        3.861733    3.734951   -1.194817
     21          1           0        3.370017    3.716014    0.511934
     22          1           0        2.401784    1.750550   -1.651334
     23          1           0        3.610462    1.404850   -0.414080
     24          1           0        1.015863    2.430142    0.440462
     25          1           0        2.686914   -2.327347    0.678981
     26          1           0        3.794825   -0.347978   -1.362810
     27          1           0        4.616927   -1.769393   -0.704447
     28          1           0        3.153470   -1.954958   -1.687490
     29          1           0        2.876951   -0.679867    2.441011
     30          1           0        4.451052   -1.044050    1.707868
     31          1           0        3.629722    0.488786    1.366490
     32          1           0        0.956471   -3.704762    0.667386
     33          1           0       -0.239996   -3.764692   -0.637405
     34          1           0        1.470865   -3.420101   -0.997079
     35          1           0       -2.938163    2.068455   -0.639511
     36          1           0       -2.663263    1.913061    1.096865
     37          1           0       -4.863789    1.005133    1.488823
     38          1           0       -5.248776    2.077562    0.133365
     39          1           0       -5.854146   -0.558948   -0.130320
     40          1           0       -5.008645    0.229493   -1.471632
     41          1           0       -3.792169   -1.560262    0.691475
     42          1           0       -3.432758   -1.547501   -1.035812
 ---------------------------------------------------------------------

 SCF Done:  E(UB3LYP) =  -767.246183184     A.U. after   33 cycles
 SCF Done:  E(UB3LYP) =  -767.246183184     a.u. after    1 cycles

 The electronic state is 2-A.
 Alpha  occ. eigenvalues --  -14.23451 -14.22401 -14.19821 -14.19633 -10.16478
 Alpha  occ. eigenvalues --  -10.15102 -10.12470 -10.11144 -10.10679 -10.10606
 Alpha  occ. eigenvalues --  -10.09085 -10.08205 -10.08168 -10.07737 -10.07707
 Alpha  occ. eigenvalues --  -10.07601 -10.06825 -10.06451  -0.90739  -0.85717
 Alpha  occ. eigenvalues --   -0.82588  -0.77354  -0.72825  -0.70192  -0.66539
 Alpha  occ. eigenvalues --   -0.65624  -0.64159  -0.61808  -0.59481  -0.56640
 Alpha  occ. eigenvalues --   -0.54133  -0.51933  -0.50384  -0.48975  -0.46966
 Alpha  occ. eigenvalues --   -0.44355  -0.43503  -0.40584  -0.39158  -0.38138
 Alpha  occ. eigenvalues --   -0.37485  -0.35967  -0.35015  -0.34493  -0.33555
 Alpha  occ. eigenvalues --   -0.33080  -0.32511  -0.31459  -0.31140  -0.30570
 Alpha  occ. eigenvalues --   -0.29817  -0.29470  -0.29176  -0.28867  -0.27663
 Alpha  occ. eigenvalues --   -0.27416  -0.27102  -0.26201  -0.25970  -0.25456
 Alpha  occ. eigenvalues --   -0.24400  -0.23686  -0.22253  -0.20568  -0.19166
 Alpha  occ. eigenvalues --   -0.15350  -0.14249  -0.10981   0.04029
 Alpha virt. eigenvalues --    0.05390   0.06034   0.06961   0.07386   0.07417
 Alpha virt. eigenvalues --    0.07516   0.08025   0.08758   0.09045   0.09310
 Alpha virt. eigenvalues --    0.09721   0.10083   0.10426   0.10628   0.11121

  Beta  occ. eigenvalues --  -14.23453 -14.22396 -14.19814 -14.19626 -10.16478
  Beta  occ. eigenvalues --  -10.15098 -10.12463 -10.11127 -10.10668 -10.10593
  Beta  occ. eigenvalues --  -10.09079 -10.08183 -10.08145 -10.07737 -10.07672
  Beta  occ. eigenvalues --  -10.07587 -10.06804 -10.06434  -0.90729  -0.85706
  Beta  occ. eigenvalues --   -0.82576  -0.77340  -0.72810  -0.70171  -0.66507
  Beta  occ. eigenvalues --   -0.65597  -0.64127  -0.61786  -0.59444  -0.56610
  Beta  occ. eigenvalues --   -0.54074  -0.51893  -0.50340  -0.48930  -0.46936
  Beta  occ. eigenvalues --   -0.44332  -0.43476  -0.40564  -0.39134  -0.38116
  Beta  occ. eigenvalues --   -0.37466  -0.35941  -0.34989  -0.34466  -0.33531
  Beta  occ. eigenvalues --   -0.33057  -0.32477  -0.31430  -0.31118  -0.30546
  Beta  occ. eigenvalues --   -0.29793  -0.29441  -0.29152  -0.28839  -0.27635
  Beta  occ. eigenvalues --   -0.27376  -0.27069  -0.26165  -0.25935  -0.25436
  Beta  occ. eigenvalues --   -0.24366  -0.23660  -0.22229  -0.20550  -0.19139
  Beta  occ. eigenvalues --   -0.15338  -0.14236  -0.10970
  Beta virt. eigenvalues --    0.05820   0.06242   0.06640   0.07073   0.07659
  Beta virt. eigenvalues --    0.07822   0.07994   0.08272   0.08957   0.09417
  Beta virt. eigenvalues --    0.09634   0.09962   0.10202   0.10635   0.10805

 Mulliken charges and spin densities:
               1          2
     1  C    1.196587  -1.817009
     2  C   -0.835369   0.730729
     3  N   -0.000698   0.094911
     4  C   -0.285052   0.093086
     5  N   -0.198197   0.028116
     6  C   -0.332656   0.138857
     7  N   -0.121302   0.070162
     8  C   -0.855995   0.738381
     9  C    1.713497  -1.329040
    10  C   -2.167673   2.102179
    11  C    0.207968  -0.875829
    12  C    0.018030  -0.618444
    13  C    0.606676  -1.172752
    14  N    0.026350   0.059437
    15  C    0.454366  -0.563281
    16  C    0.011816  -0.480359
    17  C    0.186286  -0.597784
    18  C    0.312882  -0.436722
    19  H   -0.180425   0.319187
    20  H   -0.309141   0.457182
    21  H   -0.105594   0.258365
    22  H   -0.078518   0.258198
    23  H    0.088814   0.051424
    24  H    0.266059   0.042851
    25  H    0.102315   0.080625
    26  H   -0.050902   0.169040
    27  H   -0.269662   0.421220
    28  H    0.004317   0.123711
    29  H   -0.002129   0.142008
    30  H   -0.177587   0.321572
    31  H    0.152972  -0.014928
    32  H    0.018525   0.153224
    33  H    0.086894   0.071387
    34  H   -0.004508   0.159250
    35  H   -0.023529   0.212727
    36  H   -0.019127   0.197902
    37  H    0.015968   0.126707
    38  H   -0.274429   0.440327
    39  H   -0.276319   0.437893
    40  H   -0.000574   0.142244
    41  H    0.025605   0.149633
    42  H    0.073461   0.113611
 Sum of Mulliken charges =  -1.00000   1.00000

 Dipole moment (field-independent basis, Debye):
    X=             -0.4513    Y=             -2.2952    Z=              1.0088  Tot=              2.5474
 Quadrupole moment (field-independent basis, Debye-Ang):
   XX=           -216.7987   YY=           -167.0834   ZZ=           -144.1193
   XY=             -1.7684   XZ=              2.8525   YZ=              3.3097

 Summary of Natural Population Analysis:

                                       Natural Population
                Natural  -----------------------------------------------
    Atom  No    Charge         Core      Valence    Rydberg      Total
 -----------------------------------------------------------------------
      C    1   -0.28661      0.99967     2.28276    0.00419     3.28661
      C    2   -0.08826      0.99962     2.07824    0.01041     3.08826
      N    3   -0.32325      0.99968     2.81301    0.01057     3.82325
      C    4    0.23083      0.99950     1.75562    0.01405     2.76917
      N    5   -0.29309      0.99964     2.78488    0.00857     3.79309
      C    6    0.31307      0.99957     1.67119    0.01617     2.68693
      N    7   -0.28747      0.99965     2.77840    0.00943     3.78747
      C    8    0.14099      0.99953     1.84666    0.01282     2.85901
      C    9   -0.09203      0.99940     2.08263    0.01000     3.09203
      C   10   -0.11996      0.99959     2.11040    0.00997     3.11996
      C   11   -0.28031      0.99964     2.27461    0.00606     3.28031
      C   12   -0.28170      0.99965     2.27593    0.00612     3.28170
      C   13   -0.30364      0.99963     2.29902    0.00499     3.30364
      N   14   -0.24516      0.99963     2.73590    0.00963     3.74516
      C   15   -0.07906      0.99963     2.06845    0.01098     3.07906
      C   16   -0.19523      0.99964     2.18747    0.00812     3.19523
      C   17   -0.19572      0.99964     2.18767    0.00841     3.19572
      C   18   -0.07736      0.99963     2.06899    0.00874     3.07736
      H   19    0.09697      0.00000     0.40154    0.00149     0.40303
      H   20    0.10404      0.00000     0.39474    0.00121     0.39596
      H   21    0.09964      0.00000     0.39909    0.00127     0.40036
      H   22    0.08631      0.00000     0.41222    0.00147     0.41369
      H   23    0.09182      0.00000     0.40607    0.00211     0.40818
      H   24    0.18532      0.00000     0.31074    0.00394     0.31468
      H   25    0.09830      0.00000     0.39914    0.00256     0.40170
      H   26    0.09734      0.00000     0.40123    0.00143     0.40266
      H   27    0.09686      0.00000     0.40216    0.00099     0.40314
      H   28    0.09822      0.00000     0.40075    0.00103     0.40178
      H   29    0.10019      0.00000     0.39890    0.00090     0.39981
      H   30    0.09640      0.00000     0.40279    0.00081     0.40360
      H   31    0.10206      0.00000     0.39675    0.00119     0.39794
      H   32    0.10512      0.00000     0.39368    0.00120     0.39488
      H   33    0.11132      0.00000     0.38752    0.00115     0.38868
      H   34    0.10418      0.00000     0.39478    0.00104     0.39582
      H   35    0.09355      0.00000     0.40503    0.00142     0.40645
      H   36    0.10302      0.00000     0.39557    0.00141     0.39698
      H   37    0.09603      0.00000     0.40274    0.00123     0.40397
      H   38    0.10299      0.00000     0.39579    0.00122     0.39701
      H   39    0.10220      0.00000     0.39662    0.00118     0.39780
      H   40    0.09659      0.00000     0.40215    0.00126     0.40341
      H   41    0.09149      0.00000     0.40700    0.00151     0.40851
      H   42    0.10400      0.00000     0.39438    0.00162     0.39600
 =======================================================================
   * Total *   -0.00000     17.99292    49.80321    0.20387    68.00000

 Normal termination of Gaussian 16 at Fri Dec 11 20:42:59 2020.
