 Gaussian 16, Revision A.03,

 -----------------------------------------------------------
 # opt freq B3LYP/6-31G(d) empiricaldispersion=gd3bj scf=xqc
 -----------------------------------------------------------

 -------------------------------
 CID_131212462_JID_2678_neutraal
 -------------------------------
 Symbolic Z-matrix:
 Charge =  0 Multiplicity = 1

 SCF Done:  E(RB3LYP) =  -621.361835526     A.U. after   15 cycles
 SCF Done:  E(RB3LYP) =  -621.368041304     A.U. after   13 cycles
 SCF Done:  E(RB3LYP) =  -621.370378536     A.U. after   13 cycles
 SCF Done:  E(RB3LYP) =  -621.372698037     A.U. after   13 cycles
 SCF Done:  E(RB3LYP) =  -621.373857534     A.U. after   12 cycles
 SCF Done:  E(RB3LYP) =  -621.374307231     A.U. after   12 cycles
 SCF Done:  E(RB3LYP) =  -621.374455437     A.U. after   11 cycles
 SCF Done:  E(RB3LYP) =  -621.374543157     A.U. after   11 cycles
 SCF Done:  E(RB3LYP) =  -621.374577227     A.U. after   11 cycles
 SCF Done:  E(RB3LYP) =  -621.374589555     A.U. after   10 cycles
 SCF Done:  E(RB3LYP) =  -621.374614018     A.U. after    8 cycles
 SCF Done:  E(RB3LYP) =  -621.374614845     A.U. after    8 cycles
 SCF Done:  E(RB3LYP) =  -621.374615161     A.U. after    8 cycles
 SCF Done:  E(RB3LYP) =  -621.374615355     A.U. after    8 cycles
 SCF Done:  E(RB3LYP) =  -621.374615403     A.U. after    7 cycles
 Optimization completed.
    -- Stationary point found.
 Normal termination of Gaussian 16 at Wed Dec  9 17:53:04 2020.

 --------------------------------------------------------------------
 #N Geom=AllCheck Guess=TCheck SCRF=Check GenChk RB3LYP/6-31G(d) Freq
 --------------------------------------------------------------------

 Structure from the checkpoint file:  "JID_2678.chk"
 -------------------------------
 CID_131212462_JID_2678_neutraal
 -------------------------------
 Charge =  0 Multiplicity = 1

 SCF Done:  E(RB3LYP) =  -621.374615403     A.U. after    1 cycles

  Exact polarizability: 110.686  -5.968  86.144  11.290   0.554  66.827
 Approx polarizability: 143.899 -19.461 131.663  21.422  -0.589 103.528

                      1                      2                      3
                      A                      A                      A
 Frequencies --     39.9003                54.5331                57.7201
 Red. masses --      3.9333                 5.3760                 7.3186
 Frc consts  --      0.0037                 0.0094                 0.0144
 IR Inten    --      0.5391                 2.6482                 4.3196

                      4                      5                      6
                      A                      A                      A
 Frequencies --     87.3232               104.0423               184.6703
 Red. masses --      4.7127                 3.3202                 5.1185
 Frc consts  --      0.0212                 0.0212                 0.1028
 IR Inten    --      1.0069                 6.9564                 4.1281

                      7                      8                      9
                      A                      A                      A
 Frequencies --    236.4227               271.8260               305.6338
 Red. masses --      2.3602                 1.8203                 2.3778
 Frc consts  --      0.0777                 0.0792                 0.1309
 IR Inten    --      8.1440                13.8528                18.1016

                     10                     11                     12
                      A                      A                      A
 Frequencies --    328.3469               386.6520               458.1264
 Red. masses --      2.5984                 5.4055                 3.4095
 Frc consts  --      0.1651                 0.4761                 0.4216
 IR Inten    --     14.7086                 2.6261                13.6588

                     13                     14                     15
                      A                      A                      A
 Frequencies --    490.1150               512.7746               550.3014
 Red. masses --      3.8480                 2.6486                 1.6483
 Frc consts  --      0.5446                 0.4103                 0.2941
 IR Inten    --      3.7850                10.8363                67.8404

                     16                     17                     18
                      A                      A                      A
 Frequencies --    556.6454               598.5354               635.1727
 Red. masses --      1.5374                 2.7517                 1.6699
 Frc consts  --      0.2807                 0.5808                 0.3969
 IR Inten    --    202.1526                25.3733                30.8844

                     19                     20                     21
                      A                      A                      A
 Frequencies --    720.6530               733.2724               768.0715
 Red. masses --      2.7139                 3.6974                 4.9223
 Frc consts  --      0.8304                 1.1713                 1.7109
 IR Inten    --     70.6462                15.8303                81.5440

                     22                     23                     24
                      A                      A                      A
 Frequencies --    780.0515               827.6574               869.9191
 Red. masses --      3.4305                 3.1259                 3.7137
 Frc consts  --      1.2298                 1.2616                 1.6558
 IR Inten    --     17.8319                31.9484                29.2214

                     25                     26                     27
                      A                      A                      A
 Frequencies --    889.9361               953.5100               993.2244
 Red. masses --      1.4253                 2.1819                 2.8641
 Frc consts  --      0.6651                 1.1688                 1.6647
 IR Inten    --     71.8743                37.3877                46.9622

                     28                     29                     30
                      A                      A                      A
 Frequencies --   1008.3645              1049.1540              1074.6185
 Red. masses --      1.8664                 2.0697                 2.2660
 Frc consts  --      1.1181                 1.3423                 1.5418
 IR Inten    --     39.9899                49.7487                50.1451

                     31                     32                     33
                      A                      A                      A
 Frequencies --   1080.3660              1118.6864              1129.7719
 Red. masses --      2.5316                 5.1808                 1.9887
 Frc consts  --      1.7409                 3.8200                 1.4955
 IR Inten    --     21.8464                 8.1103                37.1272

                     34                     35                     36
                      A                      A                      A
 Frequencies --   1177.9555              1187.7025              1266.1611
 Red. masses --      1.2400                 2.4310                 1.6947
 Frc consts  --      1.0137                 2.0204                 1.6007
 IR Inten    --      0.5144                 4.9533               133.4349

                     37                     38                     39
                      A                      A                      A
 Frequencies --   1281.2046              1315.9226              1346.9893
 Red. masses --      1.5780                 1.2427                 1.3992
 Frc consts  --      1.5261                 1.2678                 1.4957
 IR Inten    --     21.3100                 4.3235                11.2269

                     40                     41                     42
                      A                      A                      A
 Frequencies --   1362.5508              1379.5458              1390.9487
 Red. masses --      1.5258                 1.8486                 1.3701
 Frc consts  --      1.6689                 2.0728                 1.5617
 IR Inten    --     25.4145               131.4762                10.0108

                     43                     44                     45
                      A                      A                      A
 Frequencies --   1423.3648              1441.0666              1446.7433
 Red. masses --      1.4405                 1.5712                 1.7580
 Frc consts  --      1.7195                 1.9225                 2.1680
 IR Inten    --      1.1185                23.6375                44.5604

                     46                     47                     48
                      A                      A                      A
 Frequencies --   1506.6228              1513.7378              1525.8747
 Red. masses --      1.7148                 1.2028                 1.0864
 Frc consts  --      2.2933                 1.6239                 1.4903
 IR Inten    --     65.3596                 6.6399                 3.1548

                     49                     50                     51
                      A                      A                      A
 Frequencies --   1536.0335              1698.0952              1790.3940
 Red. masses --      1.0878                 1.0869                 8.1604
 Frc consts  --      1.5122                 1.8466                15.4120
 IR Inten    --      3.8829                35.1323               428.5927

                     52                     53                     54
                      A                      A                      A
 Frequencies --   1864.4032              3028.7734              3053.7807
 Red. masses --     10.2463                 1.0575                 1.0701
 Frc consts  --     20.9844                 5.7158                 5.8796
 IR Inten    --    486.4659                31.9267                21.6350

                     55                     56                     57
                      A                      A                      A
 Frequencies --   3066.1123              3085.0202              3144.2518
 Red. masses --      1.1059                 1.0870                 1.0969
 Frc consts  --      6.1258                 6.0953                 6.3896
 IR Inten    --     42.4359                49.3215                 9.5677

                     58                     59                     60
                      A                      A                      A
 Frequencies --   3471.7366              3472.3587              3556.0983
 Red. masses --      1.0761                 1.0498                 1.0932
 Frc consts  --      7.6419                 7.4577                 8.1449
 IR Inten    --      0.7314                 0.4652                 0.7968

                     61                     62                     63
                      A                      A                      A
 Frequencies --   3577.8596              3584.5241              3616.8839
 Red. masses --      1.0751                 1.0778                 1.0773
 Frc consts  --      8.1085                 8.1596                 8.3034
 IR Inten    --     23.7569                26.4364                28.3832

 - Thermochemistry -
 -------------------
 Temperature   298.150 Kelvin.  Pressure   1.00000 Atm.
 Atom     1 has atomic number  6 and mass  12.00000

 Molecular mass:   173.09127 amu.
 Principal axes and moments of inertia in atomic units:
                           1         2         3
     Eigenvalues --   875.401564006.193734547.16487
           X            0.99970   0.02424   0.00247
           Y           -0.02426   0.99968   0.00656
           Z           -0.00231  -0.00662   0.99998
 This molecule is an asymmetric top.
 Rotational symmetry number  1.
 Warning -- assumption of classical behavior for rotation
           may cause significant error
 Rotational temperatures (Kelvin)      0.09894     0.02162     0.01905
 Rotational constants (GHZ):           2.06162     0.45049     0.39689
 Zero-point vibrational energy     502244.4 (Joules/Mol)
                                  120.03930 (Kcal/Mol)
 Warning -- explicit consideration of  17 degrees of freedom as
           vibrations may cause significant error
 Vibrational temperatures:     57.41    78.46    83.05   125.64   149.69
          (Kelvin)            265.70   340.16   391.10   439.74   472.42
                              556.31   659.14   705.17   737.77   791.76
                              800.89   861.16   913.87  1036.86  1055.02
                             1105.08  1122.32  1190.81  1251.62  1280.42
                             1371.89  1429.03  1450.81  1509.50  1546.14
                             1554.41  1609.54  1625.49  1694.82  1708.84
                             1821.72  1843.37  1893.32  1938.02  1960.41
                             1984.86  2001.26  2047.90  2073.37  2081.54
                             2167.69  2177.93  2195.39  2210.01  2443.18
                             2575.98  2682.46  4357.73  4393.71  4411.45
                             4438.66  4523.88  4995.05  4995.95  5116.43
                             5147.74  5157.33  5203.89

 Zero-point correction=                           0.191295 (Hartree/Particle)
 Thermal correction to Energy=                    0.203123
 Thermal correction to Enthalpy=                  0.204067
 Thermal correction to Gibbs Free Energy=         0.151858
 Sum of electronic and zero-point Energies=           -621.183321
 Sum of electronic and thermal Energies=              -621.171493
 Sum of electronic and thermal Enthalpies=            -621.170548
 Sum of electronic and thermal Free Energies=         -621.222758

                     E (Thermal)             CV                S
                      KCal/Mol        Cal/Mol-Kelvin    Cal/Mol-Kelvin
 Total                  127.461             43.289            109.884
 Electronic               0.000              0.000              0.000
 Translational            0.889              2.981             41.353
 Rotational               0.889              2.981             31.145
 Vibrational            125.684             37.327             37.385
 Vibration     1          0.594              1.981              5.264
 Vibration     2          0.596              1.976              4.646
 Vibration     3          0.596              1.974              4.534
 Vibration     4          0.601              1.958              3.719
 Vibration     5          0.605              1.946              3.377
 Vibration     6          0.631              1.861              2.281
 Vibration     7          0.655              1.785              1.830
 Vibration     8          0.675              1.725              1.585
 Vibration     9          0.696              1.663              1.386
 Vibration    10          0.712              1.619              1.268
 Vibration    11          0.755              1.499              1.013
 Vibration    12          0.816              1.343              0.772
 Vibration    13          0.846              1.272              0.683
 Vibration    14          0.868              1.222              0.627
 Vibration    15          0.906              1.139              0.544
 Vibration    16          0.912              1.125              0.531
 Vibration    17          0.957              1.035              0.452

 Optimization completed.
    -- Stationary point found.
 Normal termination of Gaussian 16 at Wed Dec  9 17:59:11 2020.

 ----------------------------------------------------------------------
 # B3LYP/6-311++G(d,p) empiricaldispersion=gd3bj scf=xqc pop=npa geom=c
 heck
 ----------------------------------------------------------------------

 ---------------------------------------
 CID_131212462_JID_2678_Energie_neutraal
 ---------------------------------------
 Structure from the checkpoint file:  "JID_2678.chk"
 Charge =  0 Multiplicity = 1

 SCF Done:  E(RB3LYP) =  -621.580445228     A.U. after   14 cycles
 Normal termination of Gaussian 16 at Wed Dec  9 18:01:12 2020.

 ----------------------------------------------------------------------
 # B3LYP/6-311++G(d,p) empiricaldispersion=gd3bj scf=xqc pop=npa geom=c
 heck
 ----------------------------------------------------------------------

 -------------------------------------
 CID_131212462_JID_2678_Energie_kation
 -------------------------------------
 Structure from the checkpoint file:  "JID_2678.chk"
 Charge =  1 Multiplicity = 2

 SCF Done:  E(UB3LYP) =  -621.254013500     A.U. after   33 cycles
 SCF Done:  E(UB3LYP) =  -621.254013500     a.u. after    1 cycles
 Normal termination of Gaussian 16 at Wed Dec  9 18:06:59 2020.
 Gaussian 16:  ES64L-G16RevA.03 25-Dec-2016

 ----------------------------------------------------------------------
 # B3LYP/6-311++G(d,p) empiricaldispersion=gd3bj scf=xqc pop=npa geom=c
 heck
 ----------------------------------------------------------------------

 ------------------------------------
 CID_131212462_JID_2678_Energie_anion
 ------------------------------------
 Structure from the checkpoint file:  "JID_2678.chk"
 Charge = -1 Multiplicity = 2

                         Standard orientation:
 ---------------------------------------------------------------------
 Center     Atomic      Atomic             Coordinates (Angstroms)
 Number     Number       Type             X           Y           Z
 ---------------------------------------------------------------------
      1          6           0        0.178821    0.310203   -0.478663
      2          6           0       -0.779904   -0.105426    0.644793
      3          7           0       -1.913725    0.801883    0.794159
      4          6           0       -2.947715    0.352807   -0.025312
      5          8           0       -3.867725    0.997812   -0.483234
      6          7           0       -2.722435   -1.022183   -0.211850
      7          7           0       -1.437407   -1.391771    0.311901
      8          7           0        1.253310   -0.650530   -0.638188
      9          6           0        2.494157   -0.623328   -0.056532
     10          8           0        3.211225   -1.615837   -0.036730
     11          6           0        2.975224    0.695550    0.558414
     12          7           0        2.830696    1.834812   -0.356539
     13          1           0        0.613655    1.294977   -0.296658
     14          1           0       -0.389719    0.371190   -1.415279
     15          1           0       -0.224376   -0.227224    1.580466
     16          1           0       -1.769157    1.803457    0.796914
     17          1           0       -2.891205   -1.352975   -1.154989
     18          1           0       -1.632475   -1.882024    1.183962
     19          1           0        0.969973   -1.583719   -0.917315
     20          1           0        2.375114    0.905878    1.455051
     21          1           0        4.001540    0.493866    0.892075
     22          1           0        3.219315    2.669326    0.079079
     23          1           0        3.382755    1.667138   -1.196182
 ---------------------------------------------------------------------

 SCF Done:  E(UB3LYP) =  -621.576599592     A.U. after   31 cycles

 The electronic state is 2-A.
 Alpha  occ. eigenvalues --  -19.00671 -18.98601 -14.26776 -14.26036 -14.24553
 Alpha  occ. eigenvalues --  -14.23562 -14.19584 -10.21028 -10.16894 -10.15471
 Alpha  occ. eigenvalues --  -10.10931 -10.09735  -0.98010  -0.93729  -0.92046
 Alpha  occ. eigenvalues --   -0.82878  -0.81589  -0.78277  -0.73125  -0.63654
 Alpha  occ. eigenvalues --   -0.59584  -0.54529  -0.53618  -0.47921  -0.45421
 Alpha  occ. eigenvalues --   -0.42858  -0.40759  -0.40166  -0.38410  -0.37710
 Alpha  occ. eigenvalues --   -0.36629  -0.34322  -0.33840  -0.32506  -0.32087
 Alpha  occ. eigenvalues --   -0.31327  -0.29656  -0.28714  -0.26588  -0.23493
 Alpha  occ. eigenvalues --   -0.19842  -0.17964  -0.16724  -0.15632  -0.14952
 Alpha  occ. eigenvalues --   -0.14789   0.04003
 Alpha virt. eigenvalues --    0.06487   0.07106   0.08215   0.09440   0.10058
 Alpha virt. eigenvalues --    0.10565   0.11367   0.11378   0.11693   0.12153
 Alpha virt. eigenvalues --    0.13589   0.14226   0.14513   0.15526   0.16788

  Beta  occ. eigenvalues --  -19.00669 -18.98570 -14.26759 -14.26012 -14.24526
  Beta  occ. eigenvalues --  -14.23551 -14.19513 -10.21029 -10.16869 -10.15447
  Beta  occ. eigenvalues --  -10.10911 -10.09700  -0.97994  -0.93672  -0.92028
  Beta  occ. eigenvalues --   -0.82842  -0.81545  -0.78160  -0.73071  -0.63594
  Beta  occ. eigenvalues --   -0.59439  -0.54467  -0.53572  -0.47863  -0.45348
  Beta  occ. eigenvalues --   -0.42821  -0.40682  -0.40120  -0.38353  -0.37661
  Beta  occ. eigenvalues --   -0.36517  -0.34298  -0.33792  -0.32453  -0.32015
  Beta  occ. eigenvalues --   -0.31260  -0.29590  -0.28668  -0.26484  -0.23466
  Beta  occ. eigenvalues --   -0.19813  -0.17932  -0.16685  -0.15591  -0.14892
  Beta  occ. eigenvalues --   -0.14723
  Beta virt. eigenvalues --    0.06590   0.07607   0.07831   0.09008   0.10033
  Beta virt. eigenvalues --    0.10394   0.10927   0.11581   0.11777   0.12243
  Beta virt. eigenvalues --    0.12512   0.13874   0.14367   0.14786   0.15725

 Mulliken charges and spin densities:
               1          2
     1  C   -0.786052   0.668106
     2  C    0.822526  -1.962212
     3  N   -0.162689   0.142001
     4  C    0.516353  -0.303372
     5  O   -0.399316   0.023303
     6  N   -0.258780   0.203827
     7  N   -0.005553  -0.115569
     8  N   -0.172714   0.051170
     9  C   -0.419477   0.522780
    10  O   -0.366409   0.018747
    11  C    1.429602  -1.820507
    12  N   -0.386134   0.014754
    13  H    0.507723  -0.226753
    14  H   -0.213280   0.391570
    15  H   -0.373945   0.651627
    16  H   -0.072565   0.372088
    17  H    0.173768   0.099003
    18  H   -0.101432   0.383511
    19  H    0.285529   0.032522
    20  H   -0.532730   0.715248
    21  H   -0.024021   0.202250
    22  H   -0.448911   0.703076
    23  H   -0.011493   0.232831
 Sum of Mulliken charges =  -1.00000   1.00000

 Dipole moment (field-independent basis, Debye):
    X=             -3.2104    Y=             -3.6369    Z=             -2.7760  Tot=              5.5893
 Quadrupole moment (field-independent basis, Debye-Ang):
   XX=           -146.9108   YY=           -115.1026   ZZ=            -96.6928
   XY=             -0.8130   XZ=             -3.0460   YZ=             -0.7321

 Summary of Natural Population Analysis:

                                       Natural Population
                Natural  -----------------------------------------------
    Atom  No    Charge         Core      Valence    Rydberg      Total
 -----------------------------------------------------------------------
      C    1   -0.10968      0.99957     2.09683    0.01327     3.10968
      C    2    0.07838      0.99962     1.90741    0.01460     2.92162
      N    3   -0.33887      0.99968     2.82805    0.01115     3.83887
      C    4    0.39942      0.99971     1.57717    0.02370     2.60058
      O    5   -0.32104      0.99987     3.31513    0.00604     4.32104
      N    6   -0.25392      0.99969     2.74137    0.01286     3.75392
      N    7   -0.24743      0.99975     2.73358    0.01410     3.74743
      N    8   -0.31684      0.99967     2.80777    0.00941     3.81684
      C    9    0.34208      0.99968     1.63476    0.02349     2.65792
      O   10   -0.32207      0.99988     3.31606    0.00614     4.32207
      C   11   -0.13232      0.99961     2.12110    0.01162     3.13232
      N   12   -0.42423      0.99978     2.91295    0.01151     3.92423
      H   13    0.12588      0.00000     0.37140    0.00272     0.37412
      H   14    0.09456      0.00000     0.40392    0.00152     0.40544
      H   15    0.10066      0.00000     0.39611    0.00323     0.39934
      H   16    0.20356      0.00000     0.29377    0.00267     0.29644
      H   17    0.19102      0.00000     0.30703    0.00195     0.30898
      H   18    0.17801      0.00000     0.31902    0.00297     0.32199
      H   19    0.19479      0.00000     0.30232    0.00288     0.30521
      H   20    0.10311      0.00000     0.39342    0.00347     0.39689
      H   21    0.09503      0.00000     0.40344    0.00153     0.40497
      H   22    0.18491      0.00000     0.30559    0.00951     0.31509
      H   23    0.17500      0.00000     0.32282    0.00218     0.32500
 =======================================================================
   * Total *   -0.00000     11.99649    33.81100    0.19251    46.00000

 Normal termination of Gaussian 16 at Wed Dec  9 18:13:02 2020.
