 Gaussian 16, Revision A.03,

 -----------------------------------------------------------
 # opt freq B3LYP/6-31G(d) empiricaldispersion=gd3bj scf=xqc
 -----------------------------------------------------------

 -----------------------------
 CID_81186885_JID_191_neutraal
 -----------------------------
 Symbolic Z-matrix:
 Charge =  0 Multiplicity = 1

 SCF Done:  E(RB3LYP) =  -805.136670063     A.U. after   14 cycles
 SCF Done:  E(RB3LYP) =  -805.140576405     A.U. after   11 cycles
 SCF Done:  E(RB3LYP) =  -805.141405775     A.U. after   12 cycles
 SCF Done:  E(RB3LYP) =  -805.142087635     A.U. after   12 cycles
 SCF Done:  E(RB3LYP) =  -805.142317146     A.U. after   12 cycles
 SCF Done:  E(RB3LYP) =  -805.142401107     A.U. after   11 cycles
 SCF Done:  E(RB3LYP) =  -805.142428894     A.U. after   10 cycles
 SCF Done:  E(RB3LYP) =  -805.142438630     A.U. after   10 cycles
 SCF Done:  E(RB3LYP) =  -805.142439245     A.U. after    8 cycles
 SCF Done:  E(RB3LYP) =  -805.142439351     A.U. after    7 cycles
 SCF Done:  E(RB3LYP) =  -805.142439373     A.U. after    6 cycles
 Optimization completed.
    -- Stationary point found.
 Normal termination of Gaussian 16 at Tue Dec  8 10:20:12 2020.

 --------------------------------------------------------------------
 #N Geom=AllCheck Guess=TCheck SCRF=Check GenChk RB3LYP/6-31G(d) Freq
 --------------------------------------------------------------------

 Structure from the checkpoint file:  "JID_191.chk"
 -----------------------------
 CID_81186885_JID_191_neutraal
 -----------------------------
 Charge =  0 Multiplicity = 1

 SCF Done:  E(RB3LYP) =  -805.142439373     A.U. after    1 cycles

  Exact polarizability: 117.378  -1.909 102.242  -1.128   1.358  87.928
 Approx polarizability: 150.068  -5.619 151.166   1.218  11.149 139.924

                      1                      2                      3
                      A                      A                      A
 Frequencies --     16.3464                50.4111                60.1421
 Red. masses --      3.4574                 3.5664                 3.1211
 Frc consts  --      0.0005                 0.0053                 0.0067
 IR Inten    --      0.9597                 0.1772                 1.4376

                      4                      5                      6
                      A                      A                      A
 Frequencies --    134.6760               147.8481               174.3269
 Red. masses --      3.6565                 2.4672                 2.2089
 Frc consts  --      0.0391                 0.0318                 0.0396
 IR Inten    --      6.2147                 0.7460                 2.1416

                      7                      8                      9
                      A                      A                      A
 Frequencies --    195.4430               209.2413               236.0462
 Red. masses --      1.7126                 2.9431                 1.9554
 Frc consts  --      0.0385                 0.0759                 0.0642
 IR Inten    --     10.3614                 2.2201                12.2466

                     10                     11                     12
                      A                      A                      A
 Frequencies --    254.1947               269.6565               275.0374
 Red. masses --      1.4075                 1.3067                 1.3899
 Frc consts  --      0.0536                 0.0560                 0.0619
 IR Inten    --     11.1475                29.1727                 5.4001

                     13                     14                     15
                      A                      A                      A
 Frequencies --    330.0800               362.5939               404.5983
 Red. masses --      2.2934                 2.3237                 3.8782
 Frc consts  --      0.1472                 0.1800                 0.3740
 IR Inten    --      1.2055                 2.4400                 4.5230

                     16                     17                     18
                      A                      A                      A
 Frequencies --    417.6042               486.1933               506.6986
 Red. masses --      2.9361                 2.6874                 3.0776
 Frc consts  --      0.3017                 0.3743                 0.4655
 IR Inten    --      2.1905                 0.3674                 6.6117

                     19                     20                     21
                      A                      A                      A
 Frequencies --    595.4045               637.4292               760.0175
 Red. masses --      4.1040                 2.9435                 1.2822
 Frc consts  --      0.8572                 0.7047                 0.4364
 IR Inten    --      6.1721                14.5708                 4.3914

                     22                     23                     24
                      A                      A                      A
 Frequencies --    818.7794               847.0746               888.0266
 Red. masses --      2.2573                 1.2656                 1.7139
 Frc consts  --      0.8916                 0.5351                 0.7963
 IR Inten    --      1.1924               134.2240                 3.3418

                     25                     26                     27
                      A                      A                      A
 Frequencies --    891.5196               933.3092               949.4182
 Red. masses --      1.5156                 1.8190                 1.2769
 Frc consts  --      0.7097                 0.9336                 0.6781
 IR Inten    --      9.9518                 4.3061                17.2920

                     28                     29                     30
                      A                      A                      A
 Frequencies --    991.0868              1051.6757              1053.9958
 Red. masses --      1.7441                 2.1984                 4.0993
 Frc consts  --      1.0094                 1.4326                 2.6831
 IR Inten    --      1.2001                16.5195                67.7385

                     31                     32                     33
                      A                      A                      A
 Frequencies --   1080.9318              1087.2280              1098.1124
 Red. masses --      2.2211                 1.8022                 1.5012
 Frc consts  --      1.5290                 1.2551                 1.0666
 IR Inten    --     26.6820                 2.9556                 1.3701

                     34                     35                     36
                      A                      A                      A
 Frequencies --   1102.9963              1129.0938              1160.8476
 Red. masses --      1.7090                 1.9595                 2.0723
 Frc consts  --      1.2250                 1.4718                 1.6453
 IR Inten    --      4.6119                 5.0904                 4.7566

                     37                     38                     39
                      A                      A                      A
 Frequencies --   1193.4936              1209.7065              1261.2414
 Red. masses --      1.2476                 1.3734                 1.4001
 Frc consts  --      1.0471                 1.1842                 1.3122
 IR Inten    --      1.6180                 0.9180                 1.4191

                     40                     41                     42
                      A                      A                      A
 Frequencies --   1294.5972              1321.8204              1334.4446
 Red. masses --      1.4366                 1.2504                 1.2588
 Frc consts  --      1.4186                 1.2872                 1.3208
 IR Inten    --      3.9830                 1.8243                 7.9209

                     43                     44                     45
                      A                      A                      A
 Frequencies --   1339.1939              1356.9034              1400.2693
 Red. masses --      1.1812                 1.2039                 1.3265
 Frc consts  --      1.2481                 1.3060                 1.5324
 IR Inten    --      2.0991                 6.6287                 3.6721

                     46                     47                     48
                      A                      A                      A
 Frequencies --   1403.9471              1430.0292              1443.4017
 Red. masses --      1.4551                 1.2541                 1.2694
 Frc consts  --      1.6899                 1.5110                 1.5582
 IR Inten    --      2.2813                 4.4835                 5.3051

                     49                     50                     51
                      A                      A                      A
 Frequencies --   1447.8393              1480.4031              1514.7475
 Red. masses --      1.4246                 1.0909                 1.0786
 Frc consts  --      1.7595                 1.4087                 1.4581
 IR Inten    --     16.5144                 6.1710                 3.0723

                     52                     53                     54
                      A                      A                      A
 Frequencies --   1522.3462              1527.1621              1532.4570
 Red. masses --      1.0604                 1.0513                 1.0570
 Frc consts  --      1.4480                 1.4445                 1.4625
 IR Inten    --      3.1453                 4.5765                 6.0222

                     55                     56                     57
                      A                      A                      A
 Frequencies --   1535.9943              1540.2158              1546.4311
 Red. masses --      1.0466                 1.0627                 1.0767
 Frc consts  --      1.4549                 1.4854                 1.5171
 IR Inten    --     10.9600                 3.1161                 4.8123

                     58                     59                     60
                      A                      A                      A
 Frequencies --   1696.7436              2959.3625              3039.9797
 Red. masses --      1.0883                 1.0729                 1.0465
 Frc consts  --      1.8461                 5.5363                 5.6983
 IR Inten    --     32.7179                64.6643                24.2699

                     61                     62                     63
                      A                      A                      A
 Frequencies --   3041.8162              3051.3451              3053.0871
 Red. masses --      1.0577                 1.0602                 1.0372
 Frc consts  --      5.7659                 5.8161                 5.6964
 IR Inten    --     15.8400                21.4251                17.1504

                     64                     65                     66
                      A                      A                      A
 Frequencies --   3062.4904              3078.0291              3080.7753
 Red. masses --      1.0849                 1.0875                 1.0756
 Frc consts  --      5.9951                 6.0704                 6.0149
 IR Inten    --     41.0631                 6.6851                 2.4890

                     67                     68                     69
                      A                      A                      A
 Frequencies --   3081.0701              3094.7943              3105.7552
 Red. masses --      1.0827                 1.0953                 1.1028
 Frc consts  --      6.0558                 6.1810                 6.2670
 IR Inten    --     10.8697                16.7418                86.0723

                     70                     71                     72
                      A                      A                      A
 Frequencies --   3116.6358              3119.1369              3136.0242
 Red. masses --      1.1007                 1.1016                 1.1025
 Frc consts  --      6.2992                 6.3147                 6.3882
 IR Inten    --     39.4582                27.1872                 8.3059

                     73                     74                     75
                      A                      A                      A
 Frequencies --   3141.3581              3479.7600              3566.3826
 Red. masses --      1.1063                 1.0497                 1.0931
 Frc consts  --      6.4325                 7.4887                 8.1916
 IR Inten    --     10.4242                 0.4685                 0.1349

 - Thermochemistry -
 -------------------
 Temperature   298.150 Kelvin.  Pressure   1.00000 Atm.
 Atom     1 has atomic number  6 and mass  12.00000

 Molecular mass:   163.10309 amu.
 Principal axes and moments of inertia in atomic units:
                           1         2         3
     Eigenvalues --  1313.964762276.719032957.56970
           X            0.99981   0.01521  -0.01191
           Y           -0.01555   0.99947  -0.02868
           Z            0.01147   0.02886   0.99952
 This molecule is an asymmetric top.
 Rotational symmetry number  1.
 Warning -- assumption of classical behavior for rotation
           may cause significant error
 Rotational temperatures (Kelvin)      0.06592     0.03804     0.02929
 Rotational constants (GHZ):           1.37351     0.79269     0.61021
 Zero-point vibrational energy     634913.7 (Joules/Mol)
                                  151.74801 (Kcal/Mol)
 Warning -- explicit consideration of  19 degrees of freedom as
           vibrations may cause significant error
 Vibrational temperatures:     23.52    72.53    86.53   193.77   212.72
          (Kelvin)            250.82   281.20   301.05   339.62   365.73
                              387.98   395.72   474.91   521.69   582.13
                              600.84   699.52   729.03   856.65   917.12
                             1093.50  1178.04  1218.75  1277.67  1282.70
                             1342.82  1366.00  1425.95  1513.13  1516.46
                             1555.22  1564.28  1579.94  1586.97  1624.51
                             1670.20  1717.17  1740.50  1814.65  1862.64
                             1901.80  1919.97  1926.80  1952.28  2014.68
                             2019.97  2057.49  2076.73  2083.12  2129.97
                             2179.38  2190.32  2197.25  2204.86  2209.95
                             2216.03  2224.97  2441.24  4257.86  4373.85
                             4376.50  4390.21  4392.71  4406.24  4428.60
                             4432.55  4432.97  4452.72  4468.49  4484.14
                             4487.74  4512.04  4519.71  5006.60  5131.23

 Zero-point correction=                           0.241826 (Hartree/Particle)
 Thermal correction to Energy=                    0.255077
 Thermal correction to Enthalpy=                  0.256021
 Thermal correction to Gibbs Free Energy=         0.201160
 Sum of electronic and zero-point Energies=           -804.900614
 Sum of electronic and thermal Energies=              -804.887363
 Sum of electronic and thermal Enthalpies=            -804.886418
 Sum of electronic and thermal Free Energies=         -804.941279

                     E (Thermal)             CV                S
                      KCal/Mol        Cal/Mol-Kelvin    Cal/Mol-Kelvin
 Total                  160.063             47.655            115.463
 Electronic               0.000              0.000              0.000
 Translational            0.889              2.981             41.176
 Rotational               0.889              2.981             30.560
 Vibrational            158.286             41.693             43.727
 Vibration     1          0.593              1.986              7.035
 Vibration     2          0.595              1.977              4.801
 Vibration     3          0.597              1.973              4.453
 Vibration     4          0.613              1.919              2.878
 Vibration     5          0.617              1.905              2.700
 Vibration     6          0.627              1.874              2.388
 Vibration     7          0.636              1.846              2.176
 Vibration     8          0.642              1.827              2.050
 Vibration     9          0.655              1.786              1.832
 Vibration    10          0.665              1.756              1.701
 Vibration    11          0.674              1.729              1.598
 Vibration    12          0.677              1.719              1.564
 Vibration    13          0.713              1.615              1.260
 Vibration    14          0.736              1.549              1.111
 Vibration    15          0.770              1.460              0.946
 Vibration    16          0.781              1.432              0.900
 Vibration    17          0.842              1.281              0.694
 Vibration    18          0.862              1.235              0.642
 Vibration    19          0.953              1.042              0.458

                           ! Non-Optimized Parameters !
 Normal termination of Gaussian 16 at Tue Dec  8 10:25:12 2020.

 ----------------------------------------------------------------------
 # B3LYP/6-311++G(d,p) empiricaldispersion=gd3bj scf=xqc pop=npa geom=c
 heck
 ----------------------------------------------------------------------

 -------------------------------------
 CID_81186885_JID_191_Energie_neutraal
 -------------------------------------
 Structure from the checkpoint file:  "JID_191.chk"
 Charge =  0 Multiplicity = 1

 SCF Done:  E(RB3LYP) =  -805.300528393     A.U. after   14 cycles
 Normal termination of Gaussian 16 at Tue Dec  8 10:27:38 2020.

 ----------------------------------------------------------------------
 # B3LYP/6-311++G(d,p) empiricaldispersion=gd3bj scf=xqc pop=npa geom=c
 heck
 ----------------------------------------------------------------------

 -----------------------------------
 CID_81186885_JID_191_Energie_kation
 -----------------------------------
 Structure from the checkpoint file:  "JID_191.chk"
 Charge =  1 Multiplicity = 2

 SCF Done:  E(UB3LYP) =  -804.995477844     A.U. after   22 cycles
 Normal termination of Gaussian 16 at Tue Dec  8 10:33:28 2020.
 Gaussian 16:  ES64L-G16RevA.03 25-Dec-2016

 ----------------------------------------------------------------------
 # B3LYP/6-311++G(d,p) empiricaldispersion=gd3bj scf=xqc pop=npa geom=c
 heck
 ----------------------------------------------------------------------

 ----------------------------------
 CID_81186885_JID_191_Energie_anion
 ----------------------------------
 Structure from the checkpoint file:  "JID_191.chk"
 Charge = -1 Multiplicity = 2

                         Standard orientation:
 ---------------------------------------------------------------------
 Center     Atomic      Atomic             Coordinates (Angstroms)
 Number     Number       Type             X           Y           Z
 ---------------------------------------------------------------------
      1          6           0        2.826987    1.487251    0.197445
      2          6           0        2.887000    0.029433   -0.268984
      3          6           0        2.137144   -0.954909    0.643110
      4          6           0        0.670028   -0.601800    0.900199
      5         16           0       -0.265321   -0.598778   -0.687186
      6          8           0       -0.457287   -2.058107   -1.063482
      7          6           0       -1.914989    0.014939   -0.057499
      8          6           0       -2.501117   -0.941765    0.972761
      9          6           0       -1.833792    1.470348    0.404976
     10          7           0       -1.397465    2.354906   -0.677017
     11          1           0        3.160717    1.588161    1.237826
     12          1           0        1.809321    1.892411    0.136629
     13          1           0        3.466697    2.124547   -0.422209
     14          1           0        2.492206   -0.040608   -1.289958
     15          1           0        3.934653   -0.290460   -0.327087
     16          1           0        2.180474   -1.961355    0.211277
     17          1           0        2.641469   -1.006568    1.617448
     18          1           0        0.197063   -1.351165    1.541584
     19          1           0        0.567151    0.381884    1.367641
     20          1           0       -2.508347   -0.016152   -0.978259
     21          1           0       -2.042815   -0.807955    1.958674
     22          1           0       -3.578310   -0.771814    1.077679
     23          1           0       -2.343641   -1.974980    0.647764
     24          1           0       -2.846459    1.775716    0.696834
     25          1           0       -1.223363    1.528378    1.324156
     26          1           0       -1.410521    3.322414   -0.361958
     27          1           0       -0.438174    2.147519   -0.948141
 ---------------------------------------------------------------------

 SCF Done:  E(UB3LYP) =  -805.290371021     A.U. after   27 cycles

 The electronic state is 2-A.
 Alpha  occ. eigenvalues --  -88.83697 -18.97864 -14.19544 -10.10530 -10.10172
 Alpha  occ. eigenvalues --  -10.09638 -10.07847 -10.07193 -10.07188 -10.05844
 Alpha  occ. eigenvalues --   -7.91499  -5.87766  -5.87626  -5.87078  -0.90618
 Alpha  occ. eigenvalues --   -0.79084  -0.71913  -0.69660  -0.64530  -0.59027
 Alpha  occ. eigenvalues --   -0.57324  -0.53983  -0.48810  -0.45072  -0.40134
 Alpha  occ. eigenvalues --   -0.38971  -0.37914  -0.37317  -0.35037  -0.33347
 Alpha  occ. eigenvalues --   -0.32342  -0.31734  -0.30004  -0.29160  -0.28831
 Alpha  occ. eigenvalues --   -0.28752  -0.26204  -0.25619  -0.25371  -0.24078
 Alpha  occ. eigenvalues --   -0.23666  -0.23393  -0.16507  -0.14869  -0.12873
 Alpha  occ. eigenvalues --    0.04320
 Alpha virt. eigenvalues --    0.06726   0.07111   0.08122   0.09187   0.09671
 Alpha virt. eigenvalues --    0.09981   0.10697   0.11224   0.11784   0.11906
 Alpha virt. eigenvalues --    0.12671   0.13072   0.13161   0.13750   0.14670

  Beta  occ. eigenvalues --  -88.83694 -18.97854 -14.19503 -10.10523 -10.10132
  Beta  occ. eigenvalues --  -10.09613 -10.07834 -10.07177 -10.07175 -10.05793
  Beta  occ. eigenvalues --   -7.91495  -5.87764  -5.87620  -5.87075  -0.90601
  Beta  occ. eigenvalues --   -0.79015  -0.71878  -0.69620  -0.64486  -0.58981
  Beta  occ. eigenvalues --   -0.57239  -0.53904  -0.48746  -0.45011  -0.40093
  Beta  occ. eigenvalues --   -0.38925  -0.37882  -0.37239  -0.35006  -0.33292
  Beta  occ. eigenvalues --   -0.32299  -0.31691  -0.29955  -0.29114  -0.28785
  Beta  occ. eigenvalues --   -0.28708  -0.26177  -0.25590  -0.25336  -0.24031
  Beta  occ. eigenvalues --   -0.23634  -0.23359  -0.16470  -0.14821  -0.12849
  Beta virt. eigenvalues --    0.06879   0.07534   0.07925   0.08714   0.09710
  Beta virt. eigenvalues --    0.10111   0.10357   0.11149   0.11573   0.11985
  Beta virt. eigenvalues --    0.12256   0.13033   0.13413   0.13493   0.14082

 Mulliken charges and spin densities:
               1          2
     1  C    1.377132  -1.965336
     2  C   -1.425465   1.353557
     3  C    1.499114  -1.956532
     4  C   -1.141106   0.628293
     5  S    0.924906  -0.356001
     6  O   -0.469848   0.011717
     7  C   -1.479821   1.524625
     8  C    0.240617  -0.859493
     9  C    1.839468  -2.447802
    10  N   -0.442210   0.096799
    11  H   -0.370508   0.517479
    12  H   -0.117265   0.267313
    13  H   -0.408867   0.548099
    14  H    0.113059   0.028149
    15  H   -0.072826   0.232645
    16  H    0.160037   0.004987
    17  H   -0.363855   0.527983
    18  H    0.157949   0.104990
    19  H    0.105730   0.030693
    20  H    0.167052   0.105339
    21  H   -0.176250   0.339101
    22  H   -0.173069   0.322483
    23  H    0.217962  -0.036014
    24  H   -0.457334   0.644935
    25  H   -0.629669   0.786679
    26  H   -0.194792   0.448042
    27  H    0.119857   0.097271
 Sum of Mulliken charges =  -1.00000   1.00000

 Dipole moment (field-independent basis, Debye):
    X=             -0.2559    Y=             -4.8437    Z=             -2.3493  Tot=              5.3895
 Quadrupole moment (field-independent basis, Debye-Ang):
   XX=           -126.5551   YY=           -127.4586   ZZ=           -109.0537
   XY=              0.2857   XZ=             -2.9233   YZ=             -8.2080

 Summary of Natural Population Analysis:

                                       Natural Population
                Natural  -----------------------------------------------
    Atom  No    Charge         Core      Valence    Rydberg      Total
 -----------------------------------------------------------------------
      C    1   -0.28829      0.99967     2.28275    0.00587     3.28829
      C    2   -0.19446      0.99964     2.18566    0.00916     3.19446
      C    3   -0.19698      0.99962     2.18762    0.00974     3.19698
      C    4   -0.28332      0.99959     2.27114    0.01259     3.28332
      S    5    0.57988      4.99940     2.37028    0.05045     7.42012
      O    6   -0.49058      0.99993     3.48487    0.00577     4.49058
      C    7   -0.18701      0.99956     2.17230    0.01514     3.18701
      C    8   -0.29887      0.99963     2.29266    0.00658     3.29887
      C    9   -0.09716      0.99959     2.08438    0.01319     3.09716
      N   10   -0.42368      0.99977     2.91232    0.01159     3.92368
      H   11    0.09933      0.00000     0.39868    0.00199     0.40067
      H   12    0.09502      0.00000     0.40290    0.00208     0.40498
      H   13    0.10054      0.00000     0.39829    0.00118     0.39946
      H   14    0.09584      0.00000     0.40288    0.00129     0.40416
      H   15    0.09614      0.00000     0.40292    0.00094     0.40386
      H   16    0.10371      0.00000     0.39516    0.00113     0.39629
      H   17    0.10181      0.00000     0.39703    0.00116     0.39819
      H   18    0.11065      0.00000     0.38811    0.00125     0.38935
      H   19    0.11099      0.00000     0.38622    0.00279     0.38901
      H   20    0.10825      0.00000     0.39024    0.00151     0.39175
      H   21    0.10123      0.00000     0.39773    0.00104     0.39877
      H   22    0.10416      0.00000     0.39495    0.00089     0.39584
      H   23    0.11365      0.00000     0.38535    0.00100     0.38635
      H   24    0.09921      0.00000     0.39847    0.00232     0.40079
      H   25    0.08493      0.00000     0.41128    0.00379     0.41507
      H   26    0.18177      0.00000     0.31535    0.00288     0.31823
      H   27    0.17326      0.00000     0.32354    0.00320     0.32674
 =======================================================================
   * Total *   -0.00000     13.99639    30.83307    0.17054    45.00000

 Normal termination of Gaussian 16 at Tue Dec  8 10:42:04 2020.
