 Gaussian 16, Revision A.03,

 -----------------------------------------------------------
 # opt freq B3LYP/6-31G(d) empiricaldispersion=gd3bj scf=xqc
 -----------------------------------------------------------

 -------------------------------
 CID_131001740_JID_1802_neutraal
 -------------------------------
 Symbolic Z-matrix:
 Charge =  0 Multiplicity = 1

 SCF Done:  E(RB3LYP) =  -820.996217348     A.U. after   14 cycles
 SCF Done:  E(RB3LYP) =  -821.000694015     A.U. after   12 cycles
 SCF Done:  E(RB3LYP) =  -821.001087576     A.U. after   11 cycles
 SCF Done:  E(RB3LYP) =  -821.001160892     A.U. after   10 cycles
 SCF Done:  E(RB3LYP) =  -821.001192703     A.U. after   10 cycles
 SCF Done:  E(RB3LYP) =  -821.001204307     A.U. after    9 cycles
 SCF Done:  E(RB3LYP) =  -821.001209392     A.U. after    8 cycles
 SCF Done:  E(RB3LYP) =  -821.001210994     A.U. after    8 cycles
 SCF Done:  E(RB3LYP) =  -821.001211601     A.U. after    7 cycles
 SCF Done:  E(RB3LYP) =  -821.001211777     A.U. after    6 cycles
 Optimization completed.
    -- Stationary point found.
 Normal termination of Gaussian 16 at Tue Dec  8 20:41:27 2020.

 --------------------------------------------------------------------
 #N Geom=AllCheck Guess=TCheck SCRF=Check GenChk RB3LYP/6-31G(d) Freq
 --------------------------------------------------------------------

 Structure from the checkpoint file:  "JID_1802.chk"
 -------------------------------
 CID_131001740_JID_1802_neutraal
 -------------------------------
 Charge =  0 Multiplicity = 1

 SCF Done:  E(RB3LYP) =  -821.001211777     A.U. after    1 cycles

  Exact polarizability: 124.834  11.873 110.565  -1.935   9.984  92.837
 Approx polarizability: 164.305  25.055 173.096  -1.365  25.036 142.055

                      1                      2                      3
                      A                      A                      A
 Frequencies --     39.2176                76.5808                97.5786
 Red. masses --      4.9875                 4.1013                 2.6200
 Frc consts  --      0.0045                 0.0142                 0.0147
 IR Inten    --      1.4620                 3.1184                 1.3329

                      4                      5                      6
                      A                      A                      A
 Frequencies --    174.4368               187.4566               223.0504
 Red. masses --      3.4478                 3.7391                 3.7584
 Frc consts  --      0.0618                 0.0774                 0.1102
 IR Inten    --      2.0196                 5.0881                 2.9712

                      7                      8                      9
                      A                      A                      A
 Frequencies --    267.9008               294.5102               344.2985
 Red. masses --      2.2661                 2.3123                 3.5553
 Frc consts  --      0.0958                 0.1182                 0.2483
 IR Inten    --      5.2676                 0.8873                16.3952

                     10                     11                     12
                      A                      A                      A
 Frequencies --    396.2219               412.9475               459.6320
 Red. masses --      1.3553                 1.8792                 3.1397
 Frc consts  --      0.1254                 0.1888                 0.3908
 IR Inten    --     76.6330                26.4280                 3.4902

                     13                     14                     15
                      A                      A                      A
 Frequencies --    473.2618               566.8365               576.8999
 Red. masses --      3.5397                 1.2512                 3.6001
 Frc consts  --      0.4671                 0.2369                 0.7059
 IR Inten    --      2.7229               145.0035                 4.2855

                     16                     17                     18
                      A                      A                      A
 Frequencies --    645.9104               703.3721               751.0910
 Red. masses --      7.6701                 2.1974                 2.2448
 Frc consts  --      1.8854                 0.6405                 0.7461
 IR Inten    --     39.5669                 2.2364                 0.5245

                     19                     20                     21
                      A                      A                      A
 Frequencies --    792.4469               812.8102               845.4031
 Red. masses --      2.4645                 1.3035                 1.4482
 Frc consts  --      0.9119                 0.5074                 0.6098
 IR Inten    --      8.9128                 2.6484                 8.4047

                     22                     23                     24
                      A                      A                      A
 Frequencies --    876.4421               908.1447               919.1579
 Red. masses --      1.9269                 2.6624                 3.1057
 Frc consts  --      0.8721                 1.2937                 1.5459
 IR Inten    --     18.0802                12.6827                 4.1165

                     25                     26                     27
                      A                      A                      A
 Frequencies --    935.9226               946.8406               993.3034
 Red. masses --      2.3477                 1.9367                 1.9836
 Frc consts  --      1.2116                 1.0230                 1.1531
 IR Inten    --      2.7427                 1.0919                 3.2445

                     28                     29                     30
                      A                      A                      A
 Frequencies --   1026.0384              1058.8726              1070.0804
 Red. masses --      1.7180                 1.5164                 1.5317
 Frc consts  --      1.0656                 1.0017                 1.0334
 IR Inten    --      2.6427                11.3390                 3.7685

                     31                     32                     33
                      A                      A                      A
 Frequencies --   1089.8610              1120.5741              1141.3706
 Red. masses --      1.3920                 1.6782                 1.3172
 Frc consts  --      0.9742                 1.2416                 1.0110
 IR Inten    --      2.4818                 6.2785                 1.5410

                     34                     35                     36
                      A                      A                      A
 Frequencies --   1153.7672              1174.3439              1198.8327
 Red. masses --      1.2470                 1.7187                 2.4822
 Frc consts  --      0.9780                 1.3965                 2.1018
 IR Inten    --     10.2016                18.8570                 2.1289

                     37                     38                     39
                      A                      A                      A
 Frequencies --   1214.9513              1218.3323              1240.3722
 Red. masses --      1.4029                 1.3232                 1.5385
 Frc consts  --      1.2201                 1.1572                 1.3946
 IR Inten    --      0.7762                 3.3423                 1.5647

                     40                     41                     42
                      A                      A                      A
 Frequencies --   1245.2346              1259.4856              1309.2013
 Red. masses --      1.7021                 1.4012                 1.4062
 Frc consts  --      1.5551                 1.3096                 1.4201
 IR Inten    --      5.3978                 8.5995                 6.1977

                     43                     44                     45
                      A                      A                      A
 Frequencies --   1343.2891              1354.5964              1383.0113
 Red. masses --      1.3691                 2.0867                 1.4892
 Frc consts  --      1.4555                 2.2560                 1.6782
 IR Inten    --     29.9626                88.8158                53.1888

                     46                     47                     48
                      A                      A                      A
 Frequencies --   1394.9597              1401.1364              1429.1707
 Red. masses --      2.2364                 1.5066                 1.6067
 Frc consts  --      2.5640                 1.7426                 1.9336
 IR Inten    --     60.2222                12.2624                 3.7900

                     49                     50                     51
                      A                      A                      A
 Frequencies --   1500.3508              1514.9409              1525.2589
 Red. masses --      1.0957                 1.7797                 1.7095
 Frc consts  --      1.4532                 2.4066                 2.3432
 IR Inten    --      6.0985               289.1444               172.3463

                     52                     53                     54
                      A                      A                      A
 Frequencies --   1535.5814              1551.3999              1556.4852
 Red. masses --      1.2368                 1.1929                 1.1486
 Frc consts  --      1.7183                 1.6916                 1.6394
 IR Inten    --      3.5155                15.0978                 1.6498

                     55                     56                     57
                      A                      A                      A
 Frequencies --   1666.1036              3015.6777              3057.4454
 Red. masses --      1.1852                 1.0686                 1.0766
 Frc consts  --      1.9384                 5.7255                 5.9293
 IR Inten    --    142.8122                39.9573                 2.8618

                     58                     59                     60
                      A                      A                      A
 Frequencies --   3064.9134              3075.0117              3088.0667
 Red. masses --      1.0696                 1.0778                 1.0903
 Frc consts  --      5.9200                 6.0047                 6.1261
 IR Inten    --     13.0561                50.0534                41.2906

                     61                     62                     63
                      A                      A                      A
 Frequencies --   3121.4783              3134.0306              3135.9628
 Red. masses --      1.1045                 1.0938                 1.0869
 Frc consts  --      6.3407                 6.3298                 6.2976
 IR Inten    --     25.7644                10.2846                29.6179

                     64                     65                     66
                      A                      A                      A
 Frequencies --   3148.9021              3153.4235              3222.2874
 Red. masses --      1.0521                 1.0597                 1.1189
 Frc consts  --      6.1465                 6.2084                 6.8448
 IR Inten    --     18.0232                 8.2544                 2.3452

                     67                     68                     69
                      A                      A                      A
 Frequencies --   3236.3837              3556.0517              3680.6186
 Red. masses --      1.1158                 1.0485                 1.0992
 Frc consts  --      6.8861                 7.8119                 8.7734
 IR Inten    --     22.7358                18.4566                37.6880

 - Thermochemistry -
 -------------------
 Temperature   298.150 Kelvin.  Pressure   1.00000 Atm.
 Atom     1 has atomic number  6 and mass  12.00000

 Molecular mass:   170.08777 amu.
 Principal axes and moments of inertia in atomic units:
                           1         2         3
     Eigenvalues --  1194.692222740.165633188.13058
           X            0.99964  -0.02556  -0.00789
           Y            0.02554   0.99967  -0.00352
           Z            0.00798   0.00332   0.99996
 This molecule is an asymmetric top.
 Rotational symmetry number  1.
 Warning -- assumption of classical behavior for rotation
           may cause significant error
 Rotational temperatures (Kelvin)      0.07250     0.03161     0.02717
 Rotational constants (GHZ):           1.51063     0.65862     0.56608
 Zero-point vibrational energy     574743.0 (Joules/Mol)
                                  137.36688 (Kcal/Mol)
 Warning -- explicit consideration of  15 degrees of freedom as
           vibrations may cause significant error
 Vibrational temperatures:     56.43   110.18   140.39   250.98   269.71
          (Kelvin)            320.92   385.45   423.73   495.37   570.07
                              594.14   661.31   680.92   815.55   830.03
                              929.32  1012.00  1080.65  1140.15  1169.45
                             1216.35  1261.00  1306.62  1322.46  1346.58
                             1362.29  1429.14  1476.24  1523.48  1539.61
                             1568.07  1612.26  1642.18  1660.01  1689.62
                             1724.85  1748.04  1752.91  1784.62  1791.61
                             1812.12  1883.65  1932.69  1948.96  1989.84
                             2007.04  2015.92  2056.26  2158.67  2179.66
                             2194.51  2209.36  2232.12  2239.44  2397.15
                             4338.89  4398.98  4409.73  4424.26  4443.04
                             4491.11  4509.17  4511.95  4530.57  4537.07
                             4636.15  4656.43  5116.37  5295.59

 Zero-point correction=                           0.218908 (Hartree/Particle)
 Thermal correction to Energy=                    0.229776
 Thermal correction to Enthalpy=                  0.230721
 Thermal correction to Gibbs Free Energy=         0.181682
 Sum of electronic and zero-point Energies=           -820.782304
 Sum of electronic and thermal Energies=              -820.771435
 Sum of electronic and thermal Enthalpies=            -820.770491
 Sum of electronic and thermal Free Energies=         -820.819530

                     E (Thermal)             CV                S
                      KCal/Mol        Cal/Mol-Kelvin    Cal/Mol-Kelvin
 Total                  144.187             41.905            103.211
 Electronic               0.000              0.000              0.000
 Translational            0.889              2.981             41.301
 Rotational               0.889              2.981             30.724
 Vibrational            142.409             35.943             31.186
 Vibration     1          0.594              1.981              5.298
 Vibration     2          0.599              1.965              3.977
 Vibration     3          0.603              1.951              3.502
 Vibration     4          0.627              1.874              2.387
 Vibration     5          0.632              1.857              2.253
 Vibration     6          0.649              1.806              1.934
 Vibration     7          0.673              1.732              1.610
 Vibration     8          0.689              1.684              1.448
 Vibration     9          0.723              1.587              1.192
 Vibration    10          0.763              1.478              0.977
 Vibration    11          0.777              1.442              0.916
 Vibration    12          0.818              1.340              0.767
 Vibration    13          0.830              1.309              0.728
 Vibration    14          0.923              1.103              0.510
 Vibration    15          0.933              1.081              0.491

                           ! Non-Optimized Parameters !
 Normal termination of Gaussian 16 at Tue Dec  8 20:47:39 2020.

 ----------------------------------------------------------------------
 # B3LYP/6-311++G(d,p) empiricaldispersion=gd3bj scf=xqc pop=npa geom=c
 heck
 ----------------------------------------------------------------------

 ---------------------------------------
 CID_131001740_JID_1802_Energie_neutraal
 ---------------------------------------
 Structure from the checkpoint file:  "JID_1802.chk"
 Charge =  0 Multiplicity = 1

 SCF Done:  E(RB3LYP) =  -821.148561269     A.U. after   14 cycles
 Normal termination of Gaussian 16 at Tue Dec  8 20:52:53 2020.

 ----------------------------------------------------------------------
 # B3LYP/6-311++G(d,p) empiricaldispersion=gd3bj scf=xqc pop=npa geom=c
 heck
 ----------------------------------------------------------------------

 -------------------------------------
 CID_131001740_JID_1802_Energie_kation
 -------------------------------------
 Structure from the checkpoint file:  "JID_1802.chk"
 Charge =  1 Multiplicity = 2

 SCF Done:  E(UB3LYP) =  -820.861760686     A.U. after   28 cycles
 Normal termination of Gaussian 16 at Tue Dec  8 21:00:57 2020.
 Gaussian 16:  ES64L-G16RevA.03 25-Dec-2016

 ----------------------------------------------------------------------
 # B3LYP/6-311++G(d,p) empiricaldispersion=gd3bj scf=xqc pop=npa geom=c
 heck
 ----------------------------------------------------------------------

 ------------------------------------
 CID_131001740_JID_1802_Energie_anion
 ------------------------------------
 Structure from the checkpoint file:  "JID_1802.chk"
 Charge = -1 Multiplicity = 2

                         Standard orientation:
 ---------------------------------------------------------------------
 Center     Atomic      Atomic             Coordinates (Angstroms)
 Number     Number       Type             X           Y           Z
 ---------------------------------------------------------------------
      1          6           0        1.926360   -0.921057    1.349120
      2          6           0        2.678574   -1.688822    0.290607
      3          6           0        2.497583   -0.199492    0.148939
      4          6           0        1.631686    0.419189   -0.941083
      5          6           0        1.257624    1.879484   -0.606004
      6          6           0        0.036594    1.741202    0.311066
      7          7           0       -0.595257    0.501305   -0.152185
      8          6           0        0.249791   -0.232542   -1.101275
      9          6           0       -1.831769    0.091534    0.199603
     10         16           0       -2.578973   -1.275310   -0.445390
     11          7           0       -2.483503    0.894698    1.107453
     12          1           0        2.401727   -0.767436    2.313788
     13          1           0        0.851299   -1.065728    1.401529
     14          1           0        3.671127   -2.062647    0.524983
     15          1           0        2.104125   -2.342437   -0.360247
     16          1           0        3.391749    0.390084    0.348991
     17          1           0        2.180114    0.370225   -1.888932
     18          1           0        0.974579    2.413864   -1.519584
     19          1           0        2.073377    2.431014   -0.129595
     20          1           0        0.341872    1.649880    1.363717
     21          1           0       -0.660210    2.581903    0.224227
     22          1           0       -0.138892   -0.111748   -2.119471
     23          1           0        0.218540   -1.299939   -0.874704
     24          1           0       -1.939311    1.422451    1.778801
     25          1           0       -3.333855    0.486471    1.470020
 ---------------------------------------------------------------------

 SCF Done:  E(UB3LYP) =  -821.139907787     A.U. after   29 cycles

 The electronic state is 2-A.
 Alpha  occ. eigenvalues --  -88.68140 -14.25213 -14.23330 -10.17980 -10.10852
 Alpha  occ. eigenvalues --  -10.10704 -10.08786 -10.08235 -10.07596 -10.07583
 Alpha  occ. eigenvalues --  -10.07290  -7.76927  -5.73356  -5.72742  -5.72455
 Alpha  occ. eigenvalues --   -0.89402  -0.81402  -0.76564  -0.70129  -0.65170
 Alpha  occ. eigenvalues --   -0.61546  -0.55820  -0.51520  -0.50689  -0.47591
 Alpha  occ. eigenvalues --   -0.45625  -0.44422  -0.41817  -0.40055  -0.39144
 Alpha  occ. eigenvalues --   -0.35634  -0.33988  -0.32857  -0.31273  -0.29926
 Alpha  occ. eigenvalues --   -0.27467  -0.26777  -0.26296  -0.26240  -0.25460
 Alpha  occ. eigenvalues --   -0.24027  -0.19604  -0.18916  -0.16025  -0.11579
 Alpha  occ. eigenvalues --   -0.10770   0.04172
 Alpha virt. eigenvalues --    0.06485   0.07228   0.08047   0.09251   0.09479
 Alpha virt. eigenvalues --    0.09694   0.10047   0.10628   0.11207   0.12449
 Alpha virt. eigenvalues --    0.12837   0.13366   0.13562   0.13799   0.15486

  Beta  occ. eigenvalues --  -88.68138 -14.25214 -14.23283 -10.17974 -10.10807
  Beta  occ. eigenvalues --  -10.10694 -10.08780 -10.08220 -10.07588 -10.07552
  Beta  occ. eigenvalues --  -10.07270  -7.76925  -5.73355  -5.72741  -5.72452
  Beta  occ. eigenvalues --   -0.89380  -0.81350  -0.76536  -0.70090  -0.65123
  Beta  occ. eigenvalues --   -0.61506  -0.55797  -0.51443  -0.50643  -0.47531
  Beta  occ. eigenvalues --   -0.45569  -0.44355  -0.41786  -0.39997  -0.39098
  Beta  occ. eigenvalues --   -0.35597  -0.33942  -0.32833  -0.31232  -0.29890
  Beta  occ. eigenvalues --   -0.27430  -0.26742  -0.26256  -0.26203  -0.25432
  Beta  occ. eigenvalues --   -0.23988  -0.19577  -0.18889  -0.15986  -0.11569
  Beta  occ. eigenvalues --   -0.10758
  Beta virt. eigenvalues --    0.06768   0.07669   0.07887   0.08626   0.09498
  Beta virt. eigenvalues --    0.09805   0.10256   0.10654   0.11269   0.11482
  Beta virt. eigenvalues --    0.13050   0.13279   0.13535   0.13863   0.14331

 Mulliken charges and spin densities:
               1          2
     1  C    0.113572  -0.538269
     2  C    0.296662  -0.719351
     3  C    0.298829  -0.396633
     4  C   -0.730269   1.074947
     5  C    1.520874  -2.067977
     6  C    0.282894  -0.592322
     7  N    0.154989   0.119476
     8  C    0.158850  -0.698089
     9  C   -0.118611   0.015898
    10  S   -0.507761  -0.045282
    11  N   -0.133802  -0.067708
    12  H   -0.270291   0.437202
    13  H    0.154797   0.011978
    14  H   -0.043473   0.192947
    15  H    0.150609  -0.042643
    16  H   -0.444157   0.672166
    17  H   -0.268954   0.493888
    18  H   -0.088300   0.251135
    19  H   -0.615192   0.793534
    20  H   -0.279866   0.481092
    21  H   -0.411654   0.612685
    22  H    0.197613  -0.006170
    23  H   -0.046006   0.112974
    24  H   -0.409613   0.684639
    25  H    0.038260   0.219884
 Sum of Mulliken charges =  -1.00000   1.00000

 Dipole moment (field-independent basis, Debye):
    X=              0.0893    Y=             -3.8868    Z=             -2.8786  Tot=              4.8375
 Quadrupole moment (field-independent basis, Debye-Ang):
   XX=           -135.0375   YY=           -120.2526   ZZ=           -112.5177
   XY=             -8.8556   XZ=             -3.6442   YZ=             -6.1454

 Summary of Natural Population Analysis:

                                       Natural Population
                Natural  -----------------------------------------------
    Atom  No    Charge         Core      Valence    Rydberg      Total
 -----------------------------------------------------------------------
      C    1   -0.19977      0.99961     2.19048    0.00968     3.19977
      C    2   -0.19980      0.99962     2.19274    0.00744     3.19980
      C    3   -0.11409      0.99958     2.10144    0.01308     3.11409
      C    4   -0.11535      0.99958     2.10348    0.01230     3.11535
      C    5   -0.18708      0.99962     2.17822    0.00925     3.18708
      C    6   -0.08813      0.99962     2.07677    0.01174     3.08813
      N    7   -0.25325      0.99961     2.73990    0.01374     3.75325
      C    8   -0.08261      0.99960     2.07186    0.01115     3.08261
      C    9    0.15812      0.99962     1.81995    0.02231     2.84188
      S   10   -0.16647      4.99959     3.15502    0.01186     8.16647
      N   11   -0.39678      0.99969     2.88607    0.01102     3.89678
      H   12    0.10515      0.00000     0.39372    0.00113     0.39485
      H   13    0.10592      0.00000     0.39259    0.00149     0.39408
      H   14    0.10103      0.00000     0.39815    0.00082     0.39897
      H   15    0.09941      0.00000     0.39962    0.00097     0.40059
      H   16    0.10714      0.00000     0.39083    0.00203     0.39286
      H   17    0.10485      0.00000     0.39407    0.00108     0.39515
      H   18    0.09995      0.00000     0.39864    0.00141     0.40005
      H   19    0.10901      0.00000     0.38838    0.00260     0.39099
      H   20    0.10001      0.00000     0.39640    0.00359     0.39999
      H   21    0.10568      0.00000     0.39217    0.00215     0.39432
      H   22    0.10238      0.00000     0.39673    0.00089     0.39762
      H   23    0.10948      0.00000     0.38924    0.00128     0.39052
      H   24    0.19718      0.00000     0.29741    0.00541     0.30282
      H   25    0.19803      0.00000     0.30028    0.00169     0.30197
 =======================================================================
   * Total *    0.00000     14.99572    30.84416    0.16012    46.00000

 Normal termination of Gaussian 16 at Tue Dec  8 21:09:52 2020.
