 Gaussian 16, Revision A.03,

 -----------------------------------------------------------
 # opt freq B3LYP/6-31G(d) empiricaldispersion=gd3bj scf=xqc
 -----------------------------------------------------------

 ------------------------------
 CID_63576804_JID_6866_neutraal
 ------------------------------
 Symbolic Z-matrix:
 Charge =  0 Multiplicity = 1

 SCF Done:  E(RB3LYP) =  -744.132208378     A.U. after   15 cycles
 SCF Done:  E(RB3LYP) =  -744.134863963     A.U. after   13 cycles
 SCF Done:  E(RB3LYP) =  -744.136287691     A.U. after   13 cycles
 SCF Done:  E(RB3LYP) =  -744.134265163     A.U. after   14 cycles
 SCF Done:  E(RB3LYP) =  -744.136242465     A.U. after   13 cycles
 SCF Done:  E(RB3LYP) =  -744.137684712     A.U. after    9 cycles
 SCF Done:  E(RB3LYP) =  -744.137056283     A.U. after   13 cycles
 SCF Done:  E(RB3LYP) =  -744.138355891     A.U. after   12 cycles
 SCF Done:  E(RB3LYP) =  -744.138767666     A.U. after   12 cycles
 SCF Done:  E(RB3LYP) =  -744.138879269     A.U. after   12 cycles
 SCF Done:  E(RB3LYP) =  -744.139108226     A.U. after   11 cycles
 SCF Done:  E(RB3LYP) =  -744.139124867     A.U. after   11 cycles
 SCF Done:  E(RB3LYP) =  -744.139126687     A.U. after    9 cycles
 SCF Done:  E(RB3LYP) =  -744.139128412     A.U. after   10 cycles
 SCF Done:  E(RB3LYP) =  -744.139128432     A.U. after    8 cycles
 Optimization completed.
    -- Stationary point found.
 Normal termination of Gaussian 16 at Fri Dec 11 00:59:06 2020.

 --------------------------------------------------------------------
 #N Geom=AllCheck Guess=TCheck SCRF=Check GenChk RB3LYP/6-31G(d) Freq
 --------------------------------------------------------------------

 Structure from the checkpoint file:  "JID_6866.chk"
 ------------------------------
 CID_63576804_JID_6866_neutraal
 ------------------------------
 Charge =  0 Multiplicity = 1

 SCF Done:  E(RB3LYP) =  -744.139128432     A.U. after    1 cycles

  Exact polarizability: 143.914 -21.613 126.991  19.972   4.105 125.082
 Approx polarizability: 195.429 -39.505 211.876  34.908  22.817 200.818

                      1                      2                      3
                      A                      A                      A
 Frequencies --     20.4664                38.8245                48.1887
 Red. masses --      5.2340                 4.9150                 5.1160
 Frc consts  --      0.0013                 0.0044                 0.0070
 IR Inten    --      0.4000                 5.3646                 1.2412

                      4                      5                      6
                      A                      A                      A
 Frequencies --     58.4509                83.1855               102.6445
 Red. masses --      5.1393                 4.5194                 3.9727
 Frc consts  --      0.0103                 0.0184                 0.0247
 IR Inten    --      2.7097                 1.0516                 0.8358

                      7                      8                      9
                      A                      A                      A
 Frequencies --    130.7976               177.8797               193.0359
 Red. masses --      4.7644                 3.1147                 3.6795
 Frc consts  --      0.0480                 0.0581                 0.0808
 IR Inten    --      1.1956                 2.9239                 3.0602

                     10                     11                     12
                      A                      A                      A
 Frequencies --    228.1027               245.2462               273.7255
 Red. masses --      1.2184                 2.9244                 3.5255
 Frc consts  --      0.0373                 0.1036                 0.1556
 IR Inten    --     46.9749                 0.3576                 6.3637

                     13                     14                     15
                      A                      A                      A
 Frequencies --    296.5394               317.6495               368.5196
 Red. masses --      2.9067                 3.0745                 2.2499
 Frc consts  --      0.1506                 0.1828                 0.1800
 IR Inten    --     14.9560                15.1314                 0.7337

                     16                     17                     18
                      A                      A                      A
 Frequencies --    372.1747               416.9740               426.4722
 Red. masses --      2.3171                 3.5653                 2.6812
 Frc consts  --      0.1891                 0.3652                 0.2873
 IR Inten    --      5.3357                 4.2939                16.9666

                     19                     20                     21
                      A                      A                      A
 Frequencies --    468.2185               515.4560               539.9564
 Red. masses --      2.9338                 2.4546                 3.0094
 Frc consts  --      0.3789                 0.3843                 0.5170
 IR Inten    --      3.0590                 7.5705                 9.7170

                     22                     23                     24
                      A                      A                      A
 Frequencies --    581.6434               611.0216               641.3887
 Red. masses --      2.9046                 3.1617                 6.5597
 Frc consts  --      0.5790                 0.6955                 1.5899
 IR Inten    --      9.4579                45.5677                 3.3217

                     25                     26                     27
                      A                      A                      A
 Frequencies --    656.7430               747.2876               761.4270
 Red. masses --      1.6096                 2.9969                 3.2032
 Frc consts  --      0.4090                 0.9861                 1.0942
 IR Inten    --    190.2577                63.1519                 4.5979

                     28                     29                     30
                      A                      A                      A
 Frequencies --    771.8413               798.8340               819.9807
 Red. masses --      1.5714                 2.6862                 3.3413
 Frc consts  --      0.5516                 1.0100                 1.3237
 IR Inten    --     14.6903                15.5765                 2.7275

                     31                     32                     33
                      A                      A                      A
 Frequencies --    866.6226               901.9559               906.1228
 Red. masses --      2.4863                 1.5148                 1.3686
 Frc consts  --      1.1002                 0.7261                 0.6621
 IR Inten    --     10.6840                 1.6468                 1.0854

                     34                     35                     36
                      A                      A                      A
 Frequencies --    924.8330               961.1879               972.9029
 Red. masses --      2.3552                 2.8952                 1.5119
 Frc consts  --      1.1869                 1.5760                 0.8432
 IR Inten    --      3.4677                31.0334                 8.9073

                     37                     38                     39
                      A                      A                      A
 Frequencies --    983.0411              1003.1996              1007.8960
 Red. masses --      2.1291                 1.6185                 1.7276
 Frc consts  --      1.2122                 0.9597                 1.0340
 IR Inten    --     38.3407                 2.6595                 3.3102

                     40                     41                     42
                      A                      A                      A
 Frequencies --   1014.5221              1029.1005              1057.6624
 Red. masses --      5.4222                 2.5700                 2.4120
 Frc consts  --      3.2881                 1.6036                 1.5897
 IR Inten    --      7.9953                36.6277                 2.8153

                     43                     44                     45
                      A                      A                      A
 Frequencies --   1068.6279              1081.2243              1107.3069
 Red. masses --      2.4674                 2.2995                 1.5604
 Frc consts  --      1.6601                 1.5838                 1.1272
 IR Inten    --     25.8703                 3.9513                 3.4259

                     46                     47                     48
                      A                      A                      A
 Frequencies --   1130.2208              1140.7145              1188.2813
 Red. masses --      1.6919                 3.5322                 1.1341
 Frc consts  --      1.2733                 2.7080                 0.9435
 IR Inten    --      7.6141                92.2427                 2.5010

                     49                     50                     51
                      A                      A                      A
 Frequencies --   1194.9823              1216.2407              1243.7646
 Red. masses --      1.7082                 1.2810                 1.6267
 Frc consts  --      1.4371                 1.1165                 1.4827
 IR Inten    --      3.3797                 5.0967                60.3266

                     52                     53                     54
                      A                      A                      A
 Frequencies --   1256.4514              1260.1025              1313.7447
 Red. masses --      1.3999                 2.3055                 1.7694
 Frc consts  --      1.3021                 2.1569                 1.7992
 IR Inten    --     15.2063                 1.8282                11.3224

                     55                     56                     57
                      A                      A                      A
 Frequencies --   1317.7279              1334.3879              1344.7115
 Red. masses --      2.6263                 1.3678                 1.5049
 Frc consts  --      2.6869                 1.4349                 1.6033
 IR Inten    --     18.8379                32.6977                 2.5268

                     58                     59                     60
                      A                      A                      A
 Frequencies --   1350.0483              1382.3907              1383.8509
 Red. masses --      1.2954                 1.2262                 1.4640
 Frc consts  --      1.3911                 1.3806                 1.6518
 IR Inten    --      2.2022                 2.4288                20.9607

                     61                     62                     63
                      A                      A                      A
 Frequencies --   1385.3180              1400.0285              1431.2923
 Red. masses --      1.3416                 1.3764                 1.2220
 Frc consts  --      1.5170                 1.5895                 1.4749
 IR Inten    --      3.1534                 4.2226                22.2110

                     64                     65                     66
                      A                      A                      A
 Frequencies --   1454.5093              1479.9683              1497.5505
 Red. masses --      1.2637                 2.1118                 1.1024
 Frc consts  --      1.5751                 2.7252                 1.4566
 IR Inten    --      5.8010                18.4872                 8.2877

                     67                     68                     69
                      A                      A                      A
 Frequencies --   1510.2586              1515.8327              1527.2675
 Red. masses --      1.1072                 1.0987                 2.1012
 Frc consts  --      1.4879                 1.4874                 2.8877
 IR Inten    --      7.7399                 0.6896                13.8440

                     70                     71                     72
                      A                      A                      A
 Frequencies --   1534.9140              1539.2951              1543.8323
 Red. masses --      1.4492                 1.1178                 1.1151
 Frc consts  --      2.0116                 1.5605                 1.5659
 IR Inten    --     82.7850                17.3045                 8.3693

                     73                     74                     75
                      A                      A                      A
 Frequencies --   1631.9073              1650.9088              1730.4001
 Red. masses --      5.6587                 5.4059                 1.2340
 Frc consts  --      8.8788                 8.6809                 2.1770
 IR Inten    --     18.8310                39.4298               101.1085

                     76                     77                     78
                      A                      A                      A
 Frequencies --   1777.0264              3036.6777              3045.6542
 Red. masses --      4.1108                 1.0682                 1.0686
 Frc consts  --      7.6483                 5.8034                 5.8403
 IR Inten    --     90.1412                25.6593                18.8735

                     79                     80                     81
                      A                      A                      A
 Frequencies --   3054.5976              3058.7284              3062.7697
 Red. masses --      1.0639                 1.0624                 1.0622
 Frc consts  --      5.8484                 5.8562                 5.8706
 IR Inten    --     17.2734                 9.3718                35.8139

                     82                     83                     84
                      A                      A                      A
 Frequencies --   3098.1577              3110.0743              3116.7006
 Red. masses --      1.1036                 1.1005                 1.1013
 Frc consts  --      6.2412                 6.2716                 6.3028
 IR Inten    --      9.2343                26.4619                20.7181

                     85                     86                     87
                      A                      A                      A
 Frequencies --   3121.3279              3125.7687              3171.8264
 Red. masses --      1.0959                 1.0957                 1.0891
 Frc consts  --      6.2906                 6.3076                 6.4557
 IR Inten    --     23.6535                14.9251                25.3772

                     88                     89                     90
                      A                      A                      A
 Frequencies --   3192.4587              3205.8306              3218.3974
 Red. masses --      1.0875                 1.0927                 1.0978
 Frc consts  --      6.5300                 6.6166                 6.6998
 IR Inten    --      3.7257                18.0622                15.7560

                     91                     92                     93
                      A                      A                      A
 Frequencies --   3416.6697              3499.0941              3556.6816
 Red. masses --      1.0491                 1.0915                 1.0771
 Frc consts  --      7.2158                 7.8738                 8.0277
 IR Inten    --      9.4130                 1.6821                47.6469

 - Thermochemistry -
 -------------------
 Temperature   298.150 Kelvin.  Pressure   1.00000 Atm.
 Atom     1 has atomic number  6 and mass  12.00000

 Molecular mass:   223.13208 amu.
 Principal axes and moments of inertia in atomic units:
                           1         2         3
     Eigenvalues --  1982.188845617.414875825.01911
           X            0.99995  -0.00935   0.00285
           Y            0.00960   0.99463  -0.10307
           Z           -0.00187   0.10309   0.99467
 This molecule is an asymmetric top.
 Rotational symmetry number  1.
 Warning -- assumption of classical behavior for rotation
           may cause significant error
 Rotational temperatures (Kelvin)      0.04370     0.01542     0.01487
 Rotational constants (GHZ):           0.91048     0.32128     0.30983
 Zero-point vibrational energy     743827.4 (Joules/Mol)
                                  177.77901 (Kcal/Mol)
 Warning -- explicit consideration of  23 degrees of freedom as
           vibrations may cause significant error
 Vibrational temperatures:     29.45    55.86    69.33    84.10   119.69
          (Kelvin)            147.68   188.19   255.93   277.74   328.19
                              352.85   393.83   426.65   457.03   530.22
                              535.48   599.93   613.60   673.66   741.63
                              776.88   836.86   879.12   922.82   944.91
                             1075.18  1095.52  1110.51  1149.34  1179.77
                             1246.88  1297.71  1303.71  1330.63  1382.94
                             1399.79  1414.38  1443.38  1450.14  1459.67
                             1480.65  1521.74  1537.52  1555.64  1593.17
                             1626.14  1641.23  1709.67  1719.31  1749.90
                             1789.50  1807.75  1813.01  1890.19  1895.92
                             1919.89  1934.74  1942.42  1988.95  1991.05
                             1993.16  2014.33  2059.31  2092.71  2129.34
                             2154.64  2172.93  2180.95  2197.40  2208.40
                             2214.70  2221.23  2347.95  2375.29  2489.66
                             2556.74  4369.10  4382.02  4394.88  4400.83
                             4406.64  4457.56  4474.70  4484.24  4490.89
                             4497.28  4563.55  4593.24  4612.48  4630.56
                             4915.83  5034.42  5117.27

 Zero-point correction=                           0.283309 (Hartree/Particle)
 Thermal correction to Energy=                    0.298978
 Thermal correction to Enthalpy=                  0.299922
 Thermal correction to Gibbs Free Energy=         0.238413
 Sum of electronic and zero-point Energies=           -743.855820
 Sum of electronic and thermal Energies=              -743.840151
 Sum of electronic and thermal Enthalpies=            -743.839206
 Sum of electronic and thermal Free Energies=         -743.900715

                     E (Thermal)             CV                S
                      KCal/Mol        Cal/Mol-Kelvin    Cal/Mol-Kelvin
 Total                  187.611             58.534            129.456
 Electronic               0.000              0.000              0.000
 Translational            0.889              2.981             42.110
 Rotational               0.889              2.981             32.539
 Vibrational            185.834             52.572             54.807
 Vibration     1          0.593              1.986              6.588
 Vibration     2          0.594              1.981              5.318
 Vibration     3          0.595              1.978              4.890
 Vibration     4          0.596              1.974              4.509
 Vibration     5          0.600              1.961              3.814
 Vibration     6          0.605              1.947              3.403
 Vibration     7          0.612              1.923              2.934
 Vibration     8          0.628              1.870              2.351
 Vibration     9          0.635              1.850              2.198
 Vibration    10          0.651              1.798              1.894
 Vibration    11          0.660              1.771              1.764
 Vibration    12          0.676              1.722              1.573
 Vibration    13          0.690              1.680              1.436
 Vibration    14          0.704              1.640              1.322
 Vibration    15          0.741              1.537              1.086
 Vibration    16          0.744              1.529              1.071
 Vibration    17          0.780              1.433              0.902
 Vibration    18          0.788              1.413              0.870
 Vibration    19          0.825              1.321              0.743
 Vibration    20          0.870              1.216              0.621
 Vibration    21          0.895              1.162              0.565
 Vibration    22          0.938              1.071              0.482
 Vibration    23          0.970              1.009              0.431

                           ! Non-Optimized Parameters !
 Normal termination of Gaussian 16 at Fri Dec 11 01:10:12 2020.

 ----------------------------------------------------------------------
 # B3LYP/6-311++G(d,p) empiricaldispersion=gd3bj scf=xqc pop=npa geom=c
 heck
 ----------------------------------------------------------------------

 --------------------------------------
 CID_63576804_JID_6866_Energie_neutraal
 --------------------------------------
 Structure from the checkpoint file:  "JID_6866.chk"
 Charge =  0 Multiplicity = 1

 SCF Done:  E(RB3LYP) =  -744.357725426     A.U. after   15 cycles
 Normal termination of Gaussian 16 at Fri Dec 11 01:14:38 2020.

 ----------------------------------------------------------------------
 # B3LYP/6-311++G(d,p) empiricaldispersion=gd3bj scf=xqc pop=npa geom=c
 heck
 ----------------------------------------------------------------------

 ------------------------------------
 CID_63576804_JID_6866_Energie_kation
 ------------------------------------
 Structure from the checkpoint file:  "JID_6866.chk"
 Charge =  1 Multiplicity = 2

 SCF Done:  E(UB3LYP) =  -744.048107870     A.U. after   32 cycles
 Normal termination of Gaussian 16 at Fri Dec 11 01:27:11 2020.
 Gaussian 16:  ES64L-G16RevA.03 25-Dec-2016

 ----------------------------------------------------------------------
 # B3LYP/6-311++G(d,p) empiricaldispersion=gd3bj scf=xqc pop=npa geom=c
 heck
 ----------------------------------------------------------------------

 -----------------------------------
 CID_63576804_JID_6866_Energie_anion
 -----------------------------------
 Structure from the checkpoint file:  "JID_6866.chk"
 Charge = -1 Multiplicity = 2

                         Standard orientation:
 ---------------------------------------------------------------------
 Center     Atomic      Atomic             Coordinates (Angstroms)
 Number     Number       Type             X           Y           Z
 ---------------------------------------------------------------------
      1          6           0        2.855174   -1.453506   -1.100045
      2          6           0        3.751984   -1.284087   -0.045668
      3          6           0        3.696656   -0.092367    0.674761
      4          7           0        2.827524    0.893099    0.418859
      5          6           0        1.961664    0.727413   -0.593933
      6          6           0        1.951593   -0.433182   -1.380854
      7          6           0        0.968005    1.838913   -0.848586
      8          6           0       -0.505573    1.455765   -0.614257
      9          8           0       -0.957519    1.588287    0.730038
     10          6           0       -0.283908    0.809065    1.719358
     11          6           0       -0.448911   -0.704521    1.568199
     12          6           0       -1.919227   -1.163500    1.503045
     13          6           0       -2.510531   -1.023847    0.109624
     14          8           0       -2.236159   -1.800123   -0.802833
     15          7           0       -3.359377    0.041288   -0.068906
     16          7           0       -3.711110    0.389146   -1.402978
     17          1           0        2.858776   -2.363745   -1.692920
     18          1           0        4.475091   -2.051331    0.212270
     19          1           0        4.380961    0.083078    1.503068
     20          1           0        1.238997   -0.533607   -2.194326
     21          1           0        1.227133    2.701481   -0.228300
     22          1           0        1.053196    2.150531   -1.898311
     23          1           0       -1.155951    2.128905   -1.178403
     24          1           0       -0.684434    0.439179   -0.991382
     25          1           0        0.779855    1.070357    1.754099
     26          1           0       -0.738138    1.129997    2.663629
     27          1           0        0.085335   -1.076533    0.687302
     28          1           0        0.035452   -1.166321    2.437678
     29          1           0       -1.978594   -2.228187    1.748305
     30          1           0       -2.520954   -0.615930    2.238605
     31          1           0       -3.123395    0.857882    0.487079
     32          1           0       -3.121628   -0.205013   -1.993403
     33          1           0       -4.663080    0.052349   -1.551319
 ---------------------------------------------------------------------

 SCF Done:  E(UB3LYP) =  -744.346667169     A.U. after   33 cycles
 SCF Done:  E(UB3LYP) =  -744.346667169     a.u. after    1 cycles

 The electronic state is 2-A.
 Alpha  occ. eigenvalues --  -19.02531 -18.99858 -14.25900 -14.23723 -14.18675
 Alpha  occ. eigenvalues --  -10.17396 -10.11384 -10.10998 -10.09538 -10.09435
 Alpha  occ. eigenvalues --  -10.08176 -10.07153 -10.07121 -10.06805 -10.06767
 Alpha  occ. eigenvalues --  -10.06581  -0.95374  -0.93331  -0.87432  -0.83019
 Alpha  occ. eigenvalues --   -0.72085  -0.69119  -0.69012  -0.67890  -0.63056
 Alpha  occ. eigenvalues --   -0.59561  -0.54803  -0.51986  -0.50423  -0.49000
 Alpha  occ. eigenvalues --   -0.46443  -0.41930  -0.41232  -0.40771  -0.40065
 Alpha  occ. eigenvalues --   -0.39135  -0.37833  -0.37107  -0.35738  -0.34847
 Alpha  occ. eigenvalues --   -0.32755  -0.32525  -0.31245  -0.30242  -0.29882
 Alpha  occ. eigenvalues --   -0.29097  -0.28009  -0.27841  -0.26477  -0.25822
 Alpha  occ. eigenvalues --   -0.24463  -0.24254  -0.21356  -0.21051  -0.18206
 Alpha  occ. eigenvalues --   -0.16919  -0.16719  -0.15267  -0.14717  -0.14261
 Alpha  occ. eigenvalues --    0.04549
 Alpha virt. eigenvalues --    0.06437   0.06767   0.07143   0.07732   0.08510
 Alpha virt. eigenvalues --    0.08990   0.09117   0.09835   0.10326   0.10697
 Alpha virt. eigenvalues --    0.10780   0.11564   0.11790   0.12714   0.13285

  Beta  occ. eigenvalues --  -19.02530 -18.99841 -14.25896 -14.23696 -14.18459
  Beta  occ. eigenvalues --  -10.17381 -10.11355 -10.10990 -10.09447 -10.09427
  Beta  occ. eigenvalues --  -10.08163 -10.07138 -10.06957 -10.06832 -10.06773
  Beta  occ. eigenvalues --  -10.06527  -0.95343  -0.93325  -0.87404  -0.82709
  Beta  occ. eigenvalues --   -0.72037  -0.68988  -0.68779  -0.67807  -0.62974
  Beta  occ. eigenvalues --   -0.59509  -0.54731  -0.51854  -0.50268  -0.48899
  Beta  occ. eigenvalues --   -0.46379  -0.41878  -0.41193  -0.40695  -0.40017
  Beta  occ. eigenvalues --   -0.39088  -0.37767  -0.37015  -0.35651  -0.34776
  Beta  occ. eigenvalues --   -0.32719  -0.32441  -0.31195  -0.30129  -0.29806
  Beta  occ. eigenvalues --   -0.28868  -0.27896  -0.27643  -0.26407  -0.25739
  Beta  occ. eigenvalues --   -0.24391  -0.24186  -0.21323  -0.20980  -0.17561
  Beta  occ. eigenvalues --   -0.16850  -0.16500  -0.15135  -0.14462  -0.13957
  Beta virt. eigenvalues --    0.06671   0.07278   0.07570   0.08059   0.08222
  Beta virt. eigenvalues --    0.08736   0.09327   0.09493   0.10105   0.10484
  Beta virt. eigenvalues --    0.10926   0.11018   0.11730   0.11975   0.12929

 Mulliken charges and spin densities:
               1          2
     1  C   -0.281431   0.067218
     2  C    0.594448  -0.731391
     3  C   -0.300436   0.162231
     4  N   -0.032137   0.137659
     5  C   -0.409776   0.502880
     6  C   -0.236729   0.279154
     7  C    0.562965  -1.453293
     8  C   -0.154168  -0.010072
     9  O   -0.099226   0.014057
    10  C    0.028130  -0.466112
    11  C   -0.581358   0.596792
    12  C    0.656361  -1.114811
    13  C   -0.151300  -0.226319
    14  O   -0.309376   0.022754
    15  N   -0.057807   0.108994
    16  N   -0.245858  -0.149982
    17  H   -0.143827   0.303481
    18  H   -0.226138   0.374171
    19  H   -0.068950   0.237851
    20  H   -0.016172   0.193345
    21  H    0.118134   0.092879
    22  H   -0.024641   0.170406
    23  H    0.033479   0.175080
    24  H    0.104183  -0.001959
    25  H    0.264082  -0.084926
    26  H   -0.158949   0.334609
    27  H    0.481718  -0.219748
    28  H   -0.427644   0.610922
    29  H   -0.055459   0.234159
    30  H   -0.072312   0.248828
    31  H    0.151335   0.142015
    32  H    0.088633   0.141585
    33  H   -0.029775   0.307545
 Sum of Mulliken charges =  -1.00000   1.00000

 Dipole moment (field-independent basis, Debye):
    X=             -0.3082    Y=              1.1923    Z=             -0.6215  Tot=              1.3794
 Quadrupole moment (field-independent basis, Debye-Ang):
   XX=           -159.9433   YY=           -133.4664   ZZ=           -132.5770
   XY=              2.5449   XZ=             -3.7126   YZ=              1.7117

 Summary of Natural Population Analysis:

                                       Natural Population
                Natural  -----------------------------------------------
    Atom  No    Charge         Core      Valence    Rydberg      Total
 -----------------------------------------------------------------------
      C    1   -0.05598      0.99957     2.04606    0.01036     3.05598
      C    2   -0.12259      0.99956     2.11404    0.00899     3.12259
      C    3    0.02262      0.99958     1.96242    0.01538     2.97738
      N    4   -0.22271      0.99968     2.71206    0.01097     3.72271
      C    5    0.12198      0.99953     1.86427    0.01422     2.87802
      C    6   -0.13298      0.99950     2.12491    0.00857     3.13298
      C    7   -0.22297      0.99959     2.21442    0.00897     3.22297
      C    8   -0.01168      0.99956     1.99950    0.01262     3.01168
      O    9   -0.31044      0.99989     3.30142    0.00913     4.31044
      C   10   -0.01634      0.99956     2.00399    0.01279     3.01634
      C   11   -0.20664      0.99961     2.19886    0.00817     3.20664
      C   12   -0.23125      0.99958     2.22232    0.00935     3.23125
      C   13    0.33767      0.99967     1.63821    0.02445     2.66233
      O   14   -0.32871      0.99988     3.32289    0.00594     4.32871
      N   15   -0.24300      0.99965     2.73035    0.01300     3.74300
      N   16   -0.32250      0.99978     2.81076    0.01196     3.82250
      H   17    0.09790      0.00000     0.40132    0.00078     0.40210
      H   18    0.10049      0.00000     0.39858    0.00093     0.39951
      H   19    0.08660      0.00000     0.41239    0.00101     0.41340
      H   20    0.10273      0.00000     0.39613    0.00113     0.39727
      H   21    0.11030      0.00000     0.38819    0.00152     0.38970
      H   22    0.10684      0.00000     0.39204    0.00111     0.39316
      H   23    0.09449      0.00000     0.40405    0.00145     0.40551
      H   24    0.08232      0.00000     0.41538    0.00230     0.41768
      H   25    0.09709      0.00000     0.40096    0.00195     0.40291
      H   26    0.08572      0.00000     0.41293    0.00135     0.41428
      H   27    0.10827      0.00000     0.38947    0.00227     0.39173
      H   28    0.10558      0.00000     0.39278    0.00165     0.39442
      H   29    0.11331      0.00000     0.38569    0.00100     0.38669
      H   30    0.10128      0.00000     0.39706    0.00166     0.39872
      H   31    0.19879      0.00000     0.29821    0.00301     0.30121
      H   32    0.18131      0.00000     0.31644    0.00225     0.31869
      H   33    0.17250      0.00000     0.32556    0.00194     0.32750
 =======================================================================
   * Total *    0.00000     15.99418    43.79366    0.21216    60.00000

 Normal termination of Gaussian 16 at Fri Dec 11 01:40:32 2020.
