 Gaussian 16, Revision A.03,

 -----------------------------------------------------------
 # opt freq B3LYP/6-31G(d) empiricaldispersion=gd3bj scf=xqc
 -----------------------------------------------------------

 ------------------------------
 CID_57637065_JID_2435_neutraal
 ------------------------------
 Symbolic Z-matrix:
 Charge =  0 Multiplicity = 1

 SCF Done:  E(RB3LYP) =  -600.310679378     A.U. after   15 cycles
 SCF Done:  E(RB3LYP) =  -600.319444294     A.U. after   13 cycles
 SCF Done:  E(RB3LYP) =  -600.320364303     A.U. after   12 cycles
 SCF Done:  E(RB3LYP) =  -600.321657547     A.U. after   12 cycles
 SCF Done:  E(RB3LYP) =  -600.322548897     A.U. after   12 cycles
 SCF Done:  E(RB3LYP) =  -600.323332216     A.U. after   13 cycles
 SCF Done:  E(RB3LYP) =  -600.324173999     A.U. after   12 cycles
 SCF Done:  E(RB3LYP) =  -600.324629924     A.U. after   11 cycles
 SCF Done:  E(RB3LYP) =  -600.324782635     A.U. after   12 cycles
 SCF Done:  E(RB3LYP) =  -600.324956168     A.U. after   10 cycles
 SCF Done:  E(RB3LYP) =  -600.325399210     A.U. after    8 cycles
 SCF Done:  E(RB3LYP) =  -600.325399710     A.U. after    8 cycles
 SCF Done:  E(RB3LYP) =  -600.325399874     A.U. after    7 cycles
 SCF Done:  E(RB3LYP) =  -600.325399925     A.U. after    7 cycles
 SCF Done:  E(RB3LYP) =  -600.325399935     A.U. after    7 cycles
 Optimization completed.
    -- Stationary point found.
 Normal termination of Gaussian 16 at Wed Dec  9 17:23:11 2020.

 --------------------------------------------------------------------
 #N Geom=AllCheck Guess=TCheck SCRF=Check GenChk RB3LYP/6-31G(d) Freq
 --------------------------------------------------------------------

 Structure from the checkpoint file:  "JID_2435.chk"
 ------------------------------
 CID_57637065_JID_2435_neutraal
 ------------------------------
 Charge =  0 Multiplicity = 1

 SCF Done:  E(RB3LYP) =  -600.325399935     A.U. after    1 cycles

  Exact polarizability: 112.879   5.089  80.146  -0.003  -6.323  73.989
 Approx polarizability: 146.484   7.908 130.983  -6.378 -17.939 121.540

                      1                      2                      3
                      A                      A                      A
 Frequencies --     24.0885                65.6326                97.3204
 Red. masses --      4.1440                 4.8380                 7.1943
 Frc consts  --      0.0014                 0.0123                 0.0401
 IR Inten    --      2.2949                 0.6653                 1.3695

                      4                      5                      6
                      A                      A                      A
 Frequencies --    147.5716               157.1243               181.2090
 Red. masses --      1.4303                 4.5682                 2.3686
 Frc consts  --      0.0184                 0.0664                 0.0458
 IR Inten    --      2.8080                 2.7231                 6.3434

                      7                      8                      9
                      A                      A                      A
 Frequencies --    202.3763               277.4650               284.7183
 Red. masses --      4.1426                 2.8139                 1.7166
 Frc consts  --      0.1000                 0.1276                 0.0820
 IR Inten    --      3.1482                 8.9467                14.4520

                     10                     11                     12
                      A                      A                      A
 Frequencies --    315.2115               342.6614               388.1239
 Red. masses --      2.1006                 2.3118                 4.7210
 Frc consts  --      0.1230                 0.1599                 0.4190
 IR Inten    --     28.3830                 1.4082                 3.7575

                     13                     14                     15
                      A                      A                      A
 Frequencies --    466.3833               534.0519               572.6905
 Red. masses --      3.4039                 4.6002                 2.5304
 Frc consts  --      0.4362                 0.7730                 0.4890
 IR Inten    --      2.2819                19.0472                27.6915

                     16                     17                     18
                      A                      A                      A
 Frequencies --    593.7601               647.9820               687.6958
 Red. masses --      2.6802                 1.7150                 1.3762
 Frc consts  --      0.5567                 0.4243                 0.3835
 IR Inten    --     24.5593               264.9865               104.3216

                     19                     20                     21
                      A                      A                      A
 Frequencies --    695.6607               745.9490               762.9102
 Red. masses --      1.5614                 2.5747                 3.0079
 Frc consts  --      0.4452                 0.8441                 1.0315
 IR Inten    --     28.8472                 1.6461               126.5959

                     22                     23                     24
                      A                      A                      A
 Frequencies --    769.6679               796.1891               817.1076
 Red. masses --      6.4351                 3.8676                 4.0643
 Frc consts  --      2.2460                 1.4445                 1.5988
 IR Inten    --     24.6950                22.7407                70.2762

                     25                     26                     27
                      A                      A                      A
 Frequencies --    835.6296               980.0247              1027.3981
 Red. masses --      2.2989                 1.9220                 7.2140
 Frc consts  --      0.9458                 1.0876                 4.4864
 IR Inten    --     21.4685                10.6880                 4.9959

                     28                     29                     30
                      A                      A                      A
 Frequencies --   1077.6938              1089.7012              1103.5241
 Red. masses --      5.2080                 2.6017                 1.7434
 Frc consts  --      3.5638                 1.8202                 1.2509
 IR Inten    --      9.3638                 5.2535                38.6963

                     31                     32                     33
                      A                      A                      A
 Frequencies --   1143.6864              1178.3291              1182.6574
 Red. masses --      1.9810                 1.6150                 3.3153
 Frc consts  --      1.5267                 1.3212                 2.7320
 IR Inten    --     29.0983                32.7241                18.8768

                     34                     35                     36
                      A                      A                      A
 Frequencies --   1189.6996              1277.5746              1321.5388
 Red. masses --      2.0826                 1.4283                 1.7971
 Frc consts  --      1.7367                 1.3735                 1.8491
 IR Inten    --     24.8256                37.4662                37.3180

                     37                     38                     39
                      A                      A                      A
 Frequencies --   1375.2499              1414.6555              1438.5375
 Red. masses --      1.5612                 2.4091                 3.3695
 Frc consts  --      1.7397                 2.8406                 4.1082
 IR Inten    --    128.0503               101.0473                28.8650

                     40                     41                     42
                      A                      A                      A
 Frequencies --   1462.7924              1482.6575              1497.6115
 Red. masses --      1.3107                 1.3368                 3.1348
 Frc consts  --      1.6524                 1.7314                 4.1425
 IR Inten    --     18.4142                 6.4884                75.6440

                     43                     44                     45
                      A                      A                      A
 Frequencies --   1503.4062              1516.3104              1528.1535
 Red. masses --      1.3096                 1.2291                 1.0610
 Frc consts  --      1.7440                 1.6651                 1.4598
 IR Inten    --     15.2190                47.6592                 5.5986

                     46                     47                     48
                      A                      A                      A
 Frequencies --   1556.0978              1579.6860              1605.5273
 Red. masses --      1.0467                 3.1965                 4.1640
 Frc consts  --      1.4933                 4.6996                 6.3240
 IR Inten    --     13.6440                19.3071               172.3313

                     49                     50                     51
                      A                      A                      A
 Frequencies --   1677.7924              1814.6016              3054.0861
 Red. masses --      1.4498                 6.4497                 1.0353
 Frc consts  --      2.4045                12.5127                 5.6895
 IR Inten    --    189.1092               420.9848                31.3295

                     52                     53                     54
                      A                      A                      A
 Frequencies --   3102.0784              3114.7256              3146.9235
 Red. masses --      1.0633                 1.1043                 1.1033
 Frc consts  --      6.0286                 6.3121                 6.4376
 IR Inten    --     22.2242                24.5247                18.6868

                     55                     56                     57
                      A                      A                      A
 Frequencies --   3152.5696              3559.1368              3585.5854
 Red. masses --      1.1016                 1.0474                 1.0812
 Frc consts  --      6.4507                 7.8175                 8.1896
 IR Inten    --      1.7729                22.5864               186.9422

                     58                     59                     60
                      A                      A                      A
 Frequencies --   3588.3739              3589.9269              3664.2182
 Red. masses --      1.0769                 1.0770                 1.0985
 Frc consts  --      8.1697                 8.1781                 8.6896
 IR Inten    --     22.7863                29.9244                20.7111

 - Thermochemistry -
 -------------------
 Temperature   298.150 Kelvin.  Pressure   1.00000 Atm.
 Atom     1 has atomic number  6 and mass  12.00000

 Molecular mass:   170.09161 amu.
 Principal axes and moments of inertia in atomic units:
                           1         2         3
     Eigenvalues --   906.481843532.186633594.69646
           X            0.99961   0.01861   0.02079
           Y           -0.01914   0.99948   0.02600
           Z           -0.02029  -0.02639   0.99945
 This molecule is an asymmetric top.
 Rotational symmetry number  1.
 Warning -- assumption of classical behavior for rotation
           may cause significant error
 Rotational temperatures (Kelvin)      0.09555     0.02452     0.02409
 Rotational constants (GHZ):           1.99093     0.51094     0.50206
 Zero-point vibrational energy     472475.4 (Joules/Mol)
                                  112.92432 (Kcal/Mol)
 Warning -- explicit consideration of  16 degrees of freedom as
           vibrations may cause significant error
 Vibrational temperatures:     34.66    94.43   140.02   212.32   226.07
          (Kelvin)            260.72   291.17   399.21   409.65   453.52
                              493.01   558.42   671.02   768.38   823.97
                              854.29   932.30   989.44  1000.90  1073.25
                             1097.66  1107.38  1145.54  1175.64  1202.28
                             1410.04  1478.20  1550.56  1567.84  1587.73
                             1645.51  1695.35  1701.58  1711.71  1838.14
                             1901.40  1978.68  2035.37  2069.73  2104.63
                             2133.21  2154.73  2163.07  2181.63  2198.67
                             2238.88  2272.82  2310.00  2413.97  2610.81
                             4394.15  4463.20  4481.40  4527.72  4535.84
                             5120.80  5158.86  5162.87  5165.10  5271.99

 Zero-point correction=                           0.179956 (Hartree/Particle)
 Thermal correction to Energy=                    0.191594
 Thermal correction to Enthalpy=                  0.192538
 Thermal correction to Gibbs Free Energy=         0.141286
 Sum of electronic and zero-point Energies=           -600.145444
 Sum of electronic and thermal Energies=              -600.133806
 Sum of electronic and thermal Enthalpies=            -600.132862
 Sum of electronic and thermal Free Energies=         -600.184114

                     E (Thermal)             CV                S
                      KCal/Mol        Cal/Mol-Kelvin    Cal/Mol-Kelvin
 Total                  120.227             42.607            107.868
 Electronic               0.000              0.000              0.000
 Translational            0.889              2.981             41.301
 Rotational               0.889              2.981             30.821
 Vibrational            118.449             36.645             35.746
 Vibration     1          0.593              1.985              6.265
 Vibration     2          0.597              1.971              4.280
 Vibration     3          0.603              1.951              3.507
 Vibration     4          0.617              1.905              2.703
 Vibration     5          0.621              1.895              2.584
 Vibration     6          0.630              1.865              2.316
 Vibration     7          0.639              1.837              2.111
 Vibration     8          0.678              1.715              1.549
 Vibration     9          0.683              1.702              1.505
 Vibration    10          0.703              1.645              1.335
 Vibration    11          0.722              1.590              1.200
 Vibration    12          0.756              1.496              1.007
 Vibration    13          0.824              1.325              0.748
 Vibration    14          0.889              1.175              0.578
 Vibration    15          0.929              1.090              0.499
 Vibration    16          0.951              1.045              0.461

 Optimization completed.
    -- Stationary point found.
 Normal termination of Gaussian 16 at Wed Dec  9 17:27:39 2020.

 ----------------------------------------------------------------------
 # B3LYP/6-311++G(d,p) empiricaldispersion=gd3bj scf=xqc pop=npa geom=c
 heck
 ----------------------------------------------------------------------

 --------------------------------------
 CID_57637065_JID_2435_Energie_neutraal
 --------------------------------------
 Structure from the checkpoint file:  "JID_2435.chk"
 Charge =  0 Multiplicity = 1

 SCF Done:  E(RB3LYP) =  -600.514392342     A.U. after   15 cycles
 Normal termination of Gaussian 16 at Wed Dec  9 17:29:35 2020.

 ----------------------------------------------------------------------
 # B3LYP/6-311++G(d,p) empiricaldispersion=gd3bj scf=xqc pop=npa geom=c
 heck
 ----------------------------------------------------------------------

 ------------------------------------
 CID_57637065_JID_2435_Energie_kation
 ------------------------------------
 Structure from the checkpoint file:  "JID_2435.chk"
 Charge =  1 Multiplicity = 2

 SCF Done:  E(UB3LYP) =  -600.208776020     A.U. after   26 cycles
 Normal termination of Gaussian 16 at Wed Dec  9 17:33:08 2020.
 Gaussian 16:  ES64L-G16RevA.03 25-Dec-2016

 ----------------------------------------------------------------------
 # B3LYP/6-311++G(d,p) empiricaldispersion=gd3bj scf=xqc pop=npa geom=c
 heck
 ----------------------------------------------------------------------

 -----------------------------------
 CID_57637065_JID_2435_Energie_anion
 -----------------------------------
 Structure from the checkpoint file:  "JID_2435.chk"
 Charge = -1 Multiplicity = 2

                         Standard orientation:
 ---------------------------------------------------------------------
 Center     Atomic      Atomic             Coordinates (Angstroms)
 Number     Number       Type             X           Y           Z
 ---------------------------------------------------------------------
      1          6           0        2.610738    1.357200    1.072385
      2          7           0        2.256704    0.905433   -0.280162
      3          6           0        2.140746   -0.446944   -0.628176
      4          8           0        2.541668   -0.858242   -1.707251
      5          7           0        1.543319   -1.284111    0.301766
      6          6           0        0.450467   -0.895749    1.201798
      7          6           0       -0.757244   -0.307377    0.531157
      8          7           0       -1.999697   -0.762119    0.640210
      9          6           0       -2.714170    0.120417   -0.126359
     10          7           0       -1.997280    1.078984   -0.707232
     11          7           0       -0.739812    0.791441   -0.249335
     12          7           0       -4.090931    0.039468   -0.235654
     13          1           0        1.732098    1.707918    1.624697
     14          1           0        3.306228    2.195697    0.990260
     15          1           0        3.096864    0.562272    1.646895
     16          1           0        2.784595    1.361019   -1.015394
     17          1           0        1.423794   -2.199522   -0.116090
     18          1           0        0.122528   -1.795280    1.725241
     19          1           0        0.829380   -0.211840    1.965542
     20          1           0        0.073169    1.307815   -0.565698
     21          1           0       -4.437125   -0.905261   -0.125254
     22          1           0       -4.454210    0.494162   -1.064175
 ---------------------------------------------------------------------

 SCF Done:  E(UB3LYP) =  -600.505712129     A.U. after   33 cycles
 SCF Done:  E(UB3LYP) =  -600.505712129     a.u. after    1 cycles

 The electronic state is 2-A.
 Alpha  occ. eigenvalues --  -18.99208 -14.28495 -14.24383 -14.23765 -14.23043
 Alpha  occ. eigenvalues --  -14.22815 -14.20522 -10.20168 -10.15544 -10.14672
 Alpha  occ. eigenvalues --  -10.13166 -10.09967  -0.97546  -0.95778  -0.84324
 Alpha  occ. eigenvalues --   -0.83327  -0.81266  -0.78754  -0.71893  -0.63573
 Alpha  occ. eigenvalues --   -0.60177  -0.53316  -0.51712  -0.50528  -0.46472
 Alpha  occ. eigenvalues --   -0.42391  -0.40524  -0.39788  -0.38562  -0.37745
 Alpha  occ. eigenvalues --   -0.36381  -0.35520  -0.33942  -0.32868  -0.31904
 Alpha  occ. eigenvalues --   -0.29725  -0.28413  -0.24896  -0.23722  -0.19458
 Alpha  occ. eigenvalues --   -0.18908  -0.18537  -0.17568  -0.16044  -0.12932
 Alpha  occ. eigenvalues --    0.04261
 Alpha virt. eigenvalues --    0.05788   0.07270   0.08310   0.09057   0.09801
 Alpha virt. eigenvalues --    0.09885   0.10876   0.11190   0.12140   0.13395
 Alpha virt. eigenvalues --    0.13694   0.14401   0.14665   0.15662   0.15951

  Beta  occ. eigenvalues --  -18.99193 -14.28472 -14.24359 -14.23745 -14.23020
  Beta  occ. eigenvalues --  -14.22788 -14.20505 -10.20160 -10.15545 -10.14653
  Beta  occ. eigenvalues --  -10.13141 -10.09870  -0.97514  -0.95750  -0.84288
  Beta  occ. eigenvalues --   -0.83294  -0.81214  -0.78715  -0.71836  -0.63502
  Beta  occ. eigenvalues --   -0.60028  -0.53270  -0.51663  -0.50477  -0.46439
  Beta  occ. eigenvalues --   -0.42346  -0.40450  -0.39713  -0.38468  -0.37692
  Beta  occ. eigenvalues --   -0.36307  -0.35465  -0.33893  -0.32812  -0.31859
  Beta  occ. eigenvalues --   -0.29650  -0.28334  -0.24847  -0.23676  -0.19372
  Beta  occ. eigenvalues --   -0.18853  -0.18499  -0.17528  -0.16007  -0.12843
  Beta virt. eigenvalues --    0.06305   0.07204   0.08271   0.09110   0.09425
  Beta virt. eigenvalues --    0.10194   0.10545   0.11418   0.12015   0.12404
  Beta virt. eigenvalues --    0.13696   0.13927   0.14457   0.15034   0.15850

 Mulliken charges and spin densities:
               1          2
     1  C    1.876507  -2.281750
     2  N   -0.655951   0.288546
     3  C    0.095732  -0.019383
     4  O   -0.372966   0.021915
     5  N   -0.324092   0.237467
     6  C    2.883664  -3.579104
     7  C   -1.133065   1.368643
     8  N   -0.222041   0.029880
     9  C   -0.763030   0.782310
    10  N    0.172364  -0.141092
    11  N   -0.482369   0.115057
    12  N   -0.404983   0.052570
    13  H   -0.361350   0.523814
    14  H   -1.232958   1.409403
    15  H   -0.426040   0.611001
    16  H    0.134346   0.200462
    17  H    0.105994   0.205504
    18  H   -0.023104   0.218643
    19  H   -0.198688   0.422890
    20  H    0.289516   0.077311
    21  H    0.038531   0.209075
    22  H    0.003984   0.246840
 Sum of Mulliken charges =  -1.00000   1.00000

 Dipole moment (field-independent basis, Debye):
    X=             -5.1268    Y=             -3.5692    Z=             -1.8727  Tot=              6.5215
 Quadrupole moment (field-independent basis, Debye-Ang):
   XX=           -142.7104   YY=           -108.1888   ZZ=           -107.0960
   XY=            -10.3722   XZ=             -3.6180   YZ=             -5.8769

 Summary of Natural Population Analysis:

                                       Natural Population
                Natural  -----------------------------------------------
    Atom  No    Charge         Core      Valence    Rydberg      Total
 -----------------------------------------------------------------------
      C    1   -0.18474      0.99964     2.17573    0.00937     3.18474
      N    2   -0.35383      0.99970     2.84183    0.01230     3.85383
      C    3    0.41060      0.99969     1.56647    0.02324     2.58940
      O    4   -0.33015      0.99987     3.32455    0.00573     4.33015
      N    5   -0.32909      0.99968     2.81888    0.01054     3.82909
      C    6   -0.11381      0.99956     2.10204    0.01221     3.11381
      C    7    0.19248      0.99963     1.79239    0.01550     2.80752
      N    8   -0.28291      0.99968     2.77401    0.00922     3.78291
      C    9    0.25199      0.99967     1.72954    0.01880     2.74801
      N   10   -0.18952      0.99969     2.67821    0.01162     3.68952
      N   11   -0.18131      0.99964     2.67096    0.01071     3.68131
      N   12   -0.40428      0.99971     2.89485    0.00972     3.90428
      H   13    0.09266      0.00000     0.40494    0.00240     0.40734
      H   14    0.10940      0.00000     0.38257    0.00803     0.39060
      H   15    0.09946      0.00000     0.39737    0.00317     0.40054
      H   16    0.19872      0.00000     0.29886    0.00242     0.30128
      H   17    0.19505      0.00000     0.30273    0.00222     0.30495
      H   18    0.11424      0.00000     0.38434    0.00142     0.38576
      H   19    0.11162      0.00000     0.38619    0.00219     0.38838
      H   20    0.21481      0.00000     0.28248    0.00271     0.28519
      H   21    0.18945      0.00000     0.30863    0.00192     0.31055
      H   22    0.18916      0.00000     0.30889    0.00195     0.31084
 =======================================================================
   * Total *    0.00000     11.99615    32.82646    0.17739    45.00000

 Normal termination of Gaussian 16 at Wed Dec  9 17:38:24 2020.
