 Gaussian 16, Revision A.03,

 -----------------------------------------------------------
 # opt freq B3LYP/6-31G(d) empiricaldispersion=gd3bj scf=xqc
 -----------------------------------------------------------

 ------------------------------
 CID_14219981_JID_1975_neutraal
 ------------------------------
 Symbolic Z-matrix:
 Charge =  0 Multiplicity = 1

 SCF Done:  E(RB3LYP) =  -465.962182172     A.U. after   14 cycles
 SCF Done:  E(RB3LYP) =  -465.966418388     A.U. after   12 cycles
 SCF Done:  E(RB3LYP) =  -465.966739623     A.U. after   11 cycles
 SCF Done:  E(RB3LYP) =  -465.966743742     A.U. after   12 cycles
 SCF Done:  E(RB3LYP) =  -465.966882606     A.U. after   10 cycles
 SCF Done:  E(RB3LYP) =  -465.966881043     A.U. after   11 cycles
 SCF Done:  E(RB3LYP) =  -465.966906719     A.U. after   11 cycles
 SCF Done:  E(RB3LYP) =  -465.966917722     A.U. after    8 cycles
 SCF Done:  E(RB3LYP) =  -465.966923806     A.U. after   10 cycles
 SCF Done:  E(RB3LYP) =  -465.966924037     A.U. after    7 cycles
 Optimization completed.
    -- Stationary point found.
 Normal termination of Gaussian 16 at Tue Dec  8 21:11:29 2020.

 --------------------------------------------------------------------
 #N Geom=AllCheck Guess=TCheck SCRF=Check GenChk RB3LYP/6-31G(d) Freq
 --------------------------------------------------------------------

 Structure from the checkpoint file:  "JID_1975.chk"
 ------------------------------
 CID_14219981_JID_1975_neutraal
 ------------------------------
 Charge =  0 Multiplicity = 1

 SCF Done:  E(RB3LYP) =  -465.966924037     A.U. after    1 cycles

  Exact polarizability: 124.210  -0.553 100.267   7.512   2.366  82.393
 Approx polarizability: 185.224   2.734 140.452  23.187   6.316 128.864

                      1                      2                      3
                      A                      A                      A
 Frequencies --     43.9427                76.1013               170.0219
 Red. masses --      4.5055                 2.6164                 3.2874
 Frc consts  --      0.0051                 0.0089                 0.0560
 IR Inten    --      3.1380                 0.1279                 1.1593

                      4                      5                      6
                      A                      A                      A
 Frequencies --    184.1987               222.1751               237.0965
 Red. masses --      2.8587                 1.1470                 1.0698
 Frc consts  --      0.0571                 0.0334                 0.0354
 IR Inten    --      0.4247                 0.0137                 0.1463

                      7                      8                      9
                      A                      A                      A
 Frequencies --    252.3417               262.4753               272.7006
 Red. masses --      2.4580                 1.0773                 1.2501
 Frc consts  --      0.0922                 0.0437                 0.0548
 IR Inten    --      2.3992                 0.3735                 0.2437

                     10                     11                     12
                      A                      A                      A
 Frequencies --    303.6125               325.4323               328.2912
 Red. masses --      2.3559                 2.8203                 2.3781
 Frc consts  --      0.1280                 0.1760                 0.1510
 IR Inten    --      0.2237                 1.8911                 0.3663

                     13                     14                     15
                      A                      A                      A
 Frequencies --    357.9053               406.6887               434.8170
 Red. masses --      2.6674                 2.3736                 2.7978
 Frc consts  --      0.2013                 0.2313                 0.3117
 IR Inten    --      0.0390                 0.1557                 1.4068

                     16                     17                     18
                      A                      A                      A
 Frequencies --    515.5329               537.6350               614.2269
 Red. masses --      3.2522                 2.6833                 3.7472
 Frc consts  --      0.5093                 0.4570                 0.8329
 IR Inten    --      4.1330                 0.9743                 6.9530

                     19                     20                     21
                      A                      A                      A
 Frequencies --    691.0485               758.4610               765.0983
 Red. masses --      3.4351                 4.4087                 2.7345
 Frc consts  --      0.9665                 1.4943                 0.9431
 IR Inten    --      1.2791                 3.2320                 3.9599

                     22                     23                     24
                      A                      A                      A
 Frequencies --    802.7346               843.0980               890.6298
 Red. masses --      2.7075                 1.9242                 1.8790
 Frc consts  --      1.0279                 0.8059                 0.8782
 IR Inten    --      8.8207                15.6062                12.1683

                     25                     26                     27
                      A                      A                      A
 Frequencies --    946.7979               949.2359               973.6732
 Red. masses --      1.7019                 1.6882                 1.2142
 Frc consts  --      0.8989                 0.8962                 0.6782
 IR Inten    --      0.7381                 0.6548                 0.3067

                     28                     29                     30
                      A                      A                      A
 Frequencies --    978.9361               995.4287              1010.2387
 Red. masses --      2.1933                 1.5769                 1.6646
 Frc consts  --      1.2384                 0.9206                 1.0009
 IR Inten    --      5.9634                 2.1644                 2.6882

                     31                     32                     33
                      A                      A                      A
 Frequencies --   1043.2600              1050.7500              1079.7308
 Red. masses --      1.4373                 1.5837                 1.5229
 Frc consts  --      0.9217                 1.0302                 1.0461
 IR Inten    --      0.7904                 1.0154                 4.1119

                     34                     35                     36
                      A                      A                      A
 Frequencies --   1102.2074              1122.8908              1160.5941
 Red. masses --      1.6661                 1.6851                 1.5371
 Frc consts  --      1.1925                 1.2518                 1.2199
 IR Inten    --      4.4300                 8.6847                 1.6127

                     37                     38                     39
                      A                      A                      A
 Frequencies --   1206.9579              1220.3183              1256.3355
 Red. masses --      2.5204                 1.8458                 2.2869
 Frc consts  --      2.1633                 1.6195                 2.1267
 IR Inten    --     39.7688                 3.8696                 3.6172

                     40                     41                     42
                      A                      A                      A
 Frequencies --   1272.0496              1293.7273              1311.5785
 Red. masses --      2.1821                 1.7938                 1.5030
 Frc consts  --      2.0803                 1.7690                 1.5234
 IR Inten    --     15.9104                 6.1278                 1.0666

                     43                     44                     45
                      A                      A                      A
 Frequencies --   1338.6555              1363.9989              1390.8727
 Red. masses --      1.8176                 1.6174                 1.7463
 Frc consts  --      1.9190                 1.7730                 1.9904
 IR Inten    --      2.9727                 6.4290                 8.0397

                     46                     47                     48
                      A                      A                      A
 Frequencies --   1430.6588              1430.9234              1433.4501
 Red. masses --      1.2363                 1.2195                 1.2350
 Frc consts  --      1.4909                 1.4712                 1.4952
 IR Inten    --      1.7668                 6.9950                 9.9955

                     49                     50                     51
                      A                      A                      A
 Frequencies --   1462.0661              1512.7080              1516.0816
 Red. masses --      1.2237                 1.0486                 1.0452
 Frc consts  --      1.5412                 1.4138                 1.4155
 IR Inten    --      6.0846                 0.4652                 0.2985

                     52                     53                     54
                      A                      A                      A
 Frequencies --   1518.3444              1527.6972              1531.3565
 Red. masses --      1.0469                 1.0457                 1.0493
 Frc consts  --      1.4219                 1.4379                 1.4498
 IR Inten    --      0.0221                 6.1159                 2.6832

                     55                     56                     57
                      A                      A                      A
 Frequencies --   1536.8866              1540.9010              1548.8259
 Red. masses --      1.0529                 1.0577                 1.0579
 Frc consts  --      1.4653                 1.4797                 1.4951
 IR Inten    --      6.0084                 4.4761                11.9316

                     58                     59                     60
                      A                      A                      A
 Frequencies --   1663.5684              1811.7792              2998.2194
 Red. masses --      6.5386                12.1685                 1.0821
 Frc consts  --     10.6614                23.5340                 5.7311
 IR Inten    --     19.6258               277.4520                16.3764

                     61                     62                     63
                      A                      A                      A
 Frequencies --   3042.2738              3045.4473              3051.5745
 Red. masses --      1.0355                 1.0353                 1.0400
 Frc consts  --      5.6469                 5.6575                 5.7061
 IR Inten    --     23.1030                28.9529                21.4732

                     64                     65                     66
                      A                      A                      A
 Frequencies --   3053.3391              3064.4776              3106.1525
 Red. masses --      1.0367                 1.0780                 1.1024
 Frc consts  --      5.6943                 5.9648                 6.2667
 IR Inten    --     10.2543                15.3864                 1.3476

                     67                     68                     69
                      A                      A                      A
 Frequencies --   3111.0318              3114.1377              3116.3802
 Red. masses --      1.1020                 1.1017                 1.1017
 Frc consts  --      6.2838                 6.2947                 6.3038
 IR Inten    --     36.3873                19.8025                20.8781

                     70                     71                     72
                      A                      A                      A
 Frequencies --   3118.4712              3120.7714              3122.5609
 Red. masses --      1.1015                 1.1015                 1.1005
 Frc consts  --      6.3112                 6.3205                 6.3219
 IR Inten    --     31.5809                51.3529                54.5550

                     73                     74                     75
                      A                      A                      A
 Frequencies --   3138.6608              3205.5911              3240.6274
 Red. masses --      1.1028                 1.0883                 1.1013
 Frc consts  --      6.4007                 6.5888                 6.8140
 IR Inten    --     13.1343                 9.9972                 9.4910

 - Thermochemistry -
 -------------------
 Temperature   298.150 Kelvin.  Pressure   1.00000 Atm.
 Atom     1 has atomic number  6 and mass  12.00000

 Molecular mass:   152.12012 amu.
 Principal axes and moments of inertia in atomic units:
                           1         2         3
     Eigenvalues --   994.420622225.733402619.07471
           X            0.99985   0.01335  -0.01133
           Y           -0.01349   0.99984  -0.01169
           Z            0.01117   0.01184   0.99987
 This molecule is an asymmetric top.
 Rotational symmetry number  1.
 Warning -- assumption of classical behavior for rotation
           may cause significant error
 Rotational temperatures (Kelvin)      0.08710     0.03891     0.03307
 Rotational constants (GHZ):           1.81487     0.81085     0.68908
 Zero-point vibrational energy     630907.3 (Joules/Mol)
                                  150.79047 (Kcal/Mol)
 Warning -- explicit consideration of  18 degrees of freedom as
           vibrations may cause significant error
 Vibrational temperatures:     63.22   109.49   244.62   265.02   319.66
          (Kelvin)            341.13   363.06   377.64   392.36   436.83
                              468.22   472.34   514.95   585.13   625.60
                              741.74   773.54   883.74   994.26  1091.26
                             1100.81  1154.96  1213.03  1281.42  1362.23
                             1365.74  1400.90  1408.47  1432.20  1453.51
                             1501.02  1511.79  1553.49  1585.83  1615.59
                             1669.84  1736.54  1755.77  1807.59  1830.20
                             1861.39  1887.07  1926.03  1962.49  2001.16
                             2058.40  2058.78  2062.41  2103.59  2176.45
                             2181.30  2184.56  2198.02  2203.28  2211.24
                             2217.01  2228.42  2393.50  2606.75  4313.77
                             4377.15  4381.72  4390.54  4393.07  4409.10
                             4469.06  4476.08  4480.55  4483.78  4486.78
                             4490.09  4492.67  4515.83  4612.13  4662.54

 Zero-point correction=                           0.240300 (Hartree/Particle)
 Thermal correction to Energy=                    0.252148
 Thermal correction to Enthalpy=                  0.253093
 Thermal correction to Gibbs Free Energy=         0.203290
 Sum of electronic and zero-point Energies=           -465.726624
 Sum of electronic and thermal Energies=              -465.714776
 Sum of electronic and thermal Enthalpies=            -465.713831
 Sum of electronic and thermal Free Energies=         -465.763634

                     E (Thermal)             CV                S
                      KCal/Mol        Cal/Mol-Kelvin    Cal/Mol-Kelvin
 Total                  158.225             45.701            104.819
 Electronic               0.000              0.000              0.000
 Translational            0.889              2.981             40.968
 Rotational               0.889              2.981             30.140
 Vibrational            156.448             39.740             33.710
 Vibration     1          0.595              1.980              5.073
 Vibration     2          0.599              1.965              3.989
 Vibration     3          0.625              1.879              2.435
 Vibration     4          0.631              1.861              2.285
 Vibration     5          0.648              1.807              1.941
 Vibration     6          0.656              1.784              1.825
 Vibration     7          0.664              1.759              1.714
 Vibration     8          0.670              1.742              1.645
 Vibration     9          0.676              1.724              1.579
 Vibration    10          0.695              1.667              1.397
 Vibration    11          0.710              1.625              1.283
 Vibration    12          0.712              1.619              1.268
 Vibration    13          0.733              1.559              1.131
 Vibration    14          0.771              1.456              0.938
 Vibration    15          0.795              1.394              0.843
 Vibration    16          0.871              1.216              0.620
 Vibration    17          0.893              1.167              0.570
 Vibration    18          0.974              1.002              0.426

 Optimization completed.
    -- Stationary point found.
 Normal termination of Gaussian 16 at Tue Dec  8 21:18:25 2020.

 ----------------------------------------------------------------------
 # B3LYP/6-311++G(d,p) empiricaldispersion=gd3bj scf=xqc pop=npa geom=c
 heck
 ----------------------------------------------------------------------

 --------------------------------------
 CID_14219981_JID_1975_Energie_neutraal
 --------------------------------------
 Structure from the checkpoint file:  "JID_1975.chk"
 Charge =  0 Multiplicity = 1

 SCF Done:  E(RB3LYP) =  -466.098397282     A.U. after   14 cycles
 Normal termination of Gaussian 16 at Tue Dec  8 21:21:58 2020.

 ----------------------------------------------------------------------
 # B3LYP/6-311++G(d,p) empiricaldispersion=gd3bj scf=xqc pop=npa geom=c
 heck
 ----------------------------------------------------------------------

 ------------------------------------
 CID_14219981_JID_1975_Energie_kation
 ------------------------------------
 Structure from the checkpoint file:  "JID_1975.chk"
 Charge =  1 Multiplicity = 2

 SCF Done:  E(UB3LYP) =  -465.771963989     A.U. after   22 cycles
 Normal termination of Gaussian 16 at Tue Dec  8 21:29:59 2020.
 Gaussian 16:  ES64L-G16RevA.03 25-Dec-2016

 ----------------------------------------------------------------------
 # B3LYP/6-311++G(d,p) empiricaldispersion=gd3bj scf=xqc pop=npa geom=c
 heck
 ----------------------------------------------------------------------

 -----------------------------------
 CID_14219981_JID_1975_Energie_anion
 -----------------------------------
 Structure from the checkpoint file:  "JID_1975.chk"
 Charge = -1 Multiplicity = 2

                         Standard orientation:
 ---------------------------------------------------------------------
 Center     Atomic      Atomic             Coordinates (Angstroms)
 Number     Number       Type             X           Y           Z
 ---------------------------------------------------------------------
      1          6           0        1.402544    1.962735   -0.625799
      2          6           0        0.919457    0.706828    0.104088
      3          6           0       -0.243574   -0.050711   -0.586308
      4          6           0        0.291453   -1.458734   -0.735980
      5          6           0        1.544621   -1.612501   -0.284033
      6          6           0        2.054215   -0.325405    0.232166
      7          8           0        3.168244   -0.092668    0.665025
      8          6           0       -1.632947    0.030286    0.119969
      9          6           0       -2.036904    1.507315    0.267783
     10          6           0       -2.687957   -0.676689   -0.750697
     11          6           0       -1.595636   -0.638220    1.504425
     12          1           0        2.296635    2.357282   -0.134096
     13          1           0        0.630936    2.739316   -0.633736
     14          1           0        1.662766    1.731959   -1.665553
     15          1           0        0.640747    0.985222    1.127356
     16          1           0       -0.392732    0.365847   -1.595152
     17          1           0       -0.300633   -2.250906   -1.184861
     18          1           0        2.140213   -2.518332   -0.297808
     19          1           0       -2.060699    2.009589   -0.706784
     20          1           0       -3.036268    1.587849    0.710784
     21          1           0       -1.343881    2.057025    0.913086
     22          1           0       -2.487518   -1.748906   -0.850315
     23          1           0       -3.683481   -0.571634   -0.304633
     24          1           0       -2.725498   -0.243543   -1.757588
     25          1           0       -1.332990   -1.698950    1.428872
     26          1           0       -0.867853   -0.161894    2.170064
     27          1           0       -2.577333   -0.568007    1.986477
 ---------------------------------------------------------------------

 SCF Done:  E(UB3LYP) =  -466.096476761     A.U. after   31 cycles

 The electronic state is 2-A.
 Alpha  occ. eigenvalues --  -18.93431 -10.07680 -10.06612 -10.04611 -10.04330
 Alpha  occ. eigenvalues --  -10.04048 -10.03824 -10.03762 -10.03416 -10.02499
 Alpha  occ. eigenvalues --  -10.01699  -0.87192  -0.72482  -0.67604  -0.61986
 Alpha  occ. eigenvalues --   -0.57113  -0.56907  -0.54789  -0.50781  -0.44089
 Alpha  occ. eigenvalues --   -0.40471  -0.38453  -0.34897  -0.34040  -0.32101
 Alpha  occ. eigenvalues --   -0.31203  -0.30147  -0.28780  -0.27934  -0.27121
 Alpha  occ. eigenvalues --   -0.25854  -0.25542  -0.24944  -0.23904  -0.23093
 Alpha  occ. eigenvalues --   -0.22483  -0.21287  -0.20206  -0.19804  -0.18631
 Alpha  occ. eigenvalues --   -0.12817  -0.08857   0.05044
 Alpha virt. eigenvalues --    0.07528   0.08827   0.09129   0.09695   0.10953
 Alpha virt. eigenvalues --    0.11086   0.11398   0.11815   0.12363   0.13899
 Alpha virt. eigenvalues --    0.14183   0.14729   0.15101   0.15161   0.16364

  Beta  occ. eigenvalues --  -18.93082 -10.07455 -10.06597 -10.04638 -10.04303
  Beta  occ. eigenvalues --  -10.04015 -10.03796 -10.03780 -10.03382 -10.02090
  Beta  occ. eigenvalues --  -10.01694  -0.86558  -0.72298  -0.67388  -0.61764
  Beta  occ. eigenvalues --   -0.57052  -0.56838  -0.54642  -0.50335  -0.43708
  Beta  occ. eigenvalues --   -0.40247  -0.38270  -0.34698  -0.33860  -0.32034
  Beta  occ. eigenvalues --   -0.31025  -0.29929  -0.28680  -0.27840  -0.27055
  Beta  occ. eigenvalues --   -0.25601  -0.25174  -0.24859  -0.23588  -0.22968
  Beta  occ. eigenvalues --   -0.22345  -0.20650  -0.19645  -0.19637  -0.18482
  Beta  occ. eigenvalues --   -0.11246  -0.08569
  Beta virt. eigenvalues --    0.07571   0.09064   0.09377   0.09757   0.10830
  Beta virt. eigenvalues --    0.11158   0.11376   0.11599   0.12036   0.12399
  Beta virt. eigenvalues --    0.13995   0.14225   0.14757   0.15142   0.15314

 Mulliken charges and spin densities:
               1          2
     1  C   -0.053884  -0.665810
     2  C   -0.093156   0.422847
     3  C    1.269044  -0.954739
     4  C   -0.697726   0.509304
     5  C    0.186099  -0.109735
     6  C   -0.699725   0.181812
     7  O   -0.387064   0.118752
     8  C   -1.000332   1.607763
     9  C    0.382549  -1.038323
    10  C    0.171577  -0.769607
    11  C   -0.026584  -0.639677
    12  H    0.071787   0.080129
    13  H   -0.004400   0.137505
    14  H    0.034609   0.098590
    15  H    0.090037   0.087143
    16  H    0.139929   0.063172
    17  H    0.048627   0.051870
    18  H    0.108647   0.020479
    19  H   -0.170738   0.313825
    20  H   -0.072045   0.204592
    21  H   -0.094642   0.249218
    22  H   -0.078966   0.204379
    23  H   -0.079041   0.208575
    24  H   -0.108304   0.248236
    25  H    0.071980   0.087737
    26  H    0.020505   0.113955
    27  H   -0.028782   0.168011
 Sum of Mulliken charges =  -1.00000   1.00000

 Dipole moment (field-independent basis, Debye):
    X=             -2.2701    Y=             -0.7715    Z=             -0.7581  Tot=              2.5146
 Quadrupole moment (field-independent basis, Debye-Ang):
   XX=           -122.3214   YY=            -93.3094   ZZ=            -89.1552
   XY=              1.4345   XZ=             -4.8373   YZ=              1.0459

 Summary of Natural Population Analysis:

                                       Natural Population
                Natural  -----------------------------------------------
    Atom  No    Charge         Core      Valence    Rydberg      Total
 -----------------------------------------------------------------------
      C    1   -0.28051      0.99965     2.27386    0.00700     3.28051
      C    2   -0.15247      0.99956     2.14171    0.01119     3.15247
      C    3   -0.12456      0.99955     2.11246    0.01255     3.12456
      C    4    0.02170      0.99954     1.96986    0.00891     2.97830
      C    5   -0.16199      0.99946     2.15232    0.01021     3.16199
      C    6    0.29743      0.99962     1.68017    0.02278     2.70257
      O    7   -0.28007      0.99987     3.27336    0.00684     4.28007
      C    8   -0.04039      0.99957     2.02911    0.01172     3.04039
      C    9   -0.28435      0.99963     2.27708    0.00765     3.28435
      C   10   -0.28425      0.99963     2.27687    0.00776     3.28425
      C   11   -0.28651      0.99962     2.27951    0.00738     3.28651
      H   12    0.10403      0.00000     0.39492    0.00105     0.39597
      H   13    0.09477      0.00000     0.40440    0.00083     0.40523
      H   14    0.09450      0.00000     0.40467    0.00082     0.40550
      H   15    0.10610      0.00000     0.39201    0.00189     0.39390
      H   16    0.10298      0.00000     0.39537    0.00164     0.39702
      H   17    0.08678      0.00000     0.41224    0.00098     0.41322
      H   18    0.09530      0.00000     0.40321    0.00149     0.40470
      H   19    0.09962      0.00000     0.39927    0.00110     0.40038
      H   20    0.09546      0.00000     0.40370    0.00084     0.40454
      H   21    0.10144      0.00000     0.39763    0.00093     0.39856
      H   22    0.10031      0.00000     0.39880    0.00088     0.39969
      H   23    0.09612      0.00000     0.40304    0.00084     0.40388
      H   24    0.09851      0.00000     0.40060    0.00089     0.40149
      H   25    0.10491      0.00000     0.39425    0.00083     0.39509
      H   26    0.10053      0.00000     0.39864    0.00083     0.39947
      H   27    0.09461      0.00000     0.40464    0.00075     0.40539
 =======================================================================
   * Total *    0.00000     10.99570    30.87371    0.13059    42.00000

 Normal termination of Gaussian 16 at Tue Dec  8 21:40:48 2020.
