 Gaussian 16, Revision A.03,

 -----------------------------------------------------------
 # opt freq B3LYP/6-31G(d) empiricaldispersion=gd3bj scf=xqc
 -----------------------------------------------------------

 ----------------------------
 CID_122543_JID_6465_neutraal
 ----------------------------
 Symbolic Z-matrix:
 Charge =  0 Multiplicity = 1

 SCF Done:  E(RB3LYP) =  -661.260913813     A.U. after   13 cycles
 SCF Done:  E(RB3LYP) =  -661.270620431     A.U. after   11 cycles
 SCF Done:  E(RB3LYP) =  -661.272096272     A.U. after   11 cycles
 SCF Done:  E(RB3LYP) =  -661.272968785     A.U. after   11 cycles
 SCF Done:  E(RB3LYP) =  -661.273503276     A.U. after   11 cycles
 SCF Done:  E(RB3LYP) =  -661.274060634     A.U. after   11 cycles
 SCF Done:  E(RB3LYP) =  -661.274157402     A.U. after   10 cycles
 SCF Done:  E(RB3LYP) =  -661.274171167     A.U. after    9 cycles
 SCF Done:  E(RB3LYP) =  -661.274173718     A.U. after    9 cycles
 SCF Done:  E(RB3LYP) =  -661.274173906     A.U. after    8 cycles
 SCF Done:  E(RB3LYP) =  -661.274174169     A.U. after    7 cycles
 Optimization completed.
    -- Stationary point found.
 Normal termination of Gaussian 16 at Thu Dec 10 23:02:16 2020.

 --------------------------------------------------------------------
 #N Geom=AllCheck Guess=TCheck SCRF=Check GenChk RB3LYP/6-31G(d) Freq
 --------------------------------------------------------------------

 Structure from the checkpoint file:  "JID_6465.chk"
 ----------------------------
 CID_122543_JID_6465_neutraal
 ----------------------------
 Charge =  0 Multiplicity = 1

 SCF Done:  E(RB3LYP) =  -661.274174169     A.U. after    1 cycles

  Exact polarizability: 186.611   2.556 157.661  -7.536   6.978 122.978
 Approx polarizability: 242.896   7.454 224.682 -13.309  15.333 196.125

                      1                      2                      3
                      A                      A                      A
 Frequencies --     37.0089                50.2888                93.5518
 Red. masses --      3.1940                 3.4433                 3.1961
 Frc consts  --      0.0026                 0.0051                 0.0165
 IR Inten    --      0.2266                 0.3154                 0.0496

                      4                      5                      6
                      A                      A                      A
 Frequencies --    105.7435               147.1750               186.6115
 Red. masses --      3.4446                 3.3479                 2.7281
 Frc consts  --      0.0227                 0.0427                 0.0560
 IR Inten    --      1.5606                 0.0151                 0.2665

                      7                      8                      9
                      A                      A                      A
 Frequencies --    189.8929               200.2641               228.8090
 Red. masses --      1.1711                 2.8396                 2.7529
 Frc consts  --      0.0249                 0.0671                 0.0849
 IR Inten    --      0.3795                 0.6553                 0.4873

                     10                     11                     12
                      A                      A                      A
 Frequencies --    256.4763               269.3113               271.7921
 Red. masses --      1.1417                 2.4504                 2.7855
 Frc consts  --      0.0442                 0.1047                 0.1212
 IR Inten    --      0.2704                 3.3786                 0.4661

                     13                     14                     15
                      A                      A                      A
 Frequencies --    287.3374               291.0082               312.6810
 Red. masses --      2.2518                 1.1783                 2.3015
 Frc consts  --      0.1095                 0.0588                 0.1326
 IR Inten    --      0.7756                 0.7896                13.0498

                     16                     17                     18
                      A                      A                      A
 Frequencies --    329.2687               346.9818               357.2343
 Red. masses --      2.5142                 1.6706                 1.4802
 Frc consts  --      0.1606                 0.1185                 0.1113
 IR Inten    --      0.1864                23.5730                55.1734

                     19                     20                     21
                      A                      A                      A
 Frequencies --    377.2631               388.6649               428.6456
 Red. masses --      2.9258                 2.2737                 2.8027
 Frc consts  --      0.2453                 0.2024                 0.3034
 IR Inten    --      4.2690                 1.1672                 3.3634

                     22                     23                     24
                      A                      A                      A
 Frequencies --    436.4401               476.2411               513.9428
 Red. masses --      3.1175                 3.0077                 2.6737
 Frc consts  --      0.3499                 0.4019                 0.4161
 IR Inten    --      6.0560                 1.2880                 4.5850

                     25                     26                     27
                      A                      A                      A
 Frequencies --    520.9091               541.7506               591.8941
 Red. masses --      2.2871                 2.6863                 3.0574
 Frc consts  --      0.3656                 0.4645                 0.6311
 IR Inten    --      4.4968                 1.5178                 0.4931

                     28                     29                     30
                      A                      A                      A
 Frequencies --    615.7826               661.6248               728.6258
 Red. masses --      3.2309                 2.7992                 2.0247
 Frc consts  --      0.7218                 0.7220                 0.6333
 IR Inten    --      1.8673                 0.6742                 4.0222

                     31                     32                     33
                      A                      A                      A
 Frequencies --    742.9706               768.2563               829.4730
 Red. masses --      1.6552                 1.6292                 2.2792
 Frc consts  --      0.5383                 0.5665                 0.9239
 IR Inten    --      1.6309                 1.1200                 3.4516

                     34                     35                     36
                      A                      A                      A
 Frequencies --    855.1026               884.1368               909.4756
 Red. masses --      1.7488                 2.0232                 1.5723
 Frc consts  --      0.7534                 0.9318                 0.7663
 IR Inten    --      8.2376                 0.2507                 2.2546

                     37                     38                     39
                      A                      A                      A
 Frequencies --    916.0396               933.1116               943.2860
 Red. masses --      1.3978                 2.2253                 2.5403
 Frc consts  --      0.6911                 1.1416                 1.3317
 IR Inten    --     36.4512                 0.9991                 4.0108

                     40                     41                     42
                      A                      A                      A
 Frequencies --    950.2809               965.9394               971.8827
 Red. masses --      1.8937                 1.5958                 1.6175
 Frc consts  --      1.0076                 0.8773                 0.9001
 IR Inten    --      4.1413                 0.4557                 0.1616

                     43                     44                     45
                      A                      A                      A
 Frequencies --    995.2151              1010.0175              1021.7993
 Red. masses --      2.0963                 1.6505                 1.7744
 Frc consts  --      1.2233                 0.9920                 1.0915
 IR Inten    --      1.4602                12.6563                49.6461

                     46                     47                     48
                      A                      A                      A
 Frequencies --   1032.2309              1046.1686              1051.1082
 Red. masses --      2.4871                 2.4350                 2.3070
 Frc consts  --      1.5613                 1.5702                 1.5018
 IR Inten    --      4.6896                48.7054                23.7865

                     49                     50                     51
                      A                      A                      A
 Frequencies --   1061.1789              1080.9626              1088.9964
 Red. masses --      1.9963                 1.5930                 2.4579
 Frc consts  --      1.3245                 1.0967                 1.7174
 IR Inten    --      5.2615                 0.5345                 6.4611

                     52                     53                     54
                      A                      A                      A
 Frequencies --   1104.7767              1123.1665              1139.5825
 Red. masses --      3.1731                 1.7545                 2.0562
 Frc consts  --      2.2818                 1.3040                 1.5733
 IR Inten    --      2.9150                 5.6246                 3.0218

                     55                     56                     57
                      A                      A                      A
 Frequencies --   1180.5044              1190.9342              1203.6085
 Red. masses --      1.5260                 1.2260                 1.9915
 Frc consts  --      1.2530                 1.0245                 1.6998
 IR Inten    --      1.4040                 5.6243                 4.0117

                     58                     59                     60
                      A                      A                      A
 Frequencies --   1232.0589              1235.2686              1243.5517
 Red. masses --      2.1524                 1.4156                 1.6590
 Frc consts  --      1.9250                 1.2727                 1.5115
 IR Inten    --      3.0524                 4.7410                 2.0157

                     61                     62                     63
                      A                      A                      A
 Frequencies --   1249.1979              1272.2753              1277.5986
 Red. masses --      1.3943                 1.4326                 1.3432
 Frc consts  --      1.2819                 1.3663                 1.2918
 IR Inten    --      1.7226                16.3367                 1.1963

                     64                     65                     66
                      A                      A                      A
 Frequencies --   1303.6484              1309.0910              1319.6293
 Red. masses --      1.2305                 1.7512                 1.7659
 Frc consts  --      1.2321                 1.7682                 1.8118
 IR Inten    --      2.8020                 9.9526                 0.3955

                     67                     68                     69
                      A                      A                      A
 Frequencies --   1335.0285              1342.5548              1384.6276
 Red. masses --      1.4108                 1.4133                 1.7574
 Frc consts  --      1.4815                 1.5009                 1.9851
 IR Inten    --      2.3900                 3.0896                 1.0544

                     70                     71                     72
                      A                      A                      A
 Frequencies --   1401.4507              1404.9022              1415.7011
 Red. masses --      1.4879                 1.3564                 1.2837
 Frc consts  --      1.7218                 1.5773                 1.5158
 IR Inten    --      3.4268                 0.2818                 3.6498

                     73                     74                     75
                      A                      A                      A
 Frequencies --   1429.6780              1430.5317              1436.3557
 Red. masses --      1.2769                 1.2051                 1.3814
 Frc consts  --      1.5377                 1.4530                 1.6791
 IR Inten    --      6.9212                47.6790                 8.2052

                     76                     77                     78
                      A                      A                      A
 Frequencies --   1446.4944              1447.5029              1473.7249
 Red. masses --      1.2310                 1.3538                 1.1939
 Frc consts  --      1.5176                 1.6713                 1.5278
 IR Inten    --      1.6727                20.9055                 4.7220

                     79                     80                     81
                      A                      A                      A
 Frequencies --   1507.9492              1512.9305              1515.3029
 Red. masses --      1.0500                 1.0773                 1.0599
 Frc consts  --      1.4068                 1.4529                 1.4339
 IR Inten    --      7.2889                 2.3828                 1.0188

                     82                     83                     84
                      A                      A                      A
 Frequencies --   1518.7684              1524.0538              1529.5954
 Red. masses --      1.0772                 1.0714                 1.0831
 Frc consts  --      1.4639                 1.4662                 1.4930
 IR Inten    --      1.5962                 3.8784                 2.9255

                     85                     86                     87
                      A                      A                      A
 Frequencies --   1532.0009              1533.4625              1539.6474
 Red. masses --      1.0569                 1.0571                 1.0555
 Frc consts  --      1.4615                 1.4646                 1.4741
 IR Inten    --      8.9711                 1.9519                 8.3520

                     88                     89                     90
                      A                      A                      A
 Frequencies --   1555.6611              1727.2665              1744.1259
 Red. masses --      1.0841                 4.9230                 6.8431
 Frc consts  --      1.5458                 8.6536                12.2648
 IR Inten    --      4.4121                17.0913                 1.2531

                     91                     92                     93
                      A                      A                      A
 Frequencies --   3022.6421              3030.4281              3032.3711
 Red. masses --      1.0837                 1.0528                 1.0353
 Frc consts  --      5.8336                 5.6965                 5.6089
 IR Inten    --     10.4916                 9.4610                25.5523

                     94                     95                     96
                      A                      A                      A
 Frequencies --   3037.4798              3038.3419              3054.3882
 Red. masses --      1.0374                 1.0736                 1.0712
 Frc consts  --      5.6395                 5.8394                 5.8878
 IR Inten    --     29.5346                51.2376                26.3914

                     97                     98                     99
                      A                      A                      A
 Frequencies --   3055.8107              3057.0547              3066.7832
 Red. masses --      1.0716                 1.0767                 1.0587
 Frc consts  --      5.8957                 5.9287                 5.8669
 IR Inten    --      9.1479                45.1809                25.6458

                    100                    101                    102
                      A                      A                      A
 Frequencies --   3073.6158              3091.8456              3094.8561
 Red. masses --      1.0647                 1.0922                 1.1020
 Frc consts  --      5.9261                 6.1514                 6.2188
 IR Inten    --     10.4163                17.3603                 6.1701

                    103                    104                    105
                      A                      A                      A
 Frequencies --   3096.0292              3101.6063              3103.4895
 Red. masses --      1.0971                 1.1018                 1.1021
 Frc consts  --      6.1960                 6.2449                 6.2540
 IR Inten    --     14.7261                50.4197                40.5973

                    106                    107                    108
                      A                      A                      A
 Frequencies --   3108.9005              3111.7532              3112.5404
 Red. masses --      1.0885                 1.1027                 1.1009
 Frc consts  --      6.1987                 6.2912                 6.2839
 IR Inten    --      7.6225                21.0168                50.6273

                    109                    110                    111
                      A                      A                      A
 Frequencies --   3117.2710              3131.1859              3147.8022
 Red. masses --      1.1058                 1.1013                 1.0886
 Frc consts  --      6.3313                 6.3616                 6.3555
 IR Inten    --     51.9694                29.2771                23.4907

                    112                    113                    114
                      A                      A                      A
 Frequencies --   3162.3721              3239.3176              3723.7197
 Red. masses --      1.0609                 1.1141                 1.0659
 Frc consts  --      6.2508                 6.8876                 8.7084
 IR Inten    --      9.9778                16.4961                 8.1625

 - Thermochemistry -
 -------------------
 Temperature   298.150 Kelvin.  Pressure   1.00000 Atm.
 Atom     1 has atomic number  6 and mass  12.00000

 Molecular mass:   220.18272 amu.
 Principal axes and moments of inertia in atomic units:
                           1         2         3
     Eigenvalues --  2179.256595128.068236344.13332
           X            0.99995   0.00476  -0.00892
           Y           -0.00466   0.99992   0.01167
           Z            0.00898  -0.01163   0.99989
 This molecule is an asymmetric top.
 Rotational symmetry number  1.
 Warning -- assumption of classical behavior for rotation
           may cause significant error
 Rotational temperatures (Kelvin)      0.03974     0.01689     0.01365
 Rotational constants (GHZ):           0.82815     0.35193     0.28447
 Zero-point vibrational energy     952147.7 (Joules/Mol)
                                  227.56877 (Kcal/Mol)
 Warning -- explicit consideration of  28 degrees of freedom as
           vibrations may cause significant error
 Vibrational temperatures:     53.25    72.35   134.60   152.14   211.75
          (Kelvin)            268.49   273.21   288.14   329.21   369.01
                              387.48   391.05   413.41   418.70   449.88
                              473.74   499.23   513.98   542.80   559.20
                              616.73   627.94   685.20   739.45   749.47
                              779.46   851.60   885.97   951.93  1048.33
                             1068.97  1105.35  1193.43  1230.30  1272.08
                             1308.53  1317.98  1342.54  1357.18  1367.24
                             1389.77  1398.32  1431.89  1453.19  1470.14
                             1485.15  1505.20  1512.31  1526.80  1555.26
                             1566.82  1589.53  1615.99  1639.61  1698.48
                             1713.49  1731.72  1772.66  1777.28  1789.19
                             1797.32  1830.52  1838.18  1875.66  1883.49
                             1898.65  1920.81  1931.64  1992.17  2016.37
                             2021.34  2036.88  2056.99  2058.22  2066.60
                             2081.18  2082.63  2120.36  2169.60  2176.77
                             2180.18  2185.17  2192.77  2200.75  2204.21
                             2206.31  2215.21  2238.25  2485.15  2509.41
                             4348.91  4360.11  4362.91  4370.26  4371.50
                             4394.58  4396.63  4398.42  4412.42  4422.25
                             4448.48  4452.81  4454.50  4462.52  4465.23
                             4473.01  4477.12  4478.25  4485.06  4505.08
                             4528.99  4549.95  4660.66  5357.60

 Zero-point correction=                           0.362654 (Hartree/Particle)
 Thermal correction to Energy=                    0.379276
 Thermal correction to Enthalpy=                  0.380220
 Thermal correction to Gibbs Free Energy=         0.319858
 Sum of electronic and zero-point Energies=           -660.911520
 Sum of electronic and thermal Energies=              -660.894898
 Sum of electronic and thermal Enthalpies=            -660.893954
 Sum of electronic and thermal Free Energies=         -660.954317

                     E (Thermal)             CV                S
                      KCal/Mol        Cal/Mol-Kelvin    Cal/Mol-Kelvin
 Total                  237.999             66.633            127.043
 Electronic               0.000              0.000              0.000
 Translational            0.889              2.981             42.071
 Rotational               0.889              2.981             32.628
 Vibrational            236.222             60.672             52.345
 Vibration     1          0.594              1.982              5.413
 Vibration     2          0.595              1.977              4.806
 Vibration     3          0.603              1.954              3.584
 Vibration     4          0.605              1.945              3.346
 Vibration     5          0.617              1.906              2.708
 Vibration     6          0.632              1.858              2.261
 Vibration     7          0.633              1.854              2.229
 Vibration     8          0.638              1.840              2.131
 Vibration     9          0.651              1.797              1.888
 Vibration    10          0.666              1.752              1.686
 Vibration    11          0.674              1.730              1.601
 Vibration    12          0.675              1.725              1.585
 Vibration    13          0.685              1.697              1.490
 Vibration    14          0.687              1.690              1.468
 Vibration    15          0.701              1.650              1.348
 Vibration    16          0.712              1.617              1.264
 Vibration    17          0.725              1.581              1.180
 Vibration    18          0.732              1.560              1.134
 Vibration    19          0.748              1.519              1.050
 Vibration    20          0.757              1.494              1.005
 Vibration    21          0.790              1.408              0.863
 Vibration    22          0.797              1.391              0.838
 Vibration    23          0.833              1.303              0.720
 Vibration    24          0.869              1.219              0.624
 Vibration    25          0.876              1.204              0.608
 Vibration    26          0.897              1.158              0.562
 Vibration    27          0.949              1.049              0.464
 Vibration    28          0.975              0.999              0.423

                           ! Non-Optimized Parameters !
 Normal termination of Gaussian 16 at Thu Dec 10 23:18:04 2020.

 ----------------------------------------------------------------------
 # B3LYP/6-311++G(d,p) empiricaldispersion=gd3bj scf=xqc pop=npa geom=c
 heck
 ----------------------------------------------------------------------

 ------------------------------------
 CID_122543_JID_6465_Energie_neutraal
 ------------------------------------
 Structure from the checkpoint file:  "JID_6465.chk"
 Charge =  0 Multiplicity = 1

 SCF Done:  E(RB3LYP) =  -661.462288315     A.U. after   15 cycles
 Normal termination of Gaussian 16 at Thu Dec 10 23:25:27 2020.

 ----------------------------------------------------------------------
 # B3LYP/6-311++G(d,p) empiricaldispersion=gd3bj scf=xqc pop=npa geom=c
 heck
 ----------------------------------------------------------------------

 ----------------------------------
 CID_122543_JID_6465_Energie_kation
 ----------------------------------
 Structure from the checkpoint file:  "JID_6465.chk"
 Charge =  1 Multiplicity = 2

 SCF Done:  E(UB3LYP) =  -661.158683603     A.U. after   24 cycles
 Normal termination of Gaussian 16 at Thu Dec 10 23:41:27 2020.
 Gaussian 16:  ES64L-G16RevA.03 25-Dec-2016

 ----------------------------------------------------------------------
 # B3LYP/6-311++G(d,p) empiricaldispersion=gd3bj scf=xqc pop=npa geom=c
 heck
 ----------------------------------------------------------------------

 ---------------------------------
 CID_122543_JID_6465_Energie_anion
 ---------------------------------
 Structure from the checkpoint file:  "JID_6465.chk"
 Charge = -1 Multiplicity = 2

                         Standard orientation:
 ---------------------------------------------------------------------
 Center     Atomic      Atomic             Coordinates (Angstroms)
 Number     Number       Type             X           Y           Z
 ---------------------------------------------------------------------
      1          6           0        3.271166   -2.098976   -0.846921
      2          6           0        2.286918   -1.135360   -0.219376
      3          6           0        1.052809   -1.564301    0.092480
      4          6           0       -0.159499   -0.909099    0.712108
      5          6           0       -1.257982   -0.621927   -0.335428
      6          6           0       -1.485297    0.883989   -0.747622
      7          6           0       -2.834220    0.877341    0.006704
      8          6           0       -2.764669   -0.670415    0.126036
      9          6           0       -3.629473   -1.370550   -0.925051
     10          6           0       -3.068287   -1.223259    1.514746
     11          6           0       -0.447052    1.915383   -0.400085
     12          6           0       -0.727404    3.018580    0.300538
     13          6           0        0.960483    1.641701   -0.902420
     14          6           0        1.989244    1.428357    0.239538
     15          6           0        2.913844    0.232827    0.014343
     16          8           0        3.882010    0.142386    1.074775
     17          1           0        4.202004   -2.119149   -0.268554
     18          1           0        3.538207   -1.779767   -1.864178
     19          1           0        2.872179   -3.115990   -0.903668
     20          1           0        0.848924   -2.604461   -0.172298
     21          1           0        0.073103   -0.004352    1.274924
     22          1           0       -0.552544   -1.624611    1.444660
     23          1           0       -1.083230   -1.274562   -1.198181
     24          1           0       -1.647127    0.925358   -1.833685
     25          1           0       -2.756275    1.358827    0.986355
     26          1           0       -3.701517    1.292708   -0.517092
     27          1           0       -3.419918   -2.447322   -0.950574
     28          1           0       -4.696491   -1.238484   -0.706800
     29          1           0       -3.442136   -0.970519   -1.928677
     30          1           0       -2.477086   -0.725766    2.291000
     31          1           0       -4.127344   -1.068622    1.756169
     32          1           0       -2.869597   -2.300874    1.575187
     33          1           0        0.035708    3.764333    0.510932
     34          1           0       -1.722852    3.229090    0.678544
     35          1           0        0.944372    0.755672   -1.545404
     36          1           0        1.291838    2.472946   -1.535479
     37          1           0        1.476307    1.321305    1.199219
     38          1           0        2.630734    2.309114    0.347138
     39          1           0        3.525373    0.451898   -0.871100
     40          1           0        3.397792   -0.171603    1.855810
 ---------------------------------------------------------------------

 SCF Done:  E(UB3LYP) =  -661.448902939     A.U. after   33 cycles
 SCF Done:  E(UB3LYP) =  -661.448902940     a.u. after    1 cycles

 The electronic state is 2-A.
 Alpha  occ. eigenvalues --  -19.03194 -10.13000 -10.08173 -10.08128 -10.08063
 Alpha  occ. eigenvalues --  -10.07621 -10.07410 -10.07385 -10.07350 -10.07328
 Alpha  occ. eigenvalues --  -10.07272 -10.06750 -10.06134 -10.06010 -10.05736
 Alpha  occ. eigenvalues --  -10.05585  -0.93207  -0.76690  -0.72312  -0.70733
 Alpha  occ. eigenvalues --   -0.66475  -0.64923  -0.62748  -0.58880  -0.58064
 Alpha  occ. eigenvalues --   -0.56756  -0.54225  -0.51134  -0.50718  -0.45323
 Alpha  occ. eigenvalues --   -0.43279  -0.40638  -0.39307  -0.38590  -0.37748
 Alpha  occ. eigenvalues --   -0.36253  -0.35633  -0.34851  -0.33911  -0.33731
 Alpha  occ. eigenvalues --   -0.32523  -0.31939  -0.31184  -0.30068  -0.29627
 Alpha  occ. eigenvalues --   -0.28429  -0.27793  -0.27209  -0.26671  -0.26251
 Alpha  occ. eigenvalues --   -0.26128  -0.24865  -0.24554  -0.23156  -0.21791
 Alpha  occ. eigenvalues --   -0.20921  -0.20087  -0.19428  -0.18546  -0.14785
 Alpha  occ. eigenvalues --   -0.14655   0.04303
 Alpha virt. eigenvalues --    0.06423   0.06678   0.07026   0.08200   0.08287
 Alpha virt. eigenvalues --    0.08514   0.09021   0.09211   0.09571   0.10274
 Alpha virt. eigenvalues --    0.10695   0.11046   0.11331   0.11369   0.11635

  Beta  occ. eigenvalues --  -19.03181 -10.12989 -10.08172 -10.08126 -10.08038
  Beta  occ. eigenvalues --  -10.07616 -10.07394 -10.07360 -10.07340 -10.07318
  Beta  occ. eigenvalues --  -10.07261 -10.06732 -10.06119 -10.05979 -10.05701
  Beta  occ. eigenvalues --  -10.05555  -0.93178  -0.76667  -0.72281  -0.70686
  Beta  occ. eigenvalues --   -0.66442  -0.64895  -0.62706  -0.58818  -0.58019
  Beta  occ. eigenvalues --   -0.56711  -0.54174  -0.51084  -0.50676  -0.45282
  Beta  occ. eigenvalues --   -0.43215  -0.40589  -0.39269  -0.38557  -0.37710
  Beta  occ. eigenvalues --   -0.36209  -0.35602  -0.34817  -0.33877  -0.33698
  Beta  occ. eigenvalues --   -0.32492  -0.31902  -0.31161  -0.30036  -0.29597
  Beta  occ. eigenvalues --   -0.28401  -0.27767  -0.27173  -0.26632  -0.26219
  Beta  occ. eigenvalues --   -0.26094  -0.24831  -0.24523  -0.23133  -0.21756
  Beta  occ. eigenvalues --   -0.20893  -0.20047  -0.19400  -0.18523  -0.14704
  Beta  occ. eigenvalues --   -0.14537
  Beta virt. eigenvalues --    0.06307   0.07087   0.07161   0.07401   0.08553
  Beta virt. eigenvalues --    0.08752   0.08780   0.09332   0.09476   0.09857
  Beta virt. eigenvalues --    0.10655   0.10975   0.11357   0.11541   0.11638

 Mulliken charges and spin densities:
               1          2
     1  C    1.048817  -1.589544
     2  C   -0.378994   1.089880
     3  C   -0.148089  -0.340584
     4  C    0.674449  -0.757803
     5  C    0.361449  -0.469420
     6  C   -0.146737  -0.713709
     7  C   -0.267309  -0.348263
     8  C   -0.968034   1.550468
     9  C    1.072071  -1.761171
    10  C    0.212311  -0.809187
    11  C    0.994496   0.051033
    12  C   -0.079076  -0.379347
    13  C   -0.378994  -0.038054
    14  C   -0.360422   0.322180
    15  C   -1.311104  -0.030505
    16  O   -0.137205   0.013611
    17  H    0.113988   0.046663
    18  H   -0.053455   0.198668
    19  H   -0.181221   0.322080
    20  H   -0.400685   0.573888
    21  H    0.238620  -0.099500
    22  H   -0.003521   0.192770
    23  H    0.140580   0.110303
    24  H   -0.016349   0.243029
    25  H    0.165202  -0.062742
    26  H   -0.195557   0.357582
    27  H   -0.192339   0.333168
    28  H   -0.072215   0.211335
    29  H   -0.355478   0.513763
    30  H   -0.166004   0.311501
    31  H   -0.176523   0.331919
    32  H   -0.061424   0.215423
    33  H    0.089507   0.037660
    34  H   -0.089475   0.235177
    35  H    0.126218   0.039902
    36  H   -0.281869   0.506618
    37  H    0.096146   0.072953
    38  H   -0.032485   0.205993
    39  H   -0.030128   0.214308
    40  H    0.150841   0.097955
 Sum of Mulliken charges =  -1.00000   1.00000

 Dipole moment (field-independent basis, Debye):
    X=              2.4607    Y=              1.7052    Z=              2.3838  Tot=              3.8269
 Quadrupole moment (field-independent basis, Debye-Ang):
   XX=           -181.4646   YY=           -154.2749   ZZ=           -137.0260
   XY=             -5.9770   XZ=             -1.5539   YZ=              2.1927

 Summary of Natural Population Analysis:

                                       Natural Population
                Natural  -----------------------------------------------
    Atom  No    Charge         Core      Valence    Rydberg      Total
 -----------------------------------------------------------------------
      C    1   -0.29144      0.99963     2.28660    0.00521     3.29144
      C    2   -0.03056      0.99947     2.01939    0.01171     3.03056
      C    3   -0.07813      0.99946     2.06822    0.01045     3.07813
      C    4   -0.21673      0.99959     2.20737    0.00978     3.21673
      C    5   -0.08806      0.99954     2.07662    0.01190     3.08806
      C    6   -0.12033      0.99953     2.10894    0.01185     3.12033
      C    7   -0.18323      0.99959     2.17435    0.00929     3.18323
      C    8   -0.03993      0.99957     2.02744    0.01292     3.03993
      C    9   -0.28092      0.99962     2.27440    0.00690     3.28092
      C   10   -0.28740      0.99961     2.28113    0.00666     3.28740
      C   11    0.01312      0.99951     1.97613    0.01124     2.98688
      C   12   -0.20371      0.99947     2.19691    0.00732     3.20371
      C   13   -0.21104      0.99958     2.20198    0.00949     3.21104
      C   14   -0.19618      0.99960     2.18713    0.00944     3.19618
      C   15    0.05681      0.99949     1.93105    0.01265     2.94319
      O   16   -0.36880      0.99990     3.36298    0.00592     4.36880
      H   17    0.10486      0.00000     0.39379    0.00135     0.39514
      H   18    0.09930      0.00000     0.39940    0.00130     0.40070
      H   19    0.10052      0.00000     0.39847    0.00101     0.39948
      H   20    0.09283      0.00000     0.40575    0.00142     0.40717
      H   21    0.10264      0.00000     0.39578    0.00158     0.39736
      H   22    0.10804      0.00000     0.39044    0.00152     0.39196
      H   23    0.10049      0.00000     0.39766    0.00185     0.39951
      H   24    0.10872      0.00000     0.38965    0.00162     0.39128
      H   25    0.09762      0.00000     0.40096    0.00142     0.40238
      H   26    0.09934      0.00000     0.39957    0.00110     0.40066
      H   27    0.10048      0.00000     0.39822    0.00130     0.39952
      H   28    0.09862      0.00000     0.40030    0.00108     0.40138
      H   29    0.10043      0.00000     0.39812    0.00145     0.39957
      H   30    0.09909      0.00000     0.39990    0.00102     0.40091
      H   31    0.10189      0.00000     0.39718    0.00093     0.39811
      H   32    0.10146      0.00000     0.39738    0.00116     0.39854
      H   33    0.09200      0.00000     0.40717    0.00083     0.40800
      H   34    0.09451      0.00000     0.40463    0.00087     0.40549
      H   35    0.10438      0.00000     0.39357    0.00206     0.39562
      H   36    0.10709      0.00000     0.39169    0.00122     0.39291
      H   37    0.09655      0.00000     0.40196    0.00149     0.40345
      H   38    0.10270      0.00000     0.39616    0.00114     0.39730
      H   39    0.08702      0.00000     0.41113    0.00185     0.41298
      H   40    0.22596      0.00000     0.27130    0.00274     0.27404
 =======================================================================
   * Total *   -0.00000     15.99315    44.82082    0.18603    61.00000

 Normal termination of Gaussian 16 at Fri Dec 11 00:04:03 2020.
