 Gaussian 16, Revision A.03,

 -----------------------------------------------------------
 # opt freq B3LYP/6-31G(d) empiricaldispersion=gd3bj scf=xqc
 -----------------------------------------------------------

 ------------------------------
 CID_79515607_JID_7325_neutraal
 ------------------------------
 Symbolic Z-matrix:
 Charge =  0 Multiplicity = 1

 SCF Done:  E(RB3LYP) =  -786.093998500     A.U. after   15 cycles
 SCF Done:  E(RB3LYP) =  -786.074642578     A.U. after   14 cycles
 SCF Done:  E(RB3LYP) =  -786.100899069     A.U. after   13 cycles
 SCF Done:  E(RB3LYP) =  -786.102030526     A.U. after   13 cycles
 SCF Done:  E(RB3LYP) =  -786.099263150     A.U. after   14 cycles
 SCF Done:  E(RB3LYP) =  -786.102495646     A.U. after   13 cycles
 SCF Done:  E(RB3LYP) =  -786.103152896     A.U. after   12 cycles
 SCF Done:  E(RB3LYP) =  -786.103427620     A.U. after   12 cycles
 SCF Done:  E(RB3LYP) =  -786.103603036     A.U. after   13 cycles
 SCF Done:  E(RB3LYP) =  -786.103764752     A.U. after   11 cycles
 SCF Done:  E(RB3LYP) =  -786.103801442     A.U. after   11 cycles
 SCF Done:  E(RB3LYP) =  -786.103823015     A.U. after   10 cycles
 SCF Done:  E(RB3LYP) =  -786.103826717     A.U. after    9 cycles
 SCF Done:  E(RB3LYP) =  -786.103827020     A.U. after    8 cycles
 SCF Done:  E(RB3LYP) =  -786.103827111     A.U. after    7 cycles
 Optimization completed.
    -- Stationary point found.
 Normal termination of Gaussian 16 at Sun Dec 13 12:34:09 2020.

 --------------------------------------------------------------------
 #N Geom=AllCheck Guess=TCheck SCRF=Check GenChk RB3LYP/6-31G(d) Freq
 --------------------------------------------------------------------

 Structure from the checkpoint file:  "JID_7325.chk"
 ------------------------------
 CID_79515607_JID_7325_neutraal
 ------------------------------
 Charge =  0 Multiplicity = 1

 SCF Done:  E(RB3LYP) =  -786.103827111     A.U. after    1 cycles

  Exact polarizability: 160.022  -9.179 119.524  -0.136  -7.121 126.731
 Approx polarizability: 232.421 -18.216 171.828  -0.119 -17.921 223.582

                      1                      2                      3
                      A                      A                      A
 Frequencies --     53.4801                66.2594                78.7948
 Red. masses --      4.3250                 9.1878                 4.4733
 Frc consts  --      0.0073                 0.0238                 0.0164
 IR Inten    --      0.7728                 1.7512                 0.1911

                      4                      5                      6
                      A                      A                      A
 Frequencies --     93.2445               113.4171               117.8680
 Red. masses --      3.7310                 4.5045                 4.3858
 Frc consts  --      0.0191                 0.0341                 0.0359
 IR Inten    --      0.8297                 2.2663                11.6361

                      7                      8                      9
                      A                      A                      A
 Frequencies --    152.3349               174.3644               194.8882
 Red. masses --      5.2983                 2.8837                 2.6705
 Frc consts  --      0.0724                 0.0517                 0.0598
 IR Inten    --      1.9903                 0.0757                 0.0336

                     10                     11                     12
                      A                      A                      A
 Frequencies --    222.7458               249.8546               273.0376
 Red. masses --      1.8841                 2.0303                 2.1467
 Frc consts  --      0.0551                 0.0747                 0.0943
 IR Inten    --      1.2079                 1.9787                 3.4381

                     13                     14                     15
                      A                      A                      A
 Frequencies --    305.8801               321.9615               370.4295
 Red. masses --      3.2354                 2.0857                 2.9681
 Frc consts  --      0.1784                 0.1274                 0.2400
 IR Inten    --      1.1142                 5.2643                 6.3983

                     16                     17                     18
                      A                      A                      A
 Frequencies --    418.9815               419.3794               430.6572
 Red. masses --      3.1191                 4.8827                 3.0669
 Frc consts  --      0.3226                 0.5060                 0.3351
 IR Inten    --      5.7796                13.4169                 5.8320

                     19                     20                     21
                      A                      A                      A
 Frequencies --    455.9341               526.8825               546.2928
 Red. masses --      2.6570                 3.4452                 2.6687
 Frc consts  --      0.3254                 0.5635                 0.4693
 IR Inten    --      2.6451                 7.6979                 2.7376

                     22                     23                     24
                      A                      A                      A
 Frequencies --    564.1272               613.9458               625.1384
 Red. masses --      3.7525                 3.8201                 2.9021
 Frc consts  --      0.7036                 0.8484                 0.6682
 IR Inten    --      4.1813                 3.1332                 0.5556

                     25                     26                     27
                      A                      A                      A
 Frequencies --    627.3325               678.5943               695.8634
 Red. masses --      3.8479                 3.5082                 2.8094
 Frc consts  --      0.8922                 0.9518                 0.8015
 IR Inten    --      1.1707                 8.9682                 3.0937

                     28                     29                     30
                      A                      A                      A
 Frequencies --    723.8262               727.7826               765.6221
 Red. masses --      1.5335                 2.8282                 2.8063
 Frc consts  --      0.4734                 0.8826                 0.9692
 IR Inten    --     44.5395                 4.8787                 0.9610

                     31                     32                     33
                      A                      A                      A
 Frequencies --    821.9095               834.6016               874.1509
 Red. masses --      1.3524                 2.0300                 1.3111
 Frc consts  --      0.5383                 0.8331                 0.5903
 IR Inten    --     25.1772                 6.6925                 8.0235

                     34                     35                     36
                      A                      A                      A
 Frequencies --    901.6725               904.3245               909.6590
 Red. masses --      2.2774                 1.8896                 6.1645
 Frc consts  --      1.0909                 0.9105                 3.0054
 IR Inten    --      5.3879                 3.4348                 5.4111

                     37                     38                     39
                      A                      A                      A
 Frequencies --    920.4872               934.6863               974.6369
 Red. masses --      2.2384                 2.9992                 2.0632
 Frc consts  --      1.1175                 1.5438                 1.1547
 IR Inten    --      8.4650                 8.9853                 4.5066

                     40                     41                     42
                      A                      A                      A
 Frequencies --    986.0969              1005.1335              1019.4062
 Red. masses --      2.0846                 1.8207                 2.1335
 Frc consts  --      1.1943                 1.0838                 1.3063
 IR Inten    --      1.6224                 2.5703                 3.8850

                     43                     44                     45
                      A                      A                      A
 Frequencies --   1042.8833              1066.4729              1097.3798
 Red. masses --      1.3888                 1.9389                 2.4075
 Frc consts  --      0.8900                 1.2993                 1.7082
 IR Inten    --     17.8851                15.1724                 2.3811

                     46                     47                     48
                      A                      A                      A
 Frequencies --   1104.0219              1131.0967              1143.4942
 Red. masses --      2.2260                 2.4742                 1.7976
 Frc consts  --      1.5985                 1.8651                 1.3849
 IR Inten    --      1.6952                 3.9290                 8.0597

                     49                     50                     51
                      A                      A                      A
 Frequencies --   1168.2945              1180.2943              1195.4097
 Red. masses --      1.8775                 1.7680                 2.4097
 Frc consts  --      1.5099                 1.4512                 2.0288
 IR Inten    --     18.8669                13.6983                22.7875

                     52                     53                     54
                      A                      A                      A
 Frequencies --   1203.1047              1225.8127              1252.7350
 Red. masses --      2.0017                 1.7943                 2.2808
 Frc consts  --      1.7071                 1.5885                 2.1089
 IR Inten    --     47.7054                17.3323                 2.6645

                     55                     56                     57
                      A                      A                      A
 Frequencies --   1257.6449              1275.7470              1284.9011
 Red. masses --      1.7767                 1.5168                 1.3879
 Frc consts  --      1.6557                 1.4545                 1.3501
 IR Inten    --     11.3079                12.8746                 1.3593

                     58                     59                     60
                      A                      A                      A
 Frequencies --   1290.4656              1296.8554              1364.9418
 Red. masses --      1.2681                 1.5900                 1.4943
 Frc consts  --      1.2442                 1.5755                 1.6402
 IR Inten    --      2.0336                 6.4169                 7.8851

                     61                     62                     63
                      A                      A                      A
 Frequencies --   1372.4600              1373.8695              1385.1362
 Red. masses --      1.5468                 1.8015                 1.4324
 Frc consts  --      1.7167                 2.0034                 1.6192
 IR Inten    --     73.5428                74.1143                 8.8300

                     64                     65                     66
                      A                      A                      A
 Frequencies --   1406.6227              1410.7020              1435.4355
 Red. masses --      1.3987                 1.4619                 2.1960
 Frc consts  --      1.6305                 1.7141                 2.6660
 IR Inten    --     28.2353                 9.2064                 1.9578

                     67                     68                     69
                      A                      A                      A
 Frequencies --   1443.0245              1467.2467              1473.9295
 Red. masses --      1.2749                 1.0849                 1.0990
 Frc consts  --      1.5641                 1.3761                 1.4068
 IR Inten    --     19.6083                12.4199                15.6844

                     70                     71                     72
                      A                      A                      A
 Frequencies --   1494.1640              1498.6044              1512.2017
 Red. masses --      1.5542                 1.1342                 1.0589
 Frc consts  --      2.0444                 1.5008                 1.4267
 IR Inten    --     33.5374                18.3097                10.4863

                     73                     74                     75
                      A                      A                      A
 Frequencies --   1522.9377              1535.3237              1542.0626
 Red. masses --      1.1050                 1.0569                 1.1380
 Frc consts  --      1.5100                 1.4678                 1.5943
 IR Inten    --      3.8626                 0.5046                23.0992

                     76                     77                     78
                      A                      A                      A
 Frequencies --   1556.1914              1650.4756              1767.7160
 Red. masses --      4.6420                 6.1807                 9.5650
 Frc consts  --      6.6233                 9.9198                17.6101
 IR Inten    --     16.1526                11.7537               266.5528

                     79                     80                     81
                      A                      A                      A
 Frequencies --   1830.5004              3011.8383              3020.3311
 Red. masses --     12.1214                 1.0737                 1.0711
 Frc consts  --     23.9301                 5.7386                 5.7571
 IR Inten    --    174.6306                51.7778                 3.5587

                     82                     83                     84
                      A                      A                      A
 Frequencies --   3034.9252              3037.8006              3054.1078
 Red. masses --      1.0742                 1.0786                 1.0611
 Frc consts  --      5.8294                 5.8643                 5.8315
 IR Inten    --      2.5835                37.8070                29.5619

                     85                     86                     87
                      A                      A                      A
 Frequencies --   3065.7793              3075.3637              3087.6063
 Red. masses --      1.0466                 1.0600                 1.1031
 Frc consts  --      5.7955                 5.9065                 6.1961
 IR Inten    --     46.2314                11.3562                34.4717

                     88                     89                     90
                      A                      A                      A
 Frequencies --   3119.1445              3125.2855              3127.0696
 Red. masses --      1.1008                 1.1007                 1.0934
 Frc consts  --      6.3103                 6.3345                 6.2993
 IR Inten    --      5.6271                21.5472                19.7208

                     91                     92                     93
                      A                      A                      A
 Frequencies --   3140.8296              3172.2977              3195.2889
 Red. masses --      1.0908                 1.0919                 1.0964
 Frc consts  --      6.3397                 6.4744                 6.5955
 IR Inten    --      3.4358                 1.1479                 7.4456

                     94                     95                     96
                      A                      A                      A
 Frequencies --   3274.1525              3287.6293              3303.6470
 Red. masses --      1.0901                 1.0968                 1.1064
 Frc consts  --      6.8853                 6.9849                 7.1144
 IR Inten    --      1.1684                 0.2330                 1.2927

 - Thermochemistry -
 -------------------
 Temperature   298.150 Kelvin.  Pressure   1.00000 Atm.
 Atom     1 has atomic number  6 and mass  12.00000

 Molecular mass:   235.12084 amu.
 Principal axes and moments of inertia in atomic units:
                           1         2         3
     Eigenvalues --  2878.290243508.573454784.82694
           X            0.99986  -0.01612   0.00515
           Y            0.01607   0.99982   0.01022
           Z           -0.00531  -0.01014   0.99993
 This molecule is an asymmetric top.
 Rotational symmetry number  1.
 Warning -- assumption of classical behavior for rotation
           may cause significant error
 Rotational temperatures (Kelvin)      0.03009     0.02469     0.01810
 Rotational constants (GHZ):           0.62702     0.51438     0.37718
 Zero-point vibrational energy     754179.4 (Joules/Mol)
                                  180.25319 (Kcal/Mol)
 Warning -- explicit consideration of  23 degrees of freedom as
           vibrations may cause significant error
 Vibrational temperatures:     76.95    95.33   113.37   134.16   163.18
          (Kelvin)            169.59   219.18   250.87   280.40   320.48
                              359.49   392.84   440.09   463.23   532.97
                              602.82   603.39   619.62   655.99   758.07
                              785.99   811.65   883.33   899.43   902.59
                              976.35  1001.19  1041.42  1047.12  1101.56
                             1182.54  1200.81  1257.71  1297.31  1301.12
                             1308.80  1324.38  1344.81  1402.29  1418.77
                             1446.16  1466.70  1500.48  1534.42  1578.88
                             1588.44  1627.40  1645.23  1680.92  1698.18
                             1719.93  1731.00  1763.67  1802.41  1809.47
                             1835.52  1848.69  1856.69  1865.89  1963.85
                             1974.66  1976.69  1992.90  2023.82  2029.69
                             2065.27  2076.19  2111.04  2120.66  2149.77
                             2156.16  2175.72  2191.17  2208.99  2218.68
                             2239.01  2374.67  2543.35  2633.68  4333.36
                             4345.58  4366.58  4370.72  4394.18  4410.97
                             4424.76  4442.38  4487.75  4496.59  4499.16
                             4518.95  4564.23  4597.31  4710.78  4730.17
                             4753.21

 Zero-point correction=                           0.287252 (Hartree/Particle)
 Thermal correction to Energy=                    0.302772
 Thermal correction to Enthalpy=                  0.303716
 Thermal correction to Gibbs Free Energy=         0.244849
 Sum of electronic and zero-point Energies=           -785.816575
 Sum of electronic and thermal Energies=              -785.801055
 Sum of electronic and thermal Enthalpies=            -785.800111
 Sum of electronic and thermal Free Energies=         -785.858978

                     E (Thermal)             CV                S
                      KCal/Mol        Cal/Mol-Kelvin    Cal/Mol-Kelvin
 Total                  189.992             60.415            123.896
 Electronic               0.000              0.000              0.000
 Translational            0.889              2.981             42.266
 Rotational               0.889              2.981             32.247
 Vibrational            188.215             54.453             49.383
 Vibration     1          0.596              1.976              4.684
 Vibration     2          0.598              1.970              4.262
 Vibration     3          0.600              1.963              3.921
 Vibration     4          0.602              1.954              3.591
 Vibration     5          0.607              1.938              3.210
 Vibration     6          0.608              1.934              3.135
 Vibration     7          0.619              1.900              2.643
 Vibration     8          0.627              1.874              2.388
 Vibration     9          0.636              1.847              2.181
 Vibration    10          0.648              1.806              1.937
 Vibration    11          0.663              1.763              1.732
 Vibration    12          0.676              1.723              1.577
 Vibration    13          0.696              1.663              1.385
 Vibration    14          0.707              1.631              1.300
 Vibration    15          0.742              1.533              1.078
 Vibration    16          0.782              1.429              0.895
 Vibration    17          0.782              1.428              0.894
 Vibration    18          0.792              1.403              0.857
 Vibration    19          0.814              1.348              0.778
 Vibration    20          0.882              1.190              0.594
 Vibration    21          0.901              1.148              0.552
 Vibration    22          0.920              1.109              0.516
 Vibration    23          0.973              1.002              0.426

                           ! Non-Optimized Parameters !
 Normal termination of Gaussian 16 at Sun Dec 13 12:50:06 2020.

 ----------------------------------------------------------------------
 # B3LYP/6-311++G(d,p) empiricaldispersion=gd3bj scf=xqc pop=npa geom=c
 heck
 ----------------------------------------------------------------------

 --------------------------------------
 CID_79515607_JID_7325_Energie_neutraal
 --------------------------------------
 Structure from the checkpoint file:  "JID_7325.chk"
 Charge =  0 Multiplicity = 1

 SCF Done:  E(RB3LYP) =  -786.324048075     A.U. after   16 cycles
 Normal termination of Gaussian 16 at Sun Dec 13 12:57:29 2020.

 ----------------------------------------------------------------------
 # B3LYP/6-311++G(d,p) empiricaldispersion=gd3bj scf=xqc pop=npa geom=c
 heck
 ----------------------------------------------------------------------

 ------------------------------------
 CID_79515607_JID_7325_Energie_kation
 ------------------------------------
 Structure from the checkpoint file:  "JID_7325.chk"
 Charge =  1 Multiplicity = 2

 SCF Done:  E(UB3LYP) =  -786.029821382     A.U. after   28 cycles
 Normal termination of Gaussian 16 at Sun Dec 13 13:17:01 2020.
 Gaussian 16:  ES64L-G16RevA.03 25-Dec-2016

 ----------------------------------------------------------------------
 # B3LYP/6-311++G(d,p) empiricaldispersion=gd3bj scf=xqc pop=npa geom=c
 heck
 ----------------------------------------------------------------------

 -----------------------------------
 CID_79515607_JID_7325_Energie_anion
 -----------------------------------
 Structure from the checkpoint file:  "JID_7325.chk"
 Charge = -1 Multiplicity = 2

                         Standard orientation:
 ---------------------------------------------------------------------
 Center     Atomic      Atomic             Coordinates (Angstroms)
 Number     Number       Type             X           Y           Z
 ---------------------------------------------------------------------
      1          6           0       -3.482006   -0.178925    0.295150
      2          6           0       -2.308946    0.017536   -0.671111
      3          6           0       -1.856416    1.486462   -0.787470
      4          6           0       -1.087695    2.060746    0.424615
      5          6           0        0.380065    1.793851    0.401248
      6          6           0        1.257499    1.215710    1.272695
      7          6           0        2.561142    1.310199    0.678113
      8          6           0        2.389168    1.940034   -0.514515
      9          8           0        1.065105    2.245799   -0.701700
     10          7           0       -1.173949   -0.900829   -0.430099
     11          6           0       -0.454054   -1.404782   -1.606187
     12          6           0        1.061358   -1.270481   -1.453784
     13          6           0        1.551649   -1.852688   -0.138872
     14          8           0        2.726037   -2.016398    0.115586
     15          6           0        0.439276   -2.213622    0.835661
     16          6           0       -0.726782   -1.226370    0.820093
     17          8           0       -1.193206   -0.788756    1.867350
     18          1           0       -3.264847    0.185985    1.297182
     19          1           0       -3.737938   -1.240047    0.374626
     20          1           0       -4.352413    0.354069   -0.103876
     21          1           0       -2.682416   -0.271902   -1.661099
     22          1           0       -1.235688    1.608183   -1.683250
     23          1           0       -2.759050    2.086416   -0.956415
     24          1           0       -1.242297    3.148024    0.442017
     25          1           0       -1.486104    1.663062    1.360377
     26          1           0        0.993823    0.760386    2.215676
     27          1           0        3.490437    0.932633    1.079380
     28          1           0        3.054802    2.237897   -1.309663
     29          1           0       -0.728398   -2.453216   -1.797771
     30          1           0       -0.786793   -0.828078   -2.471444
     31          1           0        1.351061   -0.213541   -1.465063
     32          1           0        1.588889   -1.760024   -2.279470
     33          1           0        0.827172   -2.292382    1.850806
     34          1           0        0.058373   -3.202833    0.534969
 ---------------------------------------------------------------------

 SCF Done:  E(UB3LYP) =  -786.314535088     A.U. after   33 cycles
 SCF Done:  E(UB3LYP) =  -786.314535087     a.u. after    1 cycles

 The electronic state is 2-A.
 Alpha  occ. eigenvalues --  -19.08990 -19.01394 -18.98814 -14.24464 -10.17622
 Alpha  occ. eigenvalues --  -10.16339 -10.12901 -10.12488 -10.11369 -10.11278
 Alpha  occ. eigenvalues --  -10.08944 -10.08130 -10.07979 -10.07816 -10.07006
 Alpha  occ. eigenvalues --  -10.06969 -10.05543  -1.01240  -0.94965  -0.94043
 Alpha  occ. eigenvalues --   -0.84531  -0.72204  -0.70604  -0.69231  -0.66160
 Alpha  occ. eigenvalues --   -0.65614  -0.61305  -0.56852  -0.55465  -0.51514
 Alpha  occ. eigenvalues --   -0.50552  -0.46086  -0.45386  -0.43010  -0.41717
 Alpha  occ. eigenvalues --   -0.41420  -0.39742  -0.37870  -0.36840  -0.35651
 Alpha  occ. eigenvalues --   -0.35149  -0.34714  -0.33297  -0.32795  -0.32388
 Alpha  occ. eigenvalues --   -0.31285  -0.30875  -0.30260  -0.29471  -0.29206
 Alpha  occ. eigenvalues --   -0.28848  -0.28364  -0.27369  -0.26674  -0.25382
 Alpha  occ. eigenvalues --   -0.24937  -0.24423  -0.23216  -0.18724  -0.16700
 Alpha  occ. eigenvalues --   -0.15024  -0.14838  -0.12916   0.04346
 Alpha virt. eigenvalues --    0.06009   0.07079   0.07366   0.08105   0.08593
 Alpha virt. eigenvalues --    0.09394   0.09599   0.09935   0.10044   0.10337
 Alpha virt. eigenvalues --    0.11034   0.11684   0.12255   0.12614   0.12932

  Beta  occ. eigenvalues --  -19.08964 -19.01320 -18.98802 -14.24469 -10.17607
  Beta  occ. eigenvalues --  -10.16259 -10.12884 -10.12479 -10.11321 -10.11258
  Beta  occ. eigenvalues --  -10.08944 -10.08123 -10.07972 -10.07816 -10.07007
  Beta  occ. eigenvalues --  -10.06935 -10.05521  -1.01202  -0.94835  -0.94008
  Beta  occ. eigenvalues --   -0.84516  -0.72149  -0.70586  -0.69181  -0.66108
  Beta  occ. eigenvalues --   -0.65556  -0.61266  -0.56787  -0.55396  -0.51449
  Beta  occ. eigenvalues --   -0.50540  -0.46006  -0.45320  -0.42967  -0.41632
  Beta  occ. eigenvalues --   -0.41355  -0.39659  -0.37780  -0.36773  -0.35591
  Beta  occ. eigenvalues --   -0.35086  -0.34656  -0.33242  -0.32701  -0.32321
  Beta  occ. eigenvalues --   -0.31235  -0.30839  -0.30200  -0.29428  -0.29171
  Beta  occ. eigenvalues --   -0.28808  -0.28316  -0.27288  -0.26612  -0.25302
  Beta  occ. eigenvalues --   -0.24745  -0.24379  -0.23160  -0.18681  -0.16666
  Beta  occ. eigenvalues --   -0.14989  -0.14791  -0.12859
  Beta virt. eigenvalues --    0.06622   0.06886   0.07690   0.08164   0.08578
  Beta virt. eigenvalues --    0.08970   0.09587   0.09925   0.10298   0.10432
  Beta virt. eigenvalues --    0.10645   0.11285   0.12002   0.12591   0.12824

 Mulliken charges and spin densities:
               1          2
     1  C    0.942763  -1.487845
     2  C   -1.117828   0.892391
     3  C    1.249246  -1.619734
     4  C   -0.321402  -0.135455
     5  C   -0.549494  -0.186835
     6  C    0.254666   0.502018
     7  C   -0.056948  -0.638370
     8  C   -0.209324   0.405752
     9  O    0.059675   0.034082
    10  N    0.280194   0.096034
    11  C    1.320247  -1.634994
    12  C   -0.361631   0.112141
    13  C    0.196384   0.055644
    14  O   -0.261059   0.023109
    15  C   -0.336840  -0.471061
    16  C    0.005867   0.012172
    17  O   -0.277504   0.006890
    18  H    0.188564  -0.020278
    19  H    0.007699   0.133497
    20  H   -0.329206   0.483691
    21  H   -0.844847   1.045554
    22  H    0.055469   0.135867
    23  H   -0.484074   0.678770
    24  H   -0.134971   0.338030
    25  H    0.152343   0.044950
    26  H    0.161118   0.064944
    27  H    0.143988   0.019957
    28  H   -0.166788   0.339347
    29  H   -0.472095   0.655250
    30  H   -0.419581   0.627317
    31  H    0.129705   0.016400
    32  H   -0.189912   0.412783
    33  H    0.234312   0.014984
    34  H    0.151267   0.042999
 Sum of Mulliken charges =  -1.00000   1.00000

 Dipole moment (field-independent basis, Debye):
    X=              4.5703    Y=              0.0750    Z=              4.9920  Tot=              6.7685
 Quadrupole moment (field-independent basis, Debye-Ang):
   XX=           -162.4005   YY=           -142.5449   ZZ=           -148.1220
   XY=              7.9188   XZ=            -11.3873   YZ=             -1.8636

 Summary of Natural Population Analysis:

                                       Natural Population
                Natural  -----------------------------------------------
    Atom  No    Charge         Core      Valence    Rydberg      Total
 -----------------------------------------------------------------------
      C    1   -0.28873      0.99963     2.28279    0.00630     3.28873
      C    2   -0.00088      0.99957     1.98558    0.01573     3.00088
      C    3   -0.18920      0.99959     2.17941    0.01021     3.18920
      C    4   -0.21958      0.99957     2.21051    0.00950     3.21958
      C    5    0.16386      0.99946     1.82123    0.01546     2.83614
      C    6   -0.16074      0.99948     2.15330    0.00797     3.16074
      C    7   -0.14637      0.99956     2.13831    0.00850     3.14637
      C    8    0.04558      0.99950     1.94075    0.01417     2.95442
      O    9   -0.23994      0.99986     3.23233    0.00775     4.23994
      N   10   -0.26405      0.99962     2.74932    0.01512     3.76405
      C   11   -0.08183      0.99960     2.07101    0.01122     3.08183
      C   12   -0.24932      0.99956     2.23986    0.00989     3.24932
      C   13    0.31208      0.99966     1.66534    0.02292     2.68792
      O   14   -0.28162      0.99987     3.27476    0.00699     4.28162
      C   15   -0.27856      0.99954     2.27098    0.00804     3.27856
      C   16    0.35240      0.99963     1.62344    0.02453     2.64760
      O   17   -0.33096      0.99988     3.32584    0.00524     4.33096
      H   18    0.10926      0.00000     0.38973    0.00100     0.39074
      H   19    0.10151      0.00000     0.39758    0.00090     0.39849
      H   20    0.10070      0.00000     0.39827    0.00103     0.39930
      H   21    0.10362      0.00000     0.39233    0.00405     0.39638
      H   22    0.10439      0.00000     0.39324    0.00237     0.39561
      H   23    0.10466      0.00000     0.39319    0.00215     0.39534
      H   24    0.10802      0.00000     0.39088    0.00110     0.39198
      H   25    0.11808      0.00000     0.38079    0.00113     0.38192
      H   26    0.11696      0.00000     0.38212    0.00092     0.38304
      H   27    0.11084      0.00000     0.38848    0.00068     0.38916
      H   28    0.09600      0.00000     0.40304    0.00095     0.40400
      H   29    0.09476      0.00000     0.40306    0.00218     0.40524
      H   30    0.11144      0.00000     0.38531    0.00324     0.38856
      H   31    0.12301      0.00000     0.37427    0.00272     0.37699
      H   32    0.11466      0.00000     0.38424    0.00110     0.38534
      H   33    0.11919      0.00000     0.37960    0.00121     0.38081
      H   34    0.12075      0.00000     0.37811    0.00114     0.37925
 =======================================================================
   * Total *   -0.00000     16.99359    45.77901    0.22740    63.00000

 Normal termination of Gaussian 16 at Sun Dec 13 13:40:32 2020.
