 Gaussian 16, Revision A.03,

 -----------------------------------------------------------
 # opt freq B3LYP/6-31G(d) empiricaldispersion=gd3bj scf=xqc
 -----------------------------------------------------------

 -------------------------------
 CID_102805138_JID_7077_neutraal
 -------------------------------
 Symbolic Z-matrix:
 Charge =  0 Multiplicity = 1

 SCF Done:  E(RB3LYP) =  -741.255667241     A.U. after   14 cycles
 SCF Done:  E(RB3LYP) =  -741.266396323     A.U. after   13 cycles
 SCF Done:  E(RB3LYP) =  -741.268886430     A.U. after   13 cycles
 SCF Done:  E(RB3LYP) =  -741.270709924     A.U. after   13 cycles
 SCF Done:  E(RB3LYP) =  -741.254751943     A.U. after   15 cycles
 SCF Done:  E(RB3LYP) =  -741.269640037     A.U. after   13 cycles
 SCF Done:  E(RB3LYP) =  -741.271383544     A.U. after   11 cycles
 SCF Done:  E(RB3LYP) =  -741.271022006     A.U. after   13 cycles
 SCF Done:  E(RB3LYP) =  -741.272277336     A.U. after   13 cycles
 SCF Done:  E(RB3LYP) =  -741.272734317     A.U. after   11 cycles
 SCF Done:  E(RB3LYP) =  -741.279799005     A.U. after    9 cycles
 SCF Done:  E(RB3LYP) =  -741.279799365     A.U. after    9 cycles
 SCF Done:  E(RB3LYP) =  -741.279799363     A.U. after    8 cycles
 SCF Done:  E(RB3LYP) =  -741.279799432     A.U. after    6 cycles
 Optimization completed.
    -- Stationary point found.
 Normal termination of Gaussian 16 at Mon Dec 14 13:41:38 2020.

 --------------------------------------------------------------------
 #N Geom=AllCheck Guess=TCheck SCRF=Check GenChk RB3LYP/6-31G(d) Freq
 --------------------------------------------------------------------

 Structure from the checkpoint file:  "JID_7077.chk"
 -------------------------------
 CID_102805138_JID_7077_neutraal
 -------------------------------
 Charge =  0 Multiplicity = 1

 SCF Done:  E(RB3LYP) =  -741.279799432     A.U. after    1 cycles

  Exact polarizability: 190.863   2.283 155.988  15.181   1.345 111.651
 Approx polarizability: 266.558  14.873 243.605  29.148   0.559 181.238

 ******    1 imaginary frequencies (negative Signs) ******

                      1                      2                      3
                      A                      A                      A
 Frequencies --     -9.1453                20.9804                33.5408
 Red. masses --      1.1171                 3.9028                 3.1877
 Frc consts  --      0.0001                 0.0010                 0.0021
 IR Inten    --      0.1195                 1.0009                 0.8314

                      4                      5                      6
                      A                      A                      A
 Frequencies --     48.9230                62.8752                86.9943
 Red. masses --      1.0867                 4.2263                 3.9760
 Frc consts  --      0.0015                 0.0098                 0.0177
 IR Inten    --      0.1096                 0.1865                 2.9453

                      7                      8                      9
                      A                      A                      A
 Frequencies --    114.2935               138.9385               165.5482
 Red. masses --      1.1347                 3.7808                 2.7594
 Frc consts  --      0.0087                 0.0430                 0.0446
 IR Inten    --      0.7971                 0.0468                 6.5174

                     10                     11                     12
                      A                      A                      A
 Frequencies --    185.5136               199.3790               224.9773
 Red. masses --      2.8986                 3.6488                 2.9773
 Frc consts  --      0.0588                 0.0855                 0.0888
 IR Inten    --      6.9672                 2.8520                 1.6794

                     13                     14                     15
                      A                      A                      A
 Frequencies --    244.6832               262.8564               286.1732
 Red. masses --      2.9401                 3.0862                 2.4379
 Frc consts  --      0.1037                 0.1256                 0.1176
 IR Inten    --      2.5358                 6.1486                15.2251

                     16                     17                     18
                      A                      A                      A
 Frequencies --    302.7865               319.8887               368.3492
 Red. masses --      2.3299                 2.2924                 3.0863
 Frc consts  --      0.1259                 0.1382                 0.2467
 IR Inten    --     21.3109                19.1201                12.9175

                     19                     20                     21
                      A                      A                      A
 Frequencies --    401.4879               449.2092               461.0480
 Red. masses --      3.6205                 3.5921                 3.6651
 Frc consts  --      0.3438                 0.4271                 0.4590
 IR Inten    --      3.3082                 8.8970                 0.1580

                     22                     23                     24
                      A                      A                      A
 Frequencies --    501.7545               524.5695               551.5730
 Red. masses --      3.5675                 3.7911                 5.0550
 Frc consts  --      0.5292                 0.6146                 0.9061
 IR Inten    --      4.6543                 4.3277                 1.2040

                     25                     26                     27
                      A                      A                      A
 Frequencies --    634.3824               636.9997               661.4459
 Red. masses --      4.8467                 4.8503                 7.0937
 Frc consts  --      1.1492                 1.1596                 1.8286
 IR Inten    --      3.5280                 3.0413                 3.0977

                     28                     29                     30
                      A                      A                      A
 Frequencies --    714.8371               726.2829               751.1282
 Red. masses --      3.8488                 3.2880                 3.1859
 Frc consts  --      1.1588                 1.0219                 1.0590
 IR Inten    --      8.9502                 0.9732                25.5187

                     31                     32                     33
                      A                      A                      A
 Frequencies --    774.4372               796.4326               815.0256
 Red. masses --      2.8560                 1.8410                 2.6873
 Frc consts  --      1.0092                 0.6880                 1.0517
 IR Inten    --      6.3149                13.8585                 9.8779

                     34                     35                     36
                      A                      A                      A
 Frequencies --    875.0562               905.2025               948.6030
 Red. masses --      2.1954                 1.4911                 2.2595
 Frc consts  --      0.9905                 0.7199                 1.1980
 IR Inten    --     67.9855                 8.7068                64.6798

                     37                     38                     39
                      A                      A                      A
 Frequencies --    964.9469               981.4752               998.8948
 Red. masses --      1.3760                 1.4452                 1.9037
 Frc consts  --      0.7549                 0.8203                 1.1192
 IR Inten    --     13.2338                 7.0611                17.4129

                     40                     41                     42
                      A                      A                      A
 Frequencies --   1026.4624              1034.4267              1036.5801
 Red. masses --      1.6468                 2.1258                 5.1732
 Frc consts  --      1.0223                 1.3402                 3.2750
 IR Inten    --      4.3711                 6.9610                 8.4408

                     43                     44                     45
                      A                      A                      A
 Frequencies --   1057.3369              1076.4635              1079.0260
 Red. masses --      3.3481                 1.4917                 1.5253
 Frc consts  --      2.2053                 1.0185                 1.0463
 IR Inten    --     18.3883                 2.0384                 4.4774

                     46                     47                     48
                      A                      A                      A
 Frequencies --   1091.3163              1113.5680              1161.1829
 Red. masses --      1.5034                 2.0961                 1.3084
 Frc consts  --      1.0549                 1.5314                 1.0394
 IR Inten    --     11.1355                16.8356                 2.7254

                     49                     50                     51
                      A                      A                      A
 Frequencies --   1175.2428              1187.3343              1192.5321
 Red. masses --      1.9006                 2.5786                 1.6000
 Frc consts  --      1.5467                 2.1418                 1.3406
 IR Inten    --     20.1881                 3.0075                21.0768

                     52                     53                     54
                      A                      A                      A
 Frequencies --   1202.7896              1226.0425              1278.8810
 Red. masses --      2.1916                 3.6910                 1.6614
 Frc consts  --      1.8681                 3.2689                 1.6009
 IR Inten    --     15.7663                 1.0231                 9.1886

                     55                     56                     57
                      A                      A                      A
 Frequencies --   1299.3006              1310.0964              1329.9356
 Red. masses --      3.8351                 2.2396                 1.8490
 Frc consts  --      3.8146                 2.2648                 1.9268
 IR Inten    --      0.6435                31.7561                10.0855

                     58                     59                     60
                      A                      A                      A
 Frequencies --   1342.8070              1349.9187              1365.8438
 Red. masses --      1.4423                 2.1475                 1.2937
 Frc consts  --      1.5322                 2.3056                 1.4220
 IR Inten    --     10.4079                 1.1063                 3.8961

                     61                     62                     63
                      A                      A                      A
 Frequencies --   1418.2208              1438.0362              1444.2308
 Red. masses --      3.4566                 1.2751                 1.2535
 Frc consts  --      4.0962                 1.5535                 1.5404
 IR Inten    --     16.2874                 4.6531                 0.4496

                     64                     65                     66
                      A                      A                      A
 Frequencies --   1473.9629              1474.9321              1484.0528
 Red. masses --      2.4303                 1.5845                 2.6608
 Frc consts  --      3.1108                 2.0309                 3.4527
 IR Inten    --     23.7925                30.6755                15.6041

                     67                     68                     69
                      A                      A                      A
 Frequencies --   1489.7701              1504.2680              1505.9422
 Red. masses --      2.4599                 1.0460                 1.2255
 Frc consts  --      3.2167                 1.3946                 1.6375
 IR Inten    --     16.1426                 7.4595                 1.0831

                     70                     71                     72
                      A                      A                      A
 Frequencies --   1513.8233              1514.3120              1515.6161
 Red. masses --      1.0800                 2.0890                 1.0636
 Frc consts  --      1.4583                 2.8225                 1.4395
 IR Inten    --      9.4294                 5.9430                 7.3079

                     73                     74                     75
                      A                      A                      A
 Frequencies --   1523.2678              1529.7331              1550.6438
 Red. masses --      1.4375                 1.1751                 1.2131
 Frc consts  --      1.9652                 1.6202                 1.7186
 IR Inten    --      7.2492                14.2552                 6.8891

                     76                     77                     78
                      A                      A                      A
 Frequencies --   1608.2322              1628.6643              1658.2842
 Red. masses --      5.0026                 5.0234                 5.6409
 Frc consts  --      7.6233                 7.8508                 9.1393
 IR Inten    --     47.4376                 6.3585                 2.0085

                     79                     80                     81
                      A                      A                      A
 Frequencies --   1693.5413              3045.4976              3048.7580
 Red. masses --      1.0849                 1.0372                 1.0407
 Frc consts  --      1.8332                 5.6679                 5.6994
 IR Inten    --     14.9324                28.2890                26.0547

                     82                     83                     84
                      A                      A                      A
 Frequencies --   3053.8362              3068.2351              3098.9651
 Red. masses --      1.0832                 1.0335                 1.1009
 Frc consts  --      5.9518                 5.7325                 6.2292
 IR Inten    --     12.8985                59.0908                17.6773

                     85                     86                     87
                      A                      A                      A
 Frequencies --   3102.6141              3126.1493              3135.3788
 Red. masses --      1.0965                 1.1012                 1.1045
 Frc consts  --      6.2190                 6.3407                 6.3972
 IR Inten    --     15.2923                14.3736                15.4549

                     88                     89                     90
                      A                      A                      A
 Frequencies --   3146.0798              3155.4313              3164.5845
 Red. masses --      1.1011                 1.0900                 1.1048
 Frc consts  --      6.4215                 6.3941                 6.5187
 IR Inten    --     13.3139                44.0863                10.0471

                     91                     92                     93
                      A                      A                      A
 Frequencies --   3184.7338              3210.5373              3269.8861
 Red. masses --      1.0900                 1.0904                 1.0977
 Frc consts  --      6.5138                 6.6221                 6.9152
 IR Inten    --      7.4583                 6.3089                 0.7365

                     94                     95                     96
                      A                      A                      A
 Frequencies --   3383.7638              3406.2026              3552.0437
 Red. masses --      1.0717                 1.0565                 1.0878
 Frc consts  --      7.2300                 7.2221                 8.0864
 IR Inten    --     17.9862                10.4804                 0.3791

 - Thermochemistry -
 -------------------
 Temperature   298.150 Kelvin.  Pressure   1.00000 Atm.
 Atom     1 has atomic number  6 and mass  12.00000

 Molecular mass:   231.14840 amu.
 Principal axes and moments of inertia in atomic units:
                           1         2         3
     Eigenvalues --  2486.398665649.017027043.99019
           X            0.99980  -0.01936   0.00523
           Y            0.01928   0.99970   0.01495
           Z           -0.00552  -0.01484   0.99987
 This molecule is an asymmetric top.
 Rotational symmetry number  1.
 Warning -- assumption of classical behavior for rotation
           may cause significant error
 Rotational temperatures (Kelvin)      0.03484     0.01533     0.01230
 Rotational constants (GHZ):           0.72585     0.31948     0.25621
    1 imaginary frequencies ignored.
 Zero-point vibrational energy     754848.5 (Joules/Mol)
                                  180.41312 (Kcal/Mol)
 Warning -- explicit consideration of  23 degrees of freedom as
           vibrations may cause significant error
 Vibrational temperatures:     30.19    48.26    70.39    90.46   125.17
          (Kelvin)            164.44   199.90   238.19   266.91   286.86
                              323.69   352.04   378.19   411.74   435.64
                              460.25   529.97   577.65   646.31   663.35
                              721.91   754.74   793.59   912.73   916.50
                              951.67  1028.49  1044.96  1080.71  1114.24
                             1145.89  1172.64  1259.01  1302.38  1364.83
                             1388.34  1412.12  1437.19  1476.85  1488.31
                             1491.41  1521.27  1548.79  1552.48  1570.16
                             1602.18  1670.68  1690.91  1708.31  1715.79
                             1730.55  1764.00  1840.02  1869.40  1884.94
                             1913.48  1932.00  1942.23  1965.14  2040.50
                             2069.01  2077.93  2120.70  2122.10  2135.22
                             2143.45  2164.31  2166.71  2178.05  2178.76
                             2180.63  2191.64  2200.94  2231.03  2313.89
                             2343.28  2385.90  2436.63  4381.79  4386.48
                             4393.79  4414.51  4458.72  4463.97  4497.83
                             4511.11  4526.51  4539.96  4553.13  4582.12
                             4619.25  4704.64  4868.48  4900.77  5110.60

 Zero-point correction=                           0.287507 (Hartree/Particle)
 Thermal correction to Energy=                    0.303891
 Thermal correction to Enthalpy=                  0.304835
 Thermal correction to Gibbs Free Energy=         0.241812
 Sum of electronic and zero-point Energies=           -740.992293
 Sum of electronic and thermal Energies=              -740.975909
 Sum of electronic and thermal Enthalpies=            -740.974964
 Sum of electronic and thermal Free Energies=         -741.037987

                     E (Thermal)             CV                S
                      KCal/Mol        Cal/Mol-Kelvin    Cal/Mol-Kelvin
 Total                  190.694             60.717            132.642
 Electronic               0.000              0.000              0.000
 Translational            0.889              2.981             42.216
 Rotational               0.889              2.981             32.959
 Vibrational            188.917             54.755             57.468
 Vibration     1          0.593              1.986              6.539
 Vibration     2          0.594              1.983              5.608
 Vibration     3          0.595              1.978              4.860
 Vibration     4          0.597              1.972              4.365
 Vibration     5          0.601              1.958              3.727
 Vibration     6          0.607              1.938              3.195
 Vibration     7          0.615              1.914              2.818
 Vibration     8          0.624              1.885              2.485
 Vibration     9          0.632              1.860              2.272
 Vibration    10          0.638              1.841              2.139
 Vibration    11          0.650              1.803              1.919
 Vibration    12          0.660              1.772              1.769
 Vibration    13          0.670              1.741              1.643
 Vibration    14          0.684              1.699              1.496
 Vibration    15          0.694              1.668              1.401
 Vibration    16          0.706              1.636              1.311
 Vibration    17          0.741              1.537              1.087
 Vibration    18          0.767              1.467              0.957
 Vibration    19          0.808              1.363              0.798
 Vibration    20          0.819              1.336              0.763
 Vibration    21          0.857              1.246              0.654
 Vibration    22          0.880              1.196              0.599
 Vibration    23          0.907              1.136              0.541

                           ! Non-Optimized Parameters !
 Normal termination of Gaussian 16 at Mon Dec 14 13:54:15 2020.

 ----------------------------------------------------------------------
 # B3LYP/6-311++G(d,p) empiricaldispersion=gd3bj scf=xqc pop=npa geom=c
 heck
 ----------------------------------------------------------------------

 ---------------------------------------
 CID_102805138_JID_7077_Energie_neutraal
 ---------------------------------------
 Structure from the checkpoint file:  "JID_7077.chk"
 Charge =  0 Multiplicity = 1

 SCF Done:  E(RB3LYP) =  -741.484529750     A.U. after   15 cycles
 Normal termination of Gaussian 16 at Mon Dec 14 14:00:26 2020.

 ----------------------------------------------------------------------
 # B3LYP/6-311++G(d,p) empiricaldispersion=gd3bj scf=xqc pop=npa geom=c
 heck
 ----------------------------------------------------------------------

 -------------------------------------
 CID_102805138_JID_7077_Energie_kation
 -------------------------------------
 Structure from the checkpoint file:  "JID_7077.chk"
 Charge =  1 Multiplicity = 2

 SCF Done:  E(UB3LYP) =  -741.186552798     A.U. after   33 cycles
 SCF Done:  E(UB3LYP) =  -741.186567159     a.u. after    5 cycles
 Normal termination of Gaussian 16 at Mon Dec 14 15:41:18 2020.
 Gaussian 16:  ES64L-G16RevA.03 25-Dec-2016

 ----------------------------------------------------------------------
 # B3LYP/6-311++G(d,p) empiricaldispersion=gd3bj scf=xqc pop=npa geom=c
 heck
 ----------------------------------------------------------------------

 ------------------------------------
 CID_102805138_JID_7077_Energie_anion
 ------------------------------------
 Structure from the checkpoint file:  "JID_7077.chk"
 Charge = -1 Multiplicity = 2

                         Standard orientation:
 ---------------------------------------------------------------------
 Center     Atomic      Atomic             Coordinates (Angstroms)
 Number     Number       Type             X           Y           Z
 ---------------------------------------------------------------------
      1          6           0        3.185198   -2.691926   -0.493682
      2          6           0        2.854434   -1.231739   -0.319903
      3          6           0        1.560632   -0.744344   -0.519260
      4          6           0        1.285262    0.614039   -0.353977
      5          6           0        2.353300    1.445881    0.006488
      6          7           0        3.600118    1.006023    0.213628
      7          6           0        3.830103   -0.300682    0.052304
      8          6           0       -0.111930    1.170523   -0.598617
      9          6           0       -1.210273    0.199391   -0.236406
     10          6           0       -2.302037   -0.142138   -1.015258
     11          7           0       -3.075088   -0.982159   -0.280066
     12          7           0       -2.557821   -1.202579    0.951910
     13          6           0       -1.427048   -0.492229    0.992690
     14          6           0       -0.575934   -0.511225    2.225558
     15          6           0       -4.337863   -1.589409   -0.643038
     16          7           0       -0.256357    2.473649    0.074972
     17          7           0       -1.493421    3.075258   -0.314744
     18          1           0        4.223500   -2.898319   -0.215945
     19          1           0        2.538483   -3.324645    0.125625
     20          1           0        3.048576   -3.010834   -1.534360
     21          1           0        0.758228   -1.425039   -0.793498
     22          1           0        2.183860    2.510852    0.132726
     23          1           0        4.853042   -0.632654    0.229956
     24          1           0       -0.210559    1.402569   -1.666156
     25          1           0       -2.573129    0.153793   -2.019011
     26          1           0       -1.077233   -1.087859    3.007099
     27          1           0        0.404734   -0.958599    2.030798
     28          1           0       -0.391484    0.499847    2.609390
     29          1           0       -4.286433   -2.670337   -0.488598
     30          1           0       -5.150035   -1.182153   -0.032586
     31          1           0       -4.538070   -1.382091   -1.696225
     32          1           0       -0.224645    2.311690    1.085972
     33          1           0       -2.277843    2.681622    0.211453
     34          1           0       -1.426073    4.063971   -0.087936
 ---------------------------------------------------------------------

 SCF Done:  E(UB3LYP) =  -741.475679135     A.U. after   33 cycles
 SCF Done:  E(UB3LYP) =  -741.475679135     a.u. after    1 cycles

 The electronic state is 2-A.
 Alpha  occ. eigenvalues --  -14.28842 -14.23167 -14.22707 -14.22531 -14.19756
 Alpha  occ. eigenvalues --  -10.11405 -10.11028 -10.10409 -10.09819 -10.09658
 Alpha  occ. eigenvalues --  -10.09223 -10.08633 -10.08242 -10.08175 -10.07377
 Alpha  occ. eigenvalues --  -10.07251 -10.06755  -0.94903  -0.87315  -0.83489
 Alpha  occ. eigenvalues --   -0.75201  -0.72999  -0.70758  -0.68155  -0.65787
 Alpha  occ. eigenvalues --   -0.64362  -0.60177  -0.59017  -0.55349  -0.52261
 Alpha  occ. eigenvalues --   -0.49591  -0.48464  -0.45381  -0.42521  -0.41821
 Alpha  occ. eigenvalues --   -0.41062  -0.39618  -0.39251  -0.37773  -0.35128
 Alpha  occ. eigenvalues --   -0.33909  -0.33729  -0.33327  -0.32701  -0.32211
 Alpha  occ. eigenvalues --   -0.31725  -0.30547  -0.30277  -0.29273  -0.29048
 Alpha  occ. eigenvalues --   -0.28273  -0.28172  -0.27061  -0.25317  -0.19633
 Alpha  occ. eigenvalues --   -0.18098  -0.17398  -0.15939  -0.15192  -0.15117
 Alpha  occ. eigenvalues --   -0.14495  -0.13419   0.04110
 Alpha virt. eigenvalues --    0.05750   0.06342   0.06562   0.08005   0.08282
 Alpha virt. eigenvalues --    0.08480   0.08887   0.09182   0.09866   0.10002
 Alpha virt. eigenvalues --    0.10645   0.11436   0.11482   0.11796   0.12341

  Beta  occ. eigenvalues --  -14.28839 -14.23151 -14.22682 -14.22520 -14.19601
  Beta  occ. eigenvalues --  -10.11404 -10.10973 -10.10388 -10.09819 -10.09635
  Beta  occ. eigenvalues --  -10.09216 -10.08634 -10.08233 -10.08157 -10.07367
  Beta  occ. eigenvalues --  -10.07120 -10.06755  -0.94890  -0.87286  -0.83285
  Beta  occ. eigenvalues --   -0.75177  -0.72914  -0.70645  -0.68115  -0.65686
  Beta  occ. eigenvalues --   -0.64329  -0.60111  -0.58964  -0.55279  -0.52061
  Beta  occ. eigenvalues --   -0.49542  -0.48425  -0.45349  -0.42463  -0.41760
  Beta  occ. eigenvalues --   -0.41010  -0.39560  -0.39184  -0.37737  -0.35082
  Beta  occ. eigenvalues --   -0.33820  -0.33675  -0.33276  -0.32673  -0.32175
  Beta  occ. eigenvalues --   -0.31686  -0.30514  -0.30238  -0.29215  -0.28968
  Beta  occ. eigenvalues --   -0.28234  -0.27930  -0.26925  -0.25264  -0.19604
  Beta  occ. eigenvalues --   -0.17786  -0.17027  -0.15846  -0.15095  -0.14961
  Beta  occ. eigenvalues --   -0.14358  -0.13398
  Beta virt. eigenvalues --    0.06239   0.06640   0.07097   0.07346   0.08231
  Beta virt. eigenvalues --    0.08369   0.08735   0.09081   0.09615   0.10044
  Beta virt. eigenvalues --    0.10389   0.10768   0.11348   0.11725   0.12031

 Mulliken charges and spin densities:
               1          2
     1  C    0.207604  -0.757107
     2  C    0.239003  -0.135192
     3  C   -0.159075   0.078536
     4  C    0.240995   0.196549
     5  C   -0.177922  -0.010525
     6  N   -0.060659   0.070034
     7  C   -0.723563   0.012115
     8  C   -0.650830  -0.145318
     9  C    0.753757   0.162258
    10  C   -0.104432  -0.088566
    11  N    0.045037   0.020115
    12  N   -0.408161   0.362288
    13  C   -0.626989  -0.052164
    14  C    0.222245  -0.878909
    15  C    1.389972  -1.667264
    16  N    0.002593  -0.037510
    17  N   -0.520280   0.047138
    18  H    0.084484   0.047582
    19  H    0.116739   0.040046
    20  H   -0.013061   0.184338
    21  H    0.058433   0.168378
    22  H    0.218220   0.013936
    23  H    0.107983   0.032698
    24  H    0.219226   0.018928
    25  H   -0.713329   0.910032
    26  H    0.101698   0.057259
    27  H    0.187609  -0.031892
    28  H   -0.023136   0.164471
    29  H   -0.278873   0.451209
    30  H   -0.330959   0.507909
    31  H   -0.700661   0.860251
    32  H    0.147045   0.051122
    33  H    0.072336   0.164783
    34  H    0.076950   0.182472
 Sum of Mulliken charges =  -1.00000   1.00000

 Dipole moment (field-independent basis, Debye):
    X=              5.4435    Y=              0.3066    Z=              3.2519  Tot=              6.3483
 Quadrupole moment (field-independent basis, Debye-Ang):
   XX=           -190.5657   YY=           -140.7395   ZZ=           -136.1449
   XY=            -16.2392   XZ=            -12.8198   YZ=             -2.3138

 Summary of Natural Population Analysis:

                                       Natural Population
                Natural  -----------------------------------------------
    Atom  No    Charge         Core      Valence    Rydberg      Total
 -----------------------------------------------------------------------
      C    1   -0.29079      0.99964     2.28644    0.00472     3.29079
      C    2   -0.03689      0.99951     2.02994    0.00744     3.03689
      C    3   -0.06433      0.99947     2.05541    0.00945     3.06433
      C    4   -0.02917      0.99949     2.01940    0.01028     3.02917
      C    5    0.02245      0.99953     1.96474    0.01328     2.97755
      N    6   -0.21590      0.99971     2.70372    0.01247     3.71590
      C    7    0.02181      0.99953     1.96462    0.01403     2.97819
      C    8   -0.02588      0.99953     2.01126    0.01509     3.02588
      C    9   -0.08738      0.99946     2.07499    0.01293     3.08738
      C   10    0.00899      0.99948     1.97932    0.01221     2.99101
      N   11   -0.10438      0.99967     2.59210    0.01262     3.60438
      N   12   -0.16090      0.99970     2.64977    0.01144     3.66090
      C   13    0.07580      0.99954     1.91005    0.01461     2.92420
      C   14   -0.29893      0.99962     2.29474    0.00457     3.29893
      C   15   -0.17035      0.99963     2.16204    0.00867     3.17035
      N   16   -0.24799      0.99975     2.73398    0.01427     3.74799
      N   17   -0.32863      0.99977     2.81675    0.01212     3.82863
      H   18    0.09888      0.00000     0.40010    0.00102     0.40112
      H   19    0.10268      0.00000     0.39616    0.00116     0.39732
      H   20    0.10441      0.00000     0.39417    0.00142     0.39559
      H   21    0.10492      0.00000     0.39355    0.00153     0.39508
      H   22    0.09751      0.00000     0.40048    0.00201     0.40249
      H   23    0.08324      0.00000     0.41534    0.00142     0.41676
      H   24    0.11024      0.00000     0.38791    0.00184     0.38976
      H   25    0.10848      0.00000     0.38975    0.00177     0.39152
      H   26    0.10766      0.00000     0.39137    0.00097     0.39234
      H   27    0.10857      0.00000     0.39028    0.00115     0.39143
      H   28    0.09907      0.00000     0.39954    0.00139     0.40093
      H   29    0.10217      0.00000     0.39616    0.00167     0.39783
      H   30    0.09946      0.00000     0.39893    0.00161     0.40054
      H   31    0.10467      0.00000     0.39177    0.00356     0.39533
      H   32    0.15982      0.00000     0.33686    0.00332     0.34018
      H   33    0.16786      0.00000     0.33021    0.00193     0.33214
      H   34    0.17283      0.00000     0.32552    0.00166     0.32717
 =======================================================================
   * Total *    0.00000     16.99303    44.78734    0.21963    62.00000

 Normal termination of Gaussian 16 at Mon Dec 14 15:59:33 2020.
