 Gaussian 16, Revision A.03,

 -----------------------------------------------------------
 # opt freq B3LYP/6-31G(d) empiricaldispersion=gd3bj scf=xqc
 -----------------------------------------------------------

 ------------------------------
 CID_68770315_JID_6263_neutraal
 ------------------------------
 Symbolic Z-matrix:
 Charge =  0 Multiplicity = 1

 SCF Done:  E(RB3LYP) =  -726.943866658     A.U. after   15 cycles
 SCF Done:  E(RB3LYP) =  -726.947017121     A.U. after   13 cycles
 SCF Done:  E(RB3LYP) =  -726.951253599     A.U. after   12 cycles
 SCF Done:  E(RB3LYP) =  -726.951976136     A.U. after   12 cycles
 SCF Done:  E(RB3LYP) =  -726.952126698     A.U. after   11 cycles
 SCF Done:  E(RB3LYP) =  -726.952186941     A.U. after   10 cycles
 SCF Done:  E(RB3LYP) =  -726.952209673     A.U. after   11 cycles
 SCF Done:  E(RB3LYP) =  -726.952237796     A.U. after   10 cycles
 SCF Done:  E(RB3LYP) =  -726.952244174     A.U. after   10 cycles
 SCF Done:  E(RB3LYP) =  -726.952246545     A.U. after    9 cycles
 SCF Done:  E(RB3LYP) =  -726.952247232     A.U. after    8 cycles
 Optimization completed.
    -- Stationary point found.
 Normal termination of Gaussian 16 at Thu Dec 10 21:53:13 2020.

 --------------------------------------------------------------------
 #N Geom=AllCheck Guess=TCheck SCRF=Check GenChk RB3LYP/6-31G(d) Freq
 --------------------------------------------------------------------

 Structure from the checkpoint file:  "JID_6263.chk"
 ------------------------------
 CID_68770315_JID_6263_neutraal
 ------------------------------
 Charge =  0 Multiplicity = 1

 SCF Done:  E(RB3LYP) =  -726.952247232     A.U. after    1 cycles

  Exact polarizability: 177.110 -12.987 104.092   1.559  -2.643 133.520
 Approx polarizability: 235.485 -17.373 159.261   1.929  -6.026 226.485

                      1                      2                      3
                      A                      A                      A
 Frequencies --     33.4389                43.1559                67.3876
 Red. masses --      5.1697                 4.4906                 4.9894
 Frc consts  --      0.0034                 0.0049                 0.0133
 IR Inten    --      0.1971                 0.1806                 0.4319

                      4                      5                      6
                      A                      A                      A
 Frequencies --     86.2536                99.0325               182.1427
 Red. masses --      4.5966                 5.4942                 2.9373
 Frc consts  --      0.0201                 0.0317                 0.0574
 IR Inten    --      0.6032                 1.3753                 0.1192

                      7                      8                      9
                      A                      A                      A
 Frequencies --    191.2754               257.6262               278.5300
 Red. masses --      4.2927                 3.3111                 4.6523
 Frc consts  --      0.0925                 0.1295                 0.2126
 IR Inten    --      1.5979                 2.3033                 1.5661

                     10                     11                     12
                      A                      A                      A
 Frequencies --    299.7074               338.0907               389.7072
 Red. masses --      2.4837                 3.3012                 2.7369
 Frc consts  --      0.1314                 0.2223                 0.2449
 IR Inten    --      0.9814                 4.0938                 4.7663

                     13                     14                     15
                      A                      A                      A
 Frequencies --    417.4839               422.5315               458.3407
 Red. masses --      3.0962                 3.8314                 2.8089
 Frc consts  --      0.3180                 0.4030                 0.3477
 IR Inten    --      0.0820                 9.7995                 5.5554

                     16                     17                     18
                      A                      A                      A
 Frequencies --    493.2689               533.2121               539.3927
 Red. masses --      2.6744                 2.9886                 1.7486
 Frc consts  --      0.3834                 0.5006                 0.2997
 IR Inten    --     20.1855                11.4598                66.5749

                     19                     20                     21
                      A                      A                      A
 Frequencies --    562.1771               579.1445               595.9041
 Red. masses --      2.5256                 1.6159                 4.1394
 Frc consts  --      0.4703                 0.3193                 0.8660
 IR Inten    --     66.5776                 4.8822                10.3889

                     22                     23                     24
                      A                      A                      A
 Frequencies --    633.8776               661.1113               667.6175
 Red. masses --      5.6391                 2.5029                 2.1650
 Frc consts  --      1.3350                 0.6445                 0.5686
 IR Inten    --      1.2129                 4.3690                61.9579

                     25                     26                     27
                      A                      A                      A
 Frequencies --    702.8217               755.4229               766.4156
 Red. masses --      2.0447                 3.0271                 2.6298
 Frc consts  --      0.5951                 1.0178                 0.9101
 IR Inten    --     17.9033                 9.5679                51.4220

                     28                     29                     30
                      A                      A                      A
 Frequencies --    774.0248               822.7526               845.1170
 Red. masses --      4.0297                 1.2697                 2.3411
 Frc consts  --      1.4224                 0.5064                 0.9852
 IR Inten    --     71.5413                 0.2891                 2.2046

                     31                     32                     33
                      A                      A                      A
 Frequencies --    847.1744               868.5598               883.0754
 Red. masses --      2.2243                 2.0513                 1.6249
 Frc consts  --      0.9406                 0.9117                 0.7466
 IR Inten    --      5.3901                 7.7804                13.6147

                     34                     35                     36
                      A                      A                      A
 Frequencies --    907.4210               946.8572               954.3707
 Red. masses --      1.9467                 1.3257                 2.2906
 Frc consts  --      0.9444                 0.7002                 1.2293
 IR Inten    --     10.1003                 0.1175                 0.0945

                     37                     38                     39
                      A                      A                      A
 Frequencies --    974.8906               976.4777              1015.6409
 Red. masses --      1.4793                 1.3561                 5.6637
 Frc consts  --      0.8284                 0.7619                 3.4422
 IR Inten    --     18.3830                15.1495                 1.1463

                     40                     41                     42
                      A                      A                      A
 Frequencies --   1026.6295              1062.5519              1078.7388
 Red. masses --      2.3922                 2.1885                 1.7054
 Frc consts  --      1.4855                 1.4558                 1.1693
 IR Inten    --     15.3879                 2.1047                 5.8344

                     43                     44                     45
                      A                      A                      A
 Frequencies --   1103.2184              1116.7132              1123.8274
 Red. masses --      2.4307                 1.6614                 3.6825
 Frc consts  --      1.7430                 1.2207                 2.7403
 IR Inten    --     27.3319                24.5730                38.9016

                     46                     47                     48
                      A                      A                      A
 Frequencies --   1163.9446              1186.9769              1193.2253
 Red. masses --      2.2778                 2.0379                 1.1289
 Frc consts  --      1.8182                 1.6917                 0.9470
 IR Inten    --     19.1995                32.6430                 0.9345

                     49                     50                     51
                      A                      A                      A
 Frequencies --   1206.3770              1219.6771              1246.8266
 Red. masses --      1.6925                 1.1348                 1.8165
 Frc consts  --      1.4513                 0.9946                 1.6638
 IR Inten    --     46.0652                 7.5264               155.5455

                     52                     53                     54
                      A                      A                      A
 Frequencies --   1258.6064              1295.8855              1303.9281
 Red. masses --      1.8156                 1.3794                 2.1362
 Frc consts  --      1.6946                 1.3648                 2.1399
 IR Inten    --     69.4600                45.8819                83.2776

                     55                     56                     57
                      A                      A                      A
 Frequencies --   1333.6685              1350.3822              1362.1748
 Red. masses --      1.4048                 1.4775                 1.7940
 Frc consts  --      1.4722                 1.5875                 1.9613
 IR Inten    --      6.9155                62.2282                29.8769

                     58                     59                     60
                      A                      A                      A
 Frequencies --   1376.4585              1386.0210              1394.2591
 Red. masses --      2.1876                 1.4069                 1.4108
 Frc consts  --      2.4420                 1.5924                 1.6158
 IR Inten    --      4.7439                 5.1063                26.3667

                     61                     62                     63
                      A                      A                      A
 Frequencies --   1397.1262              1408.3395              1417.1243
 Red. masses --      1.3695                 1.4207                 1.4785
 Frc consts  --      1.5750                 1.6602                 1.7493
 IR Inten    --      2.3909                21.0887                 7.2743

                     64                     65                     66
                      A                      A                      A
 Frequencies --   1491.7851              1499.9310              1513.8648
 Red. masses --      2.0021                 1.5457                 1.0973
 Frc consts  --      2.6251                 2.0488                 1.4817
 IR Inten    --     33.1239                60.7984                 5.6870

                     67                     68                     69
                      A                      A                      A
 Frequencies --   1517.1903              1520.4615              1532.1932
 Red. masses --      1.0927                 1.3392                 1.1556
 Frc consts  --      1.4819                 1.8241                 1.5983
 IR Inten    --     16.0722                53.4807                22.2372

                     70                     71                     72
                      A                      A                      A
 Frequencies --   1553.5628              1569.5894              1652.9078
 Red. masses --      2.1886                 1.6112                 4.5633
 Frc consts  --      3.1122                 2.3386                 7.3456
 IR Inten    --     46.2272               129.1287                 8.1820

                     73                     74                     75
                      A                      A                      A
 Frequencies --   1672.2708              1814.5463              3029.6987
 Red. masses --      5.6544                 8.1055                 1.0692
 Frc consts  --      9.3164                15.7240                 5.7826
 IR Inten    --    107.2342               445.2703                20.9043

                     76                     77                     78
                      A                      A                      A
 Frequencies --   3040.7660              3048.2885              3052.9105
 Red. masses --      1.0688                 1.0647                 1.0707
 Frc consts  --      5.8224                 5.8290                 5.8795
 IR Inten    --      9.9052                10.3963                15.4878

                     79                     80                     81
                      A                      A                      A
 Frequencies --   3058.8642              3086.3964              3095.2655
 Red. masses --      1.0766                 1.0944                 1.1026
 Frc consts  --      5.9353                 6.1421                 6.2238
 IR Inten    --     45.2016                47.1901                44.9551

                     82                     83                     84
                      A                      A                      A
 Frequencies --   3103.5486              3170.0172              3172.2537
 Red. masses --      1.1018                 1.0942                 1.0865
 Frc consts  --      6.2526                 6.4786                 6.4422
 IR Inten    --     46.7151                 5.0040                12.7578

                     85                     86                     87
                      A                      A                      A
 Frequencies --   3184.2717              3192.9397              3210.3255
 Red. masses --      1.0868                 1.0923                 1.0956
 Frc consts  --      6.4926                 6.5608                 6.6527
 IR Inten    --      0.9070                32.0355                37.1054

                     88                     89                     90
                      A                      A                      A
 Frequencies --   3223.7659              3592.4696              3720.6676
 Red. masses --      1.0923                 1.0744                 1.0644
 Frc consts  --      6.6885                 8.1693                 8.6814
 IR Inten    --     12.1426                17.9546                75.2118

 - Thermochemistry -
 -------------------
 Temperature   298.150 Kelvin.  Pressure   1.00000 Atm.
 Atom     1 has atomic number  6 and mass  12.00000

 Molecular mass:   220.12118 amu.
 Principal axes and moments of inertia in atomic units:
                           1         2         3
     Eigenvalues --  1785.789795390.215145728.55444
           X            0.99981  -0.01956   0.00248
           Y            0.01958   0.99976  -0.00979
           Z           -0.00229   0.00984   0.99995
 This molecule is an asymmetric top.
 Rotational symmetry number  1.
 Warning -- assumption of classical behavior for rotation
           may cause significant error
 Rotational temperatures (Kelvin)      0.04850     0.01607     0.01512
 Rotational constants (GHZ):           1.01061     0.33482     0.31504
 Zero-point vibrational energy     718984.8 (Joules/Mol)
                                  171.84148 (Kcal/Mol)
 Warning -- explicit consideration of  21 degrees of freedom as
           vibrations may cause significant error
 Vibrational temperatures:     48.11    62.09    96.96   124.10   142.49
          (Kelvin)            262.06   275.20   370.67   400.74   431.21
                              486.44   560.70   600.67   607.93   659.45
                              709.70   767.17   776.07   808.85   833.26
                              857.37   912.01   951.19   960.55  1011.20
                             1086.89  1102.70  1113.65  1183.76  1215.93
                             1218.89  1249.66  1270.55  1305.58  1362.32
                             1373.13  1402.65  1404.93  1461.28  1477.09
                             1528.78  1552.06  1587.29  1606.70  1616.94
                             1674.66  1707.79  1716.79  1735.71  1754.84
                             1793.91  1810.85  1864.49  1876.06  1918.85
                             1942.90  1959.87  1980.42  1994.18  2006.03
                             2010.15  2026.29  2038.93  2146.35  2158.07
                             2178.11  2182.90  2187.60  2204.48  2235.23
                             2258.29  2378.17  2406.02  2610.73  4359.06
                             4374.98  4385.81  4392.46  4401.02  4440.64
                             4453.40  4465.31  4560.95  4564.17  4581.46
                             4593.93  4618.94  4638.28  5168.76  5353.21

 Zero-point correction=                           0.273847 (Hartree/Particle)
 Thermal correction to Energy=                    0.287644
 Thermal correction to Enthalpy=                  0.288588
 Thermal correction to Gibbs Free Energy=         0.232303
 Sum of electronic and zero-point Energies=           -726.678400
 Sum of electronic and thermal Energies=              -726.664603
 Sum of electronic and thermal Enthalpies=            -726.663659
 Sum of electronic and thermal Free Energies=         -726.719945

                     E (Thermal)             CV                S
                      KCal/Mol        Cal/Mol-Kelvin    Cal/Mol-Kelvin
 Total                  180.499             54.990            118.463
 Electronic               0.000              0.000              0.000
 Translational            0.889              2.981             42.070
 Rotational               0.889              2.981             32.378
 Vibrational            178.722             49.028             44.016
 Vibration     1          0.594              1.983              5.614
 Vibration     2          0.595              1.980              5.109
 Vibration     3          0.598              1.970              4.228
 Vibration     4          0.601              1.959              3.743
 Vibration     5          0.604              1.950              3.473
 Vibration     6          0.630              1.864              2.306
 Vibration     7          0.634              1.852              2.215
 Vibration     8          0.667              1.750              1.678
 Vibration     9          0.679              1.713              1.543
 Vibration    10          0.692              1.674              1.419
 Vibration    11          0.718              1.599              1.221
 Vibration    12          0.758              1.492              1.001
 Vibration    13          0.781              1.432              0.901
 Vibration    14          0.785              1.421              0.883
 Vibration    15          0.816              1.342              0.771
 Vibration    16          0.849              1.265              0.675
 Vibration    17          0.888              1.177              0.580
 Vibration    18          0.894              1.163              0.567
 Vibration    19          0.918              1.113              0.520
 Vibration    20          0.936              1.076              0.487
 Vibration    21          0.954              1.041              0.457

                           ! Non-Optimized Parameters !
 Normal termination of Gaussian 16 at Thu Dec 10 22:04:00 2020.

 ----------------------------------------------------------------------
 # B3LYP/6-311++G(d,p) empiricaldispersion=gd3bj scf=xqc pop=npa geom=c
 heck
 ----------------------------------------------------------------------

 --------------------------------------
 CID_68770315_JID_6263_Energie_neutraal
 --------------------------------------
 Structure from the checkpoint file:  "JID_6263.chk"
 Charge =  0 Multiplicity = 1

 SCF Done:  E(RB3LYP) =  -727.162951618     A.U. after   14 cycles
 Normal termination of Gaussian 16 at Thu Dec 10 22:08:13 2020.

 ----------------------------------------------------------------------
 # B3LYP/6-311++G(d,p) empiricaldispersion=gd3bj scf=xqc pop=npa geom=c
 heck
 ----------------------------------------------------------------------

 ------------------------------------
 CID_68770315_JID_6263_Energie_kation
 ------------------------------------
 Structure from the checkpoint file:  "JID_6263.chk"
 Charge =  1 Multiplicity = 2

 SCF Done:  E(UB3LYP) =  -726.884224293     A.U. after   23 cycles
 Normal termination of Gaussian 16 at Thu Dec 10 22:17:38 2020.
 Gaussian 16:  ES64L-G16RevA.03 25-Dec-2016

 ----------------------------------------------------------------------
 # B3LYP/6-311++G(d,p) empiricaldispersion=gd3bj scf=xqc pop=npa geom=c
 heck
 ----------------------------------------------------------------------

 -----------------------------------
 CID_68770315_JID_6263_Energie_anion
 -----------------------------------
 Structure from the checkpoint file:  "JID_6263.chk"
 Charge = -1 Multiplicity = 2

                         Standard orientation:
 ---------------------------------------------------------------------
 Center     Atomic      Atomic             Coordinates (Angstroms)
 Number     Number       Type             X           Y           Z
 ---------------------------------------------------------------------
      1          6           0        3.164759   -1.613479   -0.147571
      2          6           0        3.496624   -0.357387    0.674300
      3          6           0        2.256246    0.169798    1.407510
      4          7           0        1.169242    0.384732    0.443690
      5          6           0        0.753814   -0.893503   -0.211025
      6          6           0        1.927444   -1.421343   -1.042550
      7          7           0       -0.465211   -0.856811   -0.955846
      8          6           0       -1.682173   -0.527733   -0.339709
      9          6           0       -2.781172   -0.212540   -1.156791
     10          6           0       -4.023215    0.070138   -0.600042
     11          6           0       -4.203219    0.045068    0.785103
     12          6           0       -3.113925   -0.260064    1.599452
     13          6           0       -1.861572   -0.538106    1.052128
     14          6           0        1.167361    1.606337   -0.172071
     15          8           0        1.745437    2.600794    0.235470
     16          8           0        0.427470    1.642783   -1.322780
     17          1           0        4.026352   -1.906630   -0.758106
     18          1           0        2.970127   -2.449761    0.539159
     19          1           0        4.295793   -0.573511    1.393549
     20          1           0        3.863358    0.439539    0.014777
     21          1           0        1.904868   -0.556825    2.150794
     22          1           0        2.455642    1.113515    1.913460
     23          1           0        0.600445   -1.579423    0.630420
     24          1           0        2.140096   -0.702086   -1.845294
     25          1           0        1.639858   -2.368105   -1.512288
     26          1           0       -0.357309   -0.403967   -1.854426
     27          1           0       -2.650637   -0.200163   -2.236505
     28          1           0       -4.856707    0.311153   -1.254498
     29          1           0       -5.173060    0.266329    1.219948
     30          1           0       -3.229766   -0.271641    2.680009
     31          1           0       -1.026380   -0.739289    1.712684
     32          1           0        0.480013    2.573686   -1.602507
 ---------------------------------------------------------------------

 SCF Done:  E(UB3LYP) =  -727.149822331     A.U. after   33 cycles
 SCF Done:  E(UB3LYP) =  -727.149822331     a.u. after    1 cycles

 The electronic state is 2-A.
 Alpha  occ. eigenvalues --  -19.07149 -19.00277 -14.24882 -14.22976 -10.22701
 Alpha  occ. eigenvalues --  -10.15466 -10.12230 -10.11035 -10.08330 -10.08285
 Alpha  occ. eigenvalues --  -10.07977 -10.07699 -10.07687 -10.07629 -10.07593
 Alpha  occ. eigenvalues --  -10.07521  -1.01659  -0.91919  -0.87712  -0.82788
 Alpha  occ. eigenvalues --   -0.75388  -0.70905  -0.67373  -0.65520  -0.63219
 Alpha  occ. eigenvalues --   -0.60181  -0.54880  -0.52597  -0.51592  -0.49877
 Alpha  occ. eigenvalues --   -0.47792  -0.44931  -0.43983  -0.40319  -0.39595
 Alpha  occ. eigenvalues --   -0.38282  -0.38135  -0.36681  -0.35307  -0.34690
 Alpha  occ. eigenvalues --   -0.34378  -0.33350  -0.33025  -0.32873  -0.31451
 Alpha  occ. eigenvalues --   -0.30107  -0.28587  -0.27293  -0.26825  -0.26299
 Alpha  occ. eigenvalues --   -0.25305  -0.24303  -0.23822  -0.22864  -0.21209
 Alpha  occ. eigenvalues --   -0.19135  -0.16533  -0.15583  -0.11923   0.04212
 Alpha virt. eigenvalues --    0.05904   0.06298   0.07398   0.07778   0.07885
 Alpha virt. eigenvalues --    0.07919   0.08916   0.09132   0.09782   0.10118
 Alpha virt. eigenvalues --    0.10855   0.11096   0.12004   0.12252   0.12668

  Beta  occ. eigenvalues --  -19.07118 -19.00266 -14.24879 -14.22966 -10.22696
  Beta  occ. eigenvalues --  -10.15459 -10.12231 -10.11021 -10.08323 -10.08275
  Beta  occ. eigenvalues --  -10.07956 -10.07691 -10.07675 -10.07599 -10.07573
  Beta  occ. eigenvalues --  -10.07516  -1.01618  -0.91883  -0.87695  -0.82771
  Beta  occ. eigenvalues --   -0.75372  -0.70863  -0.67348  -0.65499  -0.63191
  Beta  occ. eigenvalues --   -0.60136  -0.54836  -0.52555  -0.51559  -0.49838
  Beta  occ. eigenvalues --   -0.47723  -0.44899  -0.43949  -0.40289  -0.39562
  Beta  occ. eigenvalues --   -0.38251  -0.38101  -0.36648  -0.35273  -0.34662
  Beta  occ. eigenvalues --   -0.34335  -0.33320  -0.32998  -0.32846  -0.31421
  Beta  occ. eigenvalues --   -0.30071  -0.28571  -0.27264  -0.26784  -0.26264
  Beta  occ. eigenvalues --   -0.25279  -0.24258  -0.23776  -0.22833  -0.21194
  Beta  occ. eigenvalues --   -0.19109  -0.16518  -0.15563  -0.11913
  Beta virt. eigenvalues --    0.06217   0.06907   0.07061   0.07766   0.08111
  Beta virt. eigenvalues --    0.08335   0.08502   0.09042   0.09608   0.10270
  Beta virt. eigenvalues --    0.10573   0.11183   0.11325   0.12334   0.12643

 Mulliken charges and spin densities:
               1          2
     1  C    0.980037  -1.535736
     2  C   -0.209195  -0.041316
     3  C    0.603780  -0.856939
     4  N    0.250694  -0.019414
     5  C   -1.707656   0.415541
     6  C    0.607608  -0.721548
     7  N    0.493538  -0.008007
     8  C   -0.063135  -0.407800
     9  C   -1.985797   1.694100
    10  C    0.442121  -0.800251
    11  C    0.555199  -0.857343
    12  C   -0.807116   0.762721
    13  C    1.697433  -1.027957
    14  C    0.787071  -0.594183
    15  O   -0.360311   0.022094
    16  O   -0.308366   0.096326
    17  H   -0.562376   0.764628
    18  H   -0.113872   0.255671
    19  H   -0.432374   0.613494
    20  H    0.186478  -0.035919
    21  H   -0.153806   0.293802
    22  H    0.224218  -0.002335
    23  H   -0.054382   0.199519
    24  H   -0.268519   0.424607
    25  H   -0.145990   0.348552
    26  H    0.273845   0.016796
    27  H   -0.531925   0.679989
    28  H   -0.207710   0.369902
    29  H   -0.000246   0.131734
    30  H   -0.157952   0.332251
    31  H    0.038773   0.094850
    32  H   -0.070067   0.392169
 Sum of Mulliken charges =  -1.00000   1.00000

 Dipole moment (field-independent basis, Debye):
    X=             -2.6340    Y=              0.6822    Z=              1.4702  Tot=              3.0927
 Quadrupole moment (field-independent basis, Debye-Ang):
   XX=           -173.9782   YY=           -143.0940   ZZ=           -133.5231
   XY=              7.8989   XZ=             -3.4718   YZ=              0.1646

 Summary of Natural Population Analysis:

                                       Natural Population
                Natural  -----------------------------------------------
    Atom  No    Charge         Core      Valence    Rydberg      Total
 -----------------------------------------------------------------------
      C    1   -0.18943      0.99963     2.18120    0.00860     3.18943
      C    2   -0.19785      0.99962     2.18982    0.00840     3.19785
      C    3   -0.08494      0.99961     2.07486    0.01047     3.08494
      N    4   -0.27468      0.99963     2.76360    0.01145     3.77468
      C    5    0.09112      0.99957     1.89406    0.01525     2.90888
      C    6   -0.19479      0.99960     2.18582    0.00938     3.19479
      N    7   -0.31260      0.99966     2.80270    0.01024     3.81260
      C    8    0.09352      0.99949     1.89511    0.01189     2.90648
      C    9   -0.11621      0.99953     2.10687    0.00982     3.11621
      C   10   -0.09514      0.99957     2.08521    0.01037     3.09514
      C   11   -0.12501      0.99956     2.11557    0.00988     3.12501
      C   12   -0.09230      0.99957     2.08326    0.00947     3.09230
      C   13   -0.12734      0.99952     2.12007    0.00775     3.12734
      C   14    0.46366      0.99968     1.51129    0.02537     2.53634
      O   15   -0.33629      0.99987     3.33114    0.00527     4.33629
      O   16   -0.35616      0.99988     3.34951    0.00677     4.35616
      H   17    0.10481      0.00000     0.39326    0.00192     0.39519
      H   18    0.09518      0.00000     0.40294    0.00188     0.40482
      H   19    0.10347      0.00000     0.39519    0.00133     0.39653
      H   20    0.09934      0.00000     0.39946    0.00120     0.40066
      H   21    0.09293      0.00000     0.40569    0.00137     0.40707
      H   22    0.11457      0.00000     0.38442    0.00100     0.38543
      H   23    0.09555      0.00000     0.40185    0.00259     0.40445
      H   24    0.09979      0.00000     0.39858    0.00163     0.40021
      H   25    0.10752      0.00000     0.39116    0.00133     0.39248
      H   26    0.19262      0.00000     0.30358    0.00380     0.30738
      H   27    0.10115      0.00000     0.39704    0.00181     0.39885
      H   28    0.09996      0.00000     0.39909    0.00095     0.40004
      H   29    0.09881      0.00000     0.40038    0.00080     0.40119
      H   30    0.09882      0.00000     0.40033    0.00085     0.40118
      H   31    0.10361      0.00000     0.39487    0.00151     0.39639
      H   32    0.24631      0.00000     0.24897    0.00472     0.25369
 =======================================================================
   * Total *    0.00000     15.99399    42.80692    0.19910    59.00000

 Normal termination of Gaussian 16 at Thu Dec 10 22:32:23 2020.
