 Gaussian 16, Revision A.03,

 -----------------------------------------------------------
 # opt freq B3LYP/6-31G(d) empiricaldispersion=gd3bj scf=xqc
 -----------------------------------------------------------

 ------------------------------
 CID_79429196_JID_3254_neutraal
 ------------------------------
 Symbolic Z-matrix:
 Charge =  0 Multiplicity = 1

 SCF Done:  E(RB3LYP) =  -545.830883315     A.U. after   13 cycles
 SCF Done:  E(RB3LYP) =  -545.832215680     A.U. after   12 cycles
 SCF Done:  E(RB3LYP) =  -545.830662101     A.U. after   12 cycles
 SCF Done:  E(RB3LYP) =  -545.833027069     A.U. after   10 cycles
 SCF Done:  E(RB3LYP) =  -545.833086755     A.U. after   11 cycles
 SCF Done:  E(RB3LYP) =  -545.833251590     A.U. after   12 cycles
 SCF Done:  E(RB3LYP) =  -545.832930382     A.U. after   12 cycles
 SCF Done:  E(RB3LYP) =  -545.833518150     A.U. after   11 cycles
 SCF Done:  E(RB3LYP) =  -545.728870576     A.U. after   15 cycles
 SCF Done:  E(RB3LYP) =  -545.830030565     A.U. after   14 cycles
 SCF Done:  E(RB3LYP) =  -545.837793055     A.U. after    9 cycles
 SCF Done:  E(RB3LYP) =  -545.837803373     A.U. after    9 cycles
 SCF Done:  E(RB3LYP) =  -545.837812755     A.U. after   10 cycles
 SCF Done:  E(RB3LYP) =  -545.837813279     A.U. after    9 cycles
 SCF Done:  E(RB3LYP) =  -545.837813406     A.U. after    7 cycles
 Optimization completed.
    -- Stationary point found.
 Normal termination of Gaussian 16 at Wed Dec  9 23:01:56 2020.

 --------------------------------------------------------------------
 #N Geom=AllCheck Guess=TCheck SCRF=Check GenChk RB3LYP/6-31G(d) Freq
 --------------------------------------------------------------------

 Structure from the checkpoint file:  "JID_3254.chk"
 ------------------------------
 CID_79429196_JID_3254_neutraal
 ------------------------------
 Charge =  0 Multiplicity = 1

 SCF Done:  E(RB3LYP) =  -545.837813406     A.U. after    1 cycles

  Exact polarizability: 144.815  -1.558 120.073  -1.417  -0.917 110.521
 Approx polarizability: 169.269  -1.832 164.975  -2.895  -4.768 183.457

                      1                      2                      3
                      A                      A                      A
 Frequencies --     18.4333                40.8194                67.1235
 Red. masses --      4.0183                 2.6431                 3.1045
 Frc consts  --      0.0008                 0.0026                 0.0082
 IR Inten    --      0.9785                 0.2766                 0.9479

                      4                      5                      6
                      A                      A                      A
 Frequencies --     91.9086               154.8034               157.6518
 Red. masses --      4.5342                 2.5031                 2.3090
 Frc consts  --      0.0226                 0.0353                 0.0338
 IR Inten    --      2.2805                 0.3807                 0.0915

                      7                      8                      9
                      A                      A                      A
 Frequencies --    204.2375               221.0426               231.1167
 Red. masses --      1.1151                 1.7700                 1.7811
 Frc consts  --      0.0274                 0.0510                 0.0561
 IR Inten    --      0.1633                 0.6864                 2.2128

                     10                     11                     12
                      A                      A                      A
 Frequencies --    240.4214               260.5880               266.6011
 Red. masses --      1.1358                 2.0473                 2.2041
 Frc consts  --      0.0387                 0.0819                 0.0923
 IR Inten    --      0.0998                 0.6051                 1.2772

                     13                     14                     15
                      A                      A                      A
 Frequencies --    289.3000               314.9223               356.5854
 Red. masses --      1.8810                 2.7555                 2.7885
 Frc consts  --      0.0928                 0.1610                 0.2089
 IR Inten    --      0.2199                 5.6188                 1.7092

                     16                     17                     18
                      A                      A                      A
 Frequencies --    397.2166               418.0410               440.7379
 Red. masses --      2.4978                 3.3200                 2.3217
 Frc consts  --      0.2322                 0.3418                 0.2657
 IR Inten    --      4.1795                 0.2263                 0.5681

                     19                     20                     21
                      A                      A                      A
 Frequencies --    446.1949               483.3001               562.1383
 Red. masses --      1.7346                 2.7376                 2.3037
 Frc consts  --      0.2035                 0.3768                 0.4289
 IR Inten    --      0.0685                 0.1471                 0.9615

                     22                     23                     24
                      A                      A                      A
 Frequencies --    600.1246               650.7699               786.3592
 Red. masses --      2.3091                 3.1674                 2.2722
 Frc consts  --      0.4900                 0.7903                 0.8278
 IR Inten    --      1.0977                 4.0625                 1.0114

                     25                     26                     27
                      A                      A                      A
 Frequencies --    811.9759               855.4604               864.7677
 Red. masses --      2.9330                 1.7410                 1.8871
 Frc consts  --      1.1393                 0.7507                 0.8315
 IR Inten    --      3.1299                 0.7356                 1.4929

                     28                     29                     30
                      A                      A                      A
 Frequencies --    872.5513               894.5501               909.6332
 Red. masses --      1.6884                 2.4578                 2.1470
 Frc consts  --      0.7574                 1.1588                 1.0467
 IR Inten    --      0.6117                 0.8163                 0.8995

                     31                     32                     33
                      A                      A                      A
 Frequencies --    942.3772               951.2219               960.1372
 Red. masses --      1.3247                 1.4227                 1.9183
 Frc consts  --      0.6931                 0.7584                 1.0419
 IR Inten    --      1.8858                 5.7985                 5.5032

                     34                     35                     36
                      A                      A                      A
 Frequencies --    983.2775               994.7403              1003.9778
 Red. masses --      1.4536                 1.8641                 1.4050
 Frc consts  --      0.8280                 1.0868                 0.8344
 IR Inten    --      1.4190                 0.6155                 0.9641

                     37                     38                     39
                      A                      A                      A
 Frequencies --   1035.6925              1061.5035              1085.7354
 Red. masses --      2.6519                 1.9045                 1.7079
 Frc consts  --      1.6760                 1.2644                 1.1862
 IR Inten    --     23.2499                35.3214                 8.4278

                     40                     41                     42
                      A                      A                      A
 Frequencies --   1094.8803              1106.9495              1128.9022
 Red. masses --      1.8791                 1.0854                 1.8734
 Frc consts  --      1.3272                 0.7836                 1.4067
 IR Inten    --      6.4686                 3.1870                 7.9027

                     43                     44                     45
                      A                      A                      A
 Frequencies --   1140.5798              1142.5107              1168.7340
 Red. masses --      2.5456                 2.2414                 1.8929
 Frc consts  --      1.9512                 1.7238                 1.5233
 IR Inten    --     17.6756                11.8422                 3.4003

                     46                     47                     48
                      A                      A                      A
 Frequencies --   1193.0029              1213.8560              1235.9512
 Red. masses --      2.2203                 1.8336                 1.5148
 Frc consts  --      1.8619                 1.5918                 1.3633
 IR Inten    --      1.8669                 6.4660                 0.2662

                     49                     50                     51
                      A                      A                      A
 Frequencies --   1251.0147              1303.7670              1311.6315
 Red. masses --      1.3678                 1.3427                 1.3304
 Frc consts  --      1.2613                 1.3447                 1.3485
 IR Inten    --      3.6000                 1.9395                 4.3890

                     52                     53                     54
                      A                      A                      A
 Frequencies --   1317.0952              1328.8104              1339.2923
 Red. masses --      1.2279                 1.2339                 1.3735
 Frc consts  --      1.2550                 1.2837                 1.4515
 IR Inten    --      8.1551                 0.8674                 5.9885

                     55                     56                     57
                      A                      A                      A
 Frequencies --   1355.6584              1381.9355              1394.9386
 Red. masses --      1.2663                 1.4206                 1.3837
 Frc consts  --      1.3712                 1.5985                 1.5864
 IR Inten    --      1.6680                 4.3925                 1.9391

                     58                     59                     60
                      A                      A                      A
 Frequencies --   1396.7820              1401.6908              1406.4878
 Red. masses --      1.4742                 1.4332                 1.5614
 Frc consts  --      1.6945                 1.6591                 1.8198
 IR Inten    --      9.1831                 5.7375                 3.5735

                     61                     62                     63
                      A                      A                      A
 Frequencies --   1415.6226              1426.1667              1426.2709
 Red. masses --      1.6383                 1.2788                 1.6422
 Frc consts  --      1.9344                 1.5325                 1.9683
 IR Inten    --      7.0925                 4.2221                 4.2577

                     64                     65                     66
                      A                      A                      A
 Frequencies --   1439.4595              1444.5787              1483.2137
 Red. masses --      1.2556                 1.2223                 1.0878
 Frc consts  --      1.5329                 1.5028                 1.4100
 IR Inten    --      2.4185                 8.6295                 6.8887

                     67                     68                     69
                      A                      A                      A
 Frequencies --   1509.5926              1513.9109              1517.0679
 Red. masses --      1.0879                 1.0960                 1.0443
 Frc consts  --      1.4608                 1.4800                 1.4161
 IR Inten    --      0.5028                 0.9132                 2.9778

                     70                     71                     72
                      A                      A                      A
 Frequencies --   1519.0232              1520.1754              1527.8888
 Red. masses --      1.0625                 1.0731                 1.0474
 Frc consts  --      1.4445                 1.4611                 1.4407
 IR Inten    --      0.5489                 5.0957                 5.2716

                     73                     74                     75
                      A                      A                      A
 Frequencies --   1530.6656              1532.6025              1532.7742
 Red. masses --      1.0584                 1.0536                 1.0857
 Frc consts  --      1.4610                 1.4581                 1.5029
 IR Inten    --      2.5226                 7.1923                 8.5008

                     76                     77                     78
                      A                      A                      A
 Frequencies --   1541.0472              1804.0073              2995.2302
 Red. masses --      1.0606                10.6247                 1.0722
 Frc consts  --      1.4840                20.3724                 5.6673
 IR Inten    --     13.1408                96.6632                 5.2771

                     79                     80                     81
                      A                      A                      A
 Frequencies --   3004.5101              3008.4807              3012.5582
 Red. masses --      1.0752                 1.0663                 1.0669
 Frc consts  --      5.7183                 5.6861                 5.7047
 IR Inten    --     11.8483                 7.1838                32.2881

                     82                     83                     84
                      A                      A                      A
 Frequencies --   3017.0340              3027.2245              3031.3707
 Red. masses --      1.0692                 1.0638                 1.0830
 Frc consts  --      5.7340                 5.7439                 5.8634
 IR Inten    --     36.3915                25.3814                22.2946

                     85                     86                     87
                      A                      A                      A
 Frequencies --   3037.1338              3043.1245              3050.7274
 Red. masses --      1.0370                 1.0825                 1.0359
 Frc consts  --      5.6359                 5.9063                 5.6806
 IR Inten    --     42.8153                 5.6522                21.5353

                     88                     89                     90
                      A                      A                      A
 Frequencies --   3057.8272              3059.2958              3064.4276
 Red. masses --      1.0916                 1.0374                 1.0958
 Frc consts  --      6.0139                 5.7207                 6.0627
 IR Inten    --     16.3091                29.2573                28.3080

                     91                     92                     93
                      A                      A                      A
 Frequencies --   3067.0062              3075.3637              3083.1832
 Red. masses --      1.0916                 1.1018                 1.0940
 Frc consts  --      6.0499                 6.1398                 6.1274
 IR Inten    --     97.4796                58.7559                28.0145

                     94                     95                     96
                      A                      A                      A
 Frequencies --   3100.9991              3108.7519              3120.6188
 Red. masses --      1.1010                 1.1024                 1.1025
 Frc consts  --      6.2377                 6.2772                 6.3260
 IR Inten    --     57.2732                40.1101                28.5546

                     97                     98                     99
                      A                      A                      A
 Frequencies --   3123.0494              3125.5260              3142.4936
 Red. masses --      1.1029                 1.1033                 1.1015
 Frc consts  --      6.3381                 6.3505                 6.4089
 IR Inten    --     25.6358                27.6045                22.5704

 - Thermochemistry -
 -------------------
 Temperature   298.150 Kelvin.  Pressure   1.00000 Atm.
 Atom     1 has atomic number  6 and mass  12.00000

 Molecular mass:   182.16707 amu.
 Principal axes and moments of inertia in atomic units:
                           1         2         3
     Eigenvalues --  1239.673874775.901395341.26342
           X            0.99998   0.00019  -0.00618
           Y           -0.00016   0.99999   0.00466
           Z            0.00618  -0.00466   0.99997
 This molecule is an asymmetric top.
 Rotational symmetry number  1.
 Warning -- assumption of classical behavior for rotation
           may cause significant error
 Rotational temperatures (Kelvin)      0.06987     0.01814     0.01622
 Rotational constants (GHZ):           1.45582     0.37788     0.33789
 Zero-point vibrational energy     846851.5 (Joules/Mol)
                                  202.40237 (Kcal/Mol)
 Warning -- explicit consideration of  22 degrees of freedom as
           vibrations may cause significant error
 Vibrational temperatures:     26.52    58.73    96.58   132.24   222.73
          (Kelvin)            226.83   293.85   318.03   332.53   345.91
                              374.93   383.58   416.24   453.10   513.05
                              571.51   601.47   634.12   641.97   695.36
                              808.79   863.45   936.31  1131.40  1168.25
                             1230.82  1244.21  1255.41  1287.06  1308.76
                             1355.87  1368.60  1381.42  1414.72  1431.21
                             1444.50  1490.13  1527.27  1562.13  1575.29
                             1592.65  1624.24  1641.04  1643.82  1681.55
                             1716.47  1746.47  1778.26  1799.93  1875.83
                             1887.15  1895.01  1911.86  1926.94  1950.49
                             1988.30  2007.01  2009.66  2016.72  2023.62
                             2036.77  2051.94  2052.09  2071.06  2078.43
                             2134.01  2171.97  2178.18  2182.72  2185.54
                             2187.19  2198.29  2202.29  2205.07  2205.32
                             2217.22  2595.56  4309.47  4322.82  4328.53
                             4334.40  4340.84  4355.50  4361.47  4369.76
                             4378.38  4389.32  4399.53  4401.64  4409.03
                             4412.74  4424.76  4436.01  4461.65  4472.80
                             4489.87  4493.37  4496.93  4521.35

 Zero-point correction=                           0.322549 (Hartree/Particle)
 Thermal correction to Energy=                    0.337191
 Thermal correction to Enthalpy=                  0.338135
 Thermal correction to Gibbs Free Energy=         0.280252
 Sum of electronic and zero-point Energies=           -545.515265
 Sum of electronic and thermal Energies=              -545.500622
 Sum of electronic and thermal Enthalpies=            -545.499678
 Sum of electronic and thermal Free Energies=         -545.557561

                     E (Thermal)             CV                S
                      KCal/Mol        Cal/Mol-Kelvin    Cal/Mol-Kelvin
 Total                  211.591             55.526            121.826
 Electronic               0.000              0.000              0.000
 Translational            0.889              2.981             41.506
 Rotational               0.889              2.981             31.825
 Vibrational            209.813             49.565             48.494
 Vibration     1          0.593              1.986              6.796
 Vibration     2          0.594              1.981              5.219
 Vibration     3          0.598              1.970              4.236
 Vibration     4          0.602              1.955              3.619
 Vibration     5          0.620              1.897              2.612
 Vibration     6          0.621              1.894              2.578
 Vibration     7          0.640              1.834              2.095
 Vibration     8          0.648              1.809              1.951
 Vibration     9          0.653              1.793              1.870
 Vibration    10          0.658              1.779              1.800
 Vibration    11          0.669              1.745              1.658
 Vibration    12          0.672              1.734              1.618
 Vibration    13          0.686              1.694              1.478
 Vibration    14          0.702              1.645              1.336
 Vibration    15          0.732              1.562              1.137
 Vibration    16          0.764              1.476              0.973
 Vibration    17          0.781              1.431              0.899
 Vibration    18          0.801              1.381              0.824
 Vibration    19          0.805              1.369              0.807
 Vibration    20          0.839              1.287              0.701
 Vibration    21          0.918              1.113              0.520
 Vibration    22          0.958              1.032              0.449

                           ! Non-Optimized Parameters !
 Normal termination of Gaussian 16 at Wed Dec  9 23:12:26 2020.

 ----------------------------------------------------------------------
 # B3LYP/6-311++G(d,p) empiricaldispersion=gd3bj scf=xqc pop=npa geom=c
 heck
 ----------------------------------------------------------------------

 --------------------------------------
 CID_79429196_JID_3254_Energie_neutraal
 --------------------------------------
 Structure from the checkpoint file:  "JID_3254.chk"
 Charge =  0 Multiplicity = 1

 SCF Done:  E(RB3LYP) =  -545.989947371     A.U. after   14 cycles
 Normal termination of Gaussian 16 at Wed Dec  9 23:17:44 2020.

 ----------------------------------------------------------------------
 # B3LYP/6-311++G(d,p) empiricaldispersion=gd3bj scf=xqc pop=npa geom=c
 heck
 ----------------------------------------------------------------------

 ------------------------------------
 CID_79429196_JID_3254_Energie_kation
 ------------------------------------
 Structure from the checkpoint file:  "JID_3254.chk"
 Charge =  1 Multiplicity = 2

 SCF Done:  E(UB3LYP) =  -545.666694115     A.U. after   23 cycles
 Normal termination of Gaussian 16 at Wed Dec  9 23:30:05 2020.
 Gaussian 16:  ES64L-G16RevA.03 25-Dec-2016

 ----------------------------------------------------------------------
 # B3LYP/6-311++G(d,p) empiricaldispersion=gd3bj scf=xqc pop=npa geom=c
 heck
 ----------------------------------------------------------------------

 -----------------------------------
 CID_79429196_JID_3254_Energie_anion
 -----------------------------------
 Structure from the checkpoint file:  "JID_3254.chk"
 Charge = -1 Multiplicity = 2

                         Standard orientation:
 ---------------------------------------------------------------------
 Center     Atomic      Atomic             Coordinates (Angstroms)
 Number     Number       Type             X           Y           Z
 ---------------------------------------------------------------------
      1          6           0        2.844513    2.402473   -0.122042
      2          6           0        2.452382    0.949910   -0.402363
      3          6           0        3.464936   -0.037120    0.198526
      4          6           0        3.063269   -1.494878   -0.056794
      5          6           0        1.647753   -1.782662    0.458103
      6          6           0        0.618766   -0.814478   -0.143426
      7          6           0        1.038614    0.641763    0.113714
      8          6           0       -0.787705   -1.088540    0.393159
      9          6           0       -1.895557   -0.361420   -0.358110
     10          8           0       -1.754573    0.007672   -1.510485
     11          6           0       -3.189427   -0.101530    0.411759
     12          6           0       -3.003619    1.202597    1.215746
     13          6           0       -4.395495   -0.014613   -0.524477
     14          1           0        2.863019    2.599361    0.957733
     15          1           0        3.841001    2.629870   -0.518840
     16          1           0        2.132322    3.101284   -0.576271
     17          1           0        2.446097    0.799809   -1.493347
     18          1           0        4.465712    0.158944   -0.207915
     19          1           0        3.528353    0.137848    1.283665
     20          1           0        3.783101   -2.176403    0.413267
     21          1           0        3.100162   -1.695665   -1.137137
     22          1           0        1.634673   -1.685994    1.554744
     23          1           0        1.364092   -2.819319    0.232536
     24          1           0        0.588854   -0.967359   -1.230459
     25          1           0        1.006481    0.836953    1.198220
     26          1           0        0.317941    1.322573   -0.354012
     27          1           0       -1.023151   -2.162428    0.313887
     28          1           0       -0.851906   -0.855048    1.464715
     29          1           0       -3.328567   -0.923865    1.127811
     30          1           0       -2.858048    2.048033    0.534384
     31          1           0       -3.891278    1.402478    1.825206
     32          1           0       -2.137562    1.153071    1.884957
     33          1           0       -4.548221   -0.955651   -1.063282
     34          1           0       -5.306564    0.210145    0.040535
     35          1           0       -4.240504    0.770973   -1.269289
 ---------------------------------------------------------------------

 SCF Done:  E(UB3LYP) =  -545.976662682     A.U. after   33 cycles
 SCF Done:  E(UB3LYP) =  -545.976662682     a.u. after    1 cycles

 The electronic state is 2-A.
 Alpha  occ. eigenvalues --  -19.00061 -10.14401 -10.07759 -10.07516 -10.06910
 Alpha  occ. eigenvalues --  -10.06829 -10.06723 -10.06655 -10.06603 -10.06325
 Alpha  occ. eigenvalues --  -10.06284 -10.05989 -10.05772  -0.93456  -0.74373
 Alpha  occ. eigenvalues --   -0.70233  -0.68223  -0.65880  -0.60458  -0.58578
 Alpha  occ. eigenvalues --   -0.58124  -0.52495  -0.50045  -0.47524  -0.45632
 Alpha  occ. eigenvalues --   -0.41290  -0.38266  -0.37550  -0.36352  -0.35016
 Alpha  occ. eigenvalues --   -0.34634  -0.34068  -0.33310  -0.31964  -0.29790
 Alpha  occ. eigenvalues --   -0.29544  -0.29121  -0.28937  -0.28423  -0.27156
 Alpha  occ. eigenvalues --   -0.26180  -0.25566  -0.24546  -0.24149  -0.23918
 Alpha  occ. eigenvalues --   -0.23509  -0.23084  -0.21930  -0.20226  -0.20088
 Alpha  occ. eigenvalues --   -0.14049   0.04400
 Alpha virt. eigenvalues --    0.06181   0.07000   0.07709   0.07967   0.08217
 Alpha virt. eigenvalues --    0.08816   0.09198   0.10047   0.10523   0.10637
 Alpha virt. eigenvalues --    0.10810   0.11530   0.11832   0.12523   0.13135

  Beta  occ. eigenvalues --  -18.99987 -10.14321 -10.07756 -10.07514 -10.06909
  Beta  occ. eigenvalues --  -10.06816 -10.06712 -10.06641 -10.06590 -10.06276
  Beta  occ. eigenvalues --  -10.06266 -10.05978 -10.05754  -0.93306  -0.74353
  Beta  occ. eigenvalues --   -0.70163  -0.68199  -0.65850  -0.60387  -0.58513
  Beta  occ. eigenvalues --   -0.58086  -0.52409  -0.50001  -0.47478  -0.45594
  Beta  occ. eigenvalues --   -0.41160  -0.38203  -0.37498  -0.36300  -0.34964
  Beta  occ. eigenvalues --   -0.34596  -0.33966  -0.33273  -0.31899  -0.29738
  Beta  occ. eigenvalues --   -0.29499  -0.29092  -0.28879  -0.28384  -0.27127
  Beta  occ. eigenvalues --   -0.26061  -0.25485  -0.24503  -0.24119  -0.23870
  Beta  occ. eigenvalues --   -0.23395  -0.22981  -0.21902  -0.20197  -0.20056
  Beta  occ. eigenvalues --   -0.13984
  Beta virt. eigenvalues --    0.06413   0.07166   0.07503   0.08010   0.08535
  Beta virt. eigenvalues --    0.08905   0.09161   0.09700   0.10401   0.10694
  Beta virt. eigenvalues --    0.10922   0.11213   0.11788   0.12149   0.12708

 Mulliken charges and spin densities:
               1          2
     1  C    0.232364  -0.913449
     2  C   -0.640813   1.125161
     3  C    0.346823  -0.819793
     4  C   -0.267206  -0.103712
     5  C    0.082856  -0.450455
     6  C    0.147223   0.776050
     7  C    0.324281  -1.318191
     8  C    1.032106  -1.820200
     9  C   -0.106402   0.215415
    10  O   -0.235995   0.010346
    11  C   -1.409000   1.664450
    12  C    1.251442  -1.927838
    13  C   -0.142602  -0.475864
    14  H   -0.047949   0.183467
    15  H   -0.010400   0.151230
    16  H    0.048853   0.082533
    17  H    0.051377   0.115580
    18  H   -0.168997   0.318297
    19  H    0.048651   0.082963
    20  H   -0.321022   0.505432
    21  H    0.132671  -0.016669
    22  H   -0.074955   0.214111
    23  H   -0.276350   0.426515
    24  H    0.191613   0.011570
    25  H   -0.010300   0.154262
    26  H    0.240714  -0.094402
    27  H   -0.226260   0.440054
    28  H    0.072735   0.092409
    29  H   -0.467332   0.662041
    30  H   -0.006108   0.155451
    31  H   -0.456705   0.616669
    32  H   -0.221624   0.369948
    33  H    0.022553   0.109525
    34  H   -0.227222   0.378726
    35  H    0.090981   0.078370
 Sum of Mulliken charges =  -1.00000   1.00000

 Dipole moment (field-independent basis, Debye):
    X=              3.2313    Y=              1.4090    Z=             -3.0153  Tot=              4.6388
 Quadrupole moment (field-independent basis, Debye-Ang):
   XX=           -167.8963   YY=           -125.4169   ZZ=           -120.9576
   XY=              3.1802   XZ=              6.8779   YZ=              0.3351

 Summary of Natural Population Analysis:

                                       Natural Population
                Natural  -----------------------------------------------
    Atom  No    Charge         Core      Valence    Rydberg      Total
 -----------------------------------------------------------------------
      C    1   -0.28056      0.99965     2.27619    0.00472     3.28056
      C    2   -0.11072      0.99960     2.10269    0.00844     3.11072
      C    3   -0.18770      0.99961     2.17927    0.00882     3.18770
      C    4   -0.18764      0.99963     2.17956    0.00845     3.18764
      C    5   -0.18540      0.99961     2.17688    0.00890     3.18540
      C    6   -0.11272      0.99959     2.10211    0.01102     3.11272
      C    7   -0.18802      0.99959     2.17962    0.00881     3.18802
      C    8   -0.23498      0.99956     2.22567    0.00976     3.23498
      C    9    0.31573      0.99964     1.66202    0.02261     2.68427
      O   10   -0.29252      0.99987     3.28672    0.00594     4.29252
      C   11   -0.15541      0.99957     2.14552    0.01032     3.15541
      C   12   -0.27915      0.99964     2.27319    0.00633     3.27915
      C   13   -0.28408      0.99966     2.27680    0.00762     3.28408
      H   14    0.09658      0.00000     0.40252    0.00090     0.40342
      H   15    0.09660      0.00000     0.40255    0.00084     0.40340
      H   16    0.09825      0.00000     0.40094    0.00081     0.40175
      H   17    0.09063      0.00000     0.40760    0.00177     0.40937
      H   18    0.09715      0.00000     0.40186    0.00099     0.40285
      H   19    0.09298      0.00000     0.40577    0.00125     0.40702
      H   20    0.09807      0.00000     0.40090    0.00102     0.40193
      H   21    0.09126      0.00000     0.40748    0.00126     0.40874
      H   22    0.09302      0.00000     0.40559    0.00139     0.40698
      H   23    0.10016      0.00000     0.39869    0.00115     0.39984
      H   24    0.10169      0.00000     0.39641    0.00190     0.39831
      H   25    0.09203      0.00000     0.40656    0.00141     0.40797
      H   26    0.10499      0.00000     0.39383    0.00118     0.39501
      H   27    0.11710      0.00000     0.38101    0.00189     0.38290
      H   28    0.10494      0.00000     0.39360    0.00146     0.39506
      H   29    0.10287      0.00000     0.39381    0.00331     0.39713
      H   30    0.09793      0.00000     0.40102    0.00106     0.40207
      H   31    0.10396      0.00000     0.39398    0.00206     0.39604
      H   32    0.10135      0.00000     0.39748    0.00118     0.39865
      H   33    0.09959      0.00000     0.39961    0.00080     0.40041
      H   34    0.09835      0.00000     0.40079    0.00085     0.40165
      H   35    0.10367      0.00000     0.39536    0.00096     0.39633
 =======================================================================
   * Total *    0.00000     12.99523    37.85359    0.15118    51.00000

 Normal termination of Gaussian 16 at Wed Dec  9 23:47:44 2020.
