 Gaussian 16, Revision A.03,

 -----------------------------------------------------------
 # opt freq B3LYP/6-31G(d) empiricaldispersion=gd3bj scf=xqc
 -----------------------------------------------------------

 --------------------------------
 CID_103457659_JID_10611_neutraal
 --------------------------------
 Symbolic Z-matrix:
 Charge =  0 Multiplicity = 1

 SCF Done:  E(RB3LYP) =  -955.970727777     A.U. after   16 cycles
 SCF Done:  E(RB3LYP) =  -955.979770685     A.U. after   13 cycles
 SCF Done:  E(RB3LYP) =  -955.982340671     A.U. after   13 cycles
 SCF Done:  E(RB3LYP) =  -955.986414060     A.U. after   13 cycles
 SCF Done:  E(RB3LYP) =  -955.987692248     A.U. after   14 cycles
 SCF Done:  E(RB3LYP) =  -955.992327937     A.U. after   13 cycles
 SCF Done:  E(RB3LYP) =  -955.993175331     A.U. after   13 cycles
 SCF Done:  E(RB3LYP) =  -955.992464710     A.U. after   12 cycles
 SCF Done:  E(RB3LYP) =  -955.993537895     A.U. after   12 cycles
 SCF Done:  E(RB3LYP) =  -955.993555639     A.U. after   10 cycles
 SCF Done:  E(RB3LYP) =  -955.993574837     A.U. after   10 cycles
 SCF Done:  E(RB3LYP) =  -955.993575881     A.U. after    8 cycles
 SCF Done:  E(RB3LYP) =  -955.993576052     A.U. after    8 cycles
 SCF Done:  E(RB3LYP) =  -955.993576124     A.U. after    7 cycles
 SCF Done:  E(RB3LYP) =  -955.993576138     A.U. after    6 cycles
 Optimization completed.
    -- Stationary point found.
 Normal termination of Gaussian 16 at Sun Dec 13 20:28:11 2020.

 --------------------------------------------------------------------
 #N Geom=AllCheck Guess=TCheck SCRF=Check GenChk RB3LYP/6-31G(d) Freq
 --------------------------------------------------------------------

 Structure from the checkpoint file:  "JID_10611.chk"
 --------------------------------
 CID_103457659_JID_10611_neutraal
 --------------------------------
 Charge =  0 Multiplicity = 1

 SCF Done:  E(RB3LYP) =  -955.993576138     A.U. after    1 cycles

  Exact polarizability: 232.642   9.254 177.525 -14.788  -3.945 117.794
 Approx polarizability: 293.812  30.355 303.062 -30.870 -17.993 184.802

                      1                      2                      3
                      A                      A                      A
 Frequencies --     17.8468                33.2283                40.2913
 Red. masses --      5.0158                 4.3671                 3.6607
 Frc consts  --      0.0009                 0.0028                 0.0035
 IR Inten    --      2.0581                 0.2927                 0.3615

                      4                      5                      6
                      A                      A                      A
 Frequencies --     68.5027               112.0108               115.9073
 Red. masses --      4.8395                 3.9619                 3.3170
 Frc consts  --      0.0134                 0.0293                 0.0263
 IR Inten    --      0.5471                 1.5428                 0.0518

                      7                      8                      9
                      A                      A                      A
 Frequencies --    136.2619               148.9318               160.8601
 Red. masses --      4.3662                 3.7785                 3.6280
 Frc consts  --      0.0478                 0.0494                 0.0553
 IR Inten    --      6.7305                 1.5279                 6.4404

                     10                     11                     12
                      A                      A                      A
 Frequencies --    167.3136               168.3954               182.6509
 Red. masses --      1.8702                 1.8723                 1.2221
 Frc consts  --      0.0308                 0.0313                 0.0240
 IR Inten    --      0.3853                 0.7256                 0.7887

                     13                     14                     15
                      A                      A                      A
 Frequencies --    191.9825               236.5041               257.4497
 Red. masses --      2.8994                 4.5950                 3.8347
 Frc consts  --      0.0630                 0.1514                 0.1497
 IR Inten    --      0.6618                 2.7097                 0.8951

                     16                     17                     18
                      A                      A                      A
 Frequencies --    280.2524               294.6894               309.2493
 Red. masses --      2.4756                 3.9410                 3.4517
 Frc consts  --      0.1146                 0.2016                 0.1945
 IR Inten    --      1.4411                 3.3915                 4.9056

                     19                     20                     21
                      A                      A                      A
 Frequencies --    329.3696               349.0064               382.3134
 Red. masses --      3.5786                 5.6862                 3.7512
 Frc consts  --      0.2287                 0.4081                 0.3230
 IR Inten    --      1.4672                 2.1211                 1.9812

                     22                     23                     24
                      A                      A                      A
 Frequencies --    402.8895               452.6098               480.2818
 Red. masses --      1.9207                 3.4983                 4.0127
 Frc consts  --      0.1837                 0.4222                 0.5454
 IR Inten    --      0.2426                 4.3327                 0.9919

                     25                     26                     27
                      A                      A                      A
 Frequencies --    486.8074               513.1681               525.1263
 Red. masses --      2.9903                 6.5418                 3.4566
 Frc consts  --      0.4175                 1.0150                 0.5616
 IR Inten    --      1.3500                16.1854                 2.0636

                     28                     29                     30
                      A                      A                      A
 Frequencies --    567.4121               583.3678               604.9973
 Red. masses --      2.5034                 5.1132                 1.4785
 Frc consts  --      0.4749                 1.0252                 0.3188
 IR Inten    --     20.4108                 1.2465               153.0630

                     31                     32                     33
                      A                      A                      A
 Frequencies --    627.6806               656.4013               696.3746
 Red. masses --      3.3573                 4.6260                 7.2969
 Frc consts  --      0.7793                 1.1744                 2.0848
 IR Inten    --     37.1393                97.8841                 0.4297

                     34                     35                     36
                      A                      A                      A
 Frequencies --    730.2517               739.3026               769.4116
 Red. masses --      4.9683                 7.5857                 4.5496
 Frc consts  --      1.5610                 2.4428                 1.5869
 IR Inten    --      0.2625                27.3853                27.0026

                     37                     38                     39
                      A                      A                      A
 Frequencies --    798.8818               804.6763               822.8878
 Red. masses --      6.8197                 1.5133                 3.6667
 Frc consts  --      2.5644                 0.5773                 1.4629
 IR Inten    --      7.0542                 0.6254                 3.5207

                     40                     41                     42
                      A                      A                      A
 Frequencies --    852.2745               878.3115               881.1235
 Red. masses --      1.6720                 1.5360                 2.2588
 Frc consts  --      0.7155                 0.6982                 1.0332
 IR Inten    --     23.9149                14.8139                 1.2520

                     43                     44                     45
                      A                      A                      A
 Frequencies --    888.3314               953.4687               973.3026
 Red. masses --      2.2473                 1.3604                 2.1063
 Frc consts  --      1.0449                 0.7287                 1.1756
 IR Inten    --      4.1950                 2.5862                20.2305

                     46                     47                     48
                      A                      A                      A
 Frequencies --   1005.2114              1038.2284              1044.8142
 Red. masses --      6.3844                 3.8630                 3.7531
 Frc consts  --      3.8009                 2.4534                 2.4139
 IR Inten    --      0.3584                 6.7320                14.3223

                     49                     50                     51
                      A                      A                      A
 Frequencies --   1049.7373              1056.8106              1061.3333
 Red. masses --      2.3279                 1.7058                 3.8771
 Frc consts  --      1.5114                 1.1225                 2.5731
 IR Inten    --     50.6398                 1.3178               103.3705

                     52                     53                     54
                      A                      A                      A
 Frequencies --   1086.8860              1103.8496              1108.3953
 Red. masses --      4.0362                 4.2579                 1.6905
 Frc consts  --      2.8092                 3.0568                 1.2236
 IR Inten    --     36.8751                31.7962                 0.6755

                     55                     56                     57
                      A                      A                      A
 Frequencies --   1150.0948              1162.9440              1177.1345
 Red. masses --      1.0670                 1.8204                 1.6159
 Frc consts  --      0.8316                 1.4505                 1.3192
 IR Inten    --      0.1583                 3.9214                15.0513

                     58                     59                     60
                      A                      A                      A
 Frequencies --   1181.8305              1183.9912              1209.9512
 Red. masses --      1.2655                 1.2650                 1.3874
 Frc consts  --      1.0415                 1.0448                 1.1967
 IR Inten    --      0.3396                 0.7231                 7.1718

                     61                     62                     63
                      A                      A                      A
 Frequencies --   1226.1220              1248.0361              1253.3416
 Red. masses --      1.7401                 1.4405                 2.7417
 Frc consts  --      1.5413                 1.3220                 2.5376
 IR Inten    --     19.1478                29.2270               240.5413

                     64                     65                     66
                      A                      A                      A
 Frequencies --   1268.1972              1304.5525              1308.4826
 Red. masses --      2.8545                 1.2687                 1.2616
 Frc consts  --      2.7049                 1.2721                 1.2727
 IR Inten    --    166.5780                 2.4722                 2.9313

                     67                     68                     69
                      A                      A                      A
 Frequencies --   1314.7066              1322.4879              1345.2760
 Red. masses --      1.5052                 1.6093                 2.5778
 Frc consts  --      1.5328                 1.6583                 2.7487
 IR Inten    --     11.6521                 9.9270                11.8699

                     70                     71                     72
                      A                      A                      A
 Frequencies --   1357.7867              1370.7716              1390.3543
 Red. masses --      1.5527                 1.3299                 2.0939
 Frc consts  --      1.6866                 1.4723                 2.3848
 IR Inten    --      1.4329                 0.1675               182.1263

                     73                     74                     75
                      A                      A                      A
 Frequencies --   1393.4591              1399.6350              1406.3339
 Red. masses --      2.1894                 1.4233                 1.4156
 Frc consts  --      2.5048                 1.6428                 1.6495
 IR Inten    --    168.3000                 0.2642                 1.4067

                     76                     77                     78
                      A                      A                      A
 Frequencies --   1410.4737              1419.1969              1422.1744
 Red. masses --      1.4360                 1.6278                 2.1526
 Frc consts  --      1.6832                 1.9317                 2.5652
 IR Inten    --      1.1423                87.8872               186.1213

                     79                     80                     81
                      A                      A                      A
 Frequencies --   1471.0959              1474.6779              1510.8249
 Red. masses --      1.6492                 1.2061                 1.0487
 Frc consts  --      2.1028                 1.5453                 1.4104
 IR Inten    --     17.7437                71.7307                 1.0630

                     82                     83                     84
                      A                      A                      A
 Frequencies --   1511.2552              1512.0280              1514.1644
 Red. masses --      1.5229                 1.0897                 1.0493
 Frc consts  --      2.0493                 1.4678                 1.4174
 IR Inten    --     40.8238                 0.3812                13.2790

                     85                     86                     87
                      A                      A                      A
 Frequencies --   1516.5333              1520.7850              1522.7410
 Red. masses --      1.0898                 1.1332                 1.1051
 Frc consts  --      1.4768                 1.5441                 1.5097
 IR Inten    --      1.5181                 5.9149                25.1988

                     88                     89                     90
                      A                      A                      A
 Frequencies --   1525.5539              1527.9202              1541.3967
 Red. masses --      1.0956                 1.0816                 1.1167
 Frc consts  --      1.5023                 1.4877                 1.5632
 IR Inten    --      6.9223                 9.0265                10.8372

                     91                     92                     93
                      A                      A                      A
 Frequencies --   1542.8041              1598.4448              1613.4510
 Red. masses --      2.2276                 7.2895                 7.1268
 Frc consts  --      3.1240                10.9735                10.9310
 IR Inten    --     49.2695               189.5401               380.5736

                     94                     95                     96
                      A                      A                      A
 Frequencies --   1774.6817              3016.7376              3025.9903
 Red. masses --     11.9393                 1.0672                 1.0725
 Frc consts  --     22.1550                 5.7223                 5.7861
 IR Inten    --    151.1609                24.3500                29.3451

                     97                     98                     99
                      A                      A                      A
 Frequencies --   3026.3552              3038.3691              3044.5344
 Red. masses --      1.0699                 1.0623                 1.0724
 Frc consts  --      5.7733                 5.7780                 5.8568
 IR Inten    --      9.8085                20.6986                45.7581

                    100                    101                    102
                      A                      A                      A
 Frequencies --   3045.8323              3068.9751              3070.2785
 Red. masses --      1.0710                 1.0918                 1.0307
 Frc consts  --      5.8540                 6.0586                 5.7247
 IR Inten    --     28.5297                86.4606                17.9987

                    103                    104                    105
                      A                      A                      A
 Frequencies --   3072.1486              3075.4545              3080.6928
 Red. masses --      1.0303                 1.1024                 1.0947
 Frc consts  --      5.7294                 6.1435                 6.1214
 IR Inten    --     59.0249                58.2466                29.2648

                    106                    107                    108
                      A                      A                      A
 Frequencies --   3087.8941              3102.6663              3119.8425
 Red. masses --      1.1022                 1.0942                 1.0858
 Frc consts  --      6.1922                 6.2062                 6.2270
 IR Inten    --     73.1127                24.1138                31.2297

                    109                    110                    111
                      A                      A                      A
 Frequencies --   3142.5782              3144.9939              3185.1388
 Red. masses --      1.1073                 1.1075                 1.1063
 Frc consts  --      6.4432                 6.4541                 6.6127
 IR Inten    --     18.6793                25.6829                25.1374

                    112                    113                    114
                      A                      A                      A
 Frequencies --   3186.9738              3218.6660              3648.8613
 Red. masses --      1.1058                 1.0925                 1.0646
 Frc consts  --      6.6172                 6.6686                 8.3509
 IR Inten    --     11.0825                 8.6228               149.8975

 - Thermochemistry -
 -------------------
 Temperature   298.150 Kelvin.  Pressure   1.00000 Atm.
 Atom     1 has atomic number  6 and mass  12.00000

 Molecular mass:   280.14231 amu.
 Principal axes and moments of inertia in atomic units:
                           1         2         3
     Eigenvalues --  2589.51230********************
           X            0.99997  -0.00752   0.00262
           Y            0.00749   0.99992   0.01021
           Z           -0.00269  -0.01019   0.99994
 This molecule is an asymmetric top.
 Rotational symmetry number  1.
 Warning -- assumption of classical behavior for rotation
           may cause significant error
 Rotational temperatures (Kelvin)      0.03345     0.00865     0.00766
 Rotational constants (GHZ):           0.69694     0.18022     0.15968
 Zero-point vibrational energy     888444.4 (Joules/Mol)
                                  212.34330 (Kcal/Mol)
 Warning -- explicit consideration of  30 degrees of freedom as
           vibrations may cause significant error
 Vibrational temperatures:     25.68    47.81    57.97    98.56   161.16
          (Kelvin)            166.76   196.05   214.28   231.44   240.73
                              242.28   262.79   276.22   340.28   370.41
                              403.22   423.99   444.94   473.89   502.14
                              550.06   579.67   651.20   691.02   700.41
                              738.33   755.54   816.38   839.34   870.46
                              903.09   944.42  1001.93  1050.67  1063.69
                             1107.01  1149.41  1157.75  1183.95  1226.23
                             1263.69  1267.74  1278.11  1371.83  1400.37
                             1446.27  1493.78  1503.25  1510.34  1520.51
                             1527.02  1563.79  1588.19  1594.73  1654.73
                             1673.22  1693.63  1700.39  1703.50  1740.85
                             1764.12  1795.65  1803.28  1824.65  1876.96
                             1882.61  1891.57  1902.77  1935.55  1953.55
                             1972.23  2000.41  2004.88  2013.76  2023.40
                             2029.36  2041.91  2046.19  2116.58  2121.73
                             2173.74  2174.36  2175.47  2178.54  2181.95
                             2188.07  2190.88  2194.93  2198.34  2217.73
                             2219.75  2299.81  2321.40  2553.37  4340.41
                             4353.73  4354.25  4371.54  4380.41  4382.27
                             4415.57  4417.45  4420.14  4424.89  4432.43
                             4442.79  4464.04  4488.76  4521.47  4524.94
                             4582.70  4585.34  4630.94  5249.90

 Zero-point correction=                           0.338391 (Hartree/Particle)
 Thermal correction to Energy=                    0.357540
 Thermal correction to Enthalpy=                  0.358484
 Thermal correction to Gibbs Free Energy=         0.289788
 Sum of electronic and zero-point Energies=           -955.655186
 Sum of electronic and thermal Energies=              -955.636037
 Sum of electronic and thermal Enthalpies=            -955.635092
 Sum of electronic and thermal Free Energies=         -955.703788

                     E (Thermal)             CV                S
                      KCal/Mol        Cal/Mol-Kelvin    Cal/Mol-Kelvin
 Total                  224.360             72.659            144.582
 Electronic               0.000              0.000              0.000
 Translational            0.889              2.981             42.789
 Rotational               0.889              2.981             34.038
 Vibrational            222.582             66.697             67.755
 Vibration     1          0.593              1.986              6.860
 Vibration     2          0.594              1.983              5.627
 Vibration     3          0.594              1.981              5.245
 Vibration     4          0.598              1.969              4.196
 Vibration     5          0.607              1.940              3.234
 Vibration     6          0.608              1.936              3.167
 Vibration     7          0.614              1.917              2.856
 Vibration     8          0.618              1.904              2.686
 Vibration     9          0.622              1.890              2.540
 Vibration    10          0.624              1.883              2.465
 Vibration    11          0.625              1.881              2.453
 Vibration    12          0.630              1.863              2.301
 Vibration    13          0.634              1.851              2.209
 Vibration    14          0.655              1.785              1.829
 Vibration    15          0.667              1.750              1.679
 Vibration    16          0.680              1.710              1.532
 Vibration    17          0.689              1.684              1.447
 Vibration    18          0.699              1.656              1.366
 Vibration    19          0.712              1.617              1.263
 Vibration    20          0.726              1.577              1.171
 Vibration    21          0.752              1.508              1.030
 Vibration    22          0.768              1.464              0.952
 Vibration    23          0.811              1.355              0.788
 Vibration    24          0.837              1.294              0.709
 Vibration    25          0.843              1.279              0.692
 Vibration    26          0.868              1.221              0.626
 Vibration    27          0.880              1.194              0.598
 Vibration    28          0.923              1.102              0.509
 Vibration    29          0.940              1.067              0.479
 Vibration    30          0.964              1.021              0.441

 Optimization completed.
    -- Stationary point found.
 Normal termination of Gaussian 16 at Sun Dec 13 20:51:23 2020.

 ----------------------------------------------------------------------
 # B3LYP/6-311++G(d,p) empiricaldispersion=gd3bj scf=xqc pop=npa geom=c
 heck
 ----------------------------------------------------------------------

 ----------------------------------------
 CID_103457659_JID_10611_Energie_neutraal
 ----------------------------------------
 Structure from the checkpoint file:  "JID_10611.chk"
 Charge =  0 Multiplicity = 1

 SCF Done:  E(RB3LYP) =  -956.263911243     A.U. after   16 cycles
 Normal termination of Gaussian 16 at Sun Dec 13 21:02:35 2020.

 ----------------------------------------------------------------------
 # B3LYP/6-311++G(d,p) empiricaldispersion=gd3bj scf=xqc pop=npa geom=c
 heck
 ----------------------------------------------------------------------

 --------------------------------------
 CID_103457659_JID_10611_Energie_kation
 --------------------------------------
 Structure from the checkpoint file:  "JID_10611.chk"
 Charge =  1 Multiplicity = 2

 SCF Done:  E(UB3LYP) =  -955.965316097     A.U. after   33 cycles
 SCF Done:  E(UB3LYP) =  -955.965316097     a.u. after    1 cycles
 Normal termination of Gaussian 16 at Sun Dec 13 21:36:40 2020.
 Gaussian 16:  ES64L-G16RevA.03 25-Dec-2016

 ----------------------------------------------------------------------
 # B3LYP/6-311++G(d,p) empiricaldispersion=gd3bj scf=xqc pop=npa geom=c
 heck
 ----------------------------------------------------------------------

 -------------------------------------
 CID_103457659_JID_10611_Energie_anion
 -------------------------------------
 Structure from the checkpoint file:  "JID_10611.chk"
 Charge = -1 Multiplicity = 2

                         Standard orientation:
 ---------------------------------------------------------------------
 Center     Atomic      Atomic             Coordinates (Angstroms)
 Number     Number       Type             X           Y           Z
 ---------------------------------------------------------------------
      1          6           0       -5.439720   -0.864551    0.824368
      2          8           0       -4.285450   -1.684143    0.594902
      3          6           0       -3.152641   -1.062252    0.246227
      4          6           0       -2.012707   -1.856075    0.012575
      5          7           0       -0.873746   -1.280848   -0.332524
      6          6           0       -0.795639    0.057731   -0.462749
      7          6           0       -1.966182    0.828978   -0.223734
      8          7           0       -3.123785    0.258910    0.127566
      9          8           0       -1.921190    2.153025   -0.346389
     10          6           0       -3.125738    2.886126   -0.090505
     11          6           0        0.532490    0.645343   -0.815912
     12          8           0        0.688960    1.850119   -0.939541
     13          6           0        1.731951   -0.303475   -0.967067
     14          6           0        2.282287   -0.749433    0.413777
     15          6           0        3.597324   -1.533362    0.233336
     16          6           0        4.775945   -0.629118   -0.156590
     17          6           0        4.951808    0.532174    0.831791
     18          6           0        3.652269    1.331819    0.999198
     19          6           0        2.489494    0.414702    1.402968
     20          8           0        1.458255   -1.412229   -1.811947
     21          1           0       -6.235497   -1.560549    1.089468
     22          1           0       -5.702323   -0.305459   -0.077933
     23          1           0       -5.257466   -0.159730    1.640291
     24          1           0       -2.052282   -2.936138    0.108079
     25          1           0       -3.918352    2.585627   -0.781361
     26          1           0       -3.467566    2.727299    0.936063
     27          1           0       -2.854745    3.929858   -0.247816
     28          1           0        2.481946    0.291660   -1.492242
     29          1           0        1.530109   -1.429140    0.835807
     30          1           0        3.831906   -2.034367    1.183320
     31          1           0        3.451258   -2.315531   -0.518312
     32          1           0        4.616198   -0.225991   -1.165632
     33          1           0        5.695434   -1.225394   -0.209571
     34          1           0        5.766186    1.190750    0.504545
     35          1           0        5.249570    0.127088    1.810678
     36          1           0        3.402222    1.846502    0.062990
     37          1           0        3.784761    2.114707    1.756373
     38          1           0        1.570061    1.000323    1.516189
     39          1           0        2.704897   -0.018719    2.389977
     40          1           0        0.736152   -1.895051   -1.368504
 ---------------------------------------------------------------------

 SCF Done:  E(UB3LYP) =  -956.286512380     A.U. after   24 cycles

 The electronic state is 2-A.
 Alpha  occ. eigenvalues --  -19.03153 -19.03020 -18.97095 -18.92359 -14.16505
 Alpha  occ. eigenvalues --  -14.14745 -10.13210 -10.11668 -10.11072 -10.10770
 Alpha  occ. eigenvalues --  -10.07453 -10.07130 -10.06271 -10.05938 -10.05127
 Alpha  occ. eigenvalues --  -10.05094 -10.04872 -10.04546 -10.04506 -10.04068
 Alpha  occ. eigenvalues --   -0.96205  -0.95496  -0.88163  -0.86161  -0.81863
 Alpha  occ. eigenvalues --   -0.75292  -0.72057  -0.64667  -0.63998  -0.62955
 Alpha  occ. eigenvalues --   -0.61552  -0.57978  -0.55066  -0.50773  -0.49757
 Alpha  occ. eigenvalues --   -0.49617  -0.48792  -0.43590  -0.42483  -0.41893
 Alpha  occ. eigenvalues --   -0.40873  -0.37276  -0.36665  -0.36561  -0.35417
 Alpha  occ. eigenvalues --   -0.35350  -0.34017  -0.33060  -0.32876  -0.32022
 Alpha  occ. eigenvalues --   -0.31268  -0.30086  -0.29164  -0.29024  -0.26870
 Alpha  occ. eigenvalues --   -0.26763  -0.26268  -0.25107  -0.24870  -0.24389
 Alpha  occ. eigenvalues --   -0.24045  -0.23300  -0.22498  -0.22053  -0.21909
 Alpha  occ. eigenvalues --   -0.20424  -0.19222  -0.18639  -0.18184  -0.16512
 Alpha  occ. eigenvalues --   -0.16246  -0.14618  -0.11798  -0.08924  -0.07186
 Alpha  occ. eigenvalues --    0.03832
 Alpha virt. eigenvalues --    0.07225   0.07399   0.08750   0.09211   0.09336
 Alpha virt. eigenvalues --    0.10387   0.10900   0.11294   0.11384   0.11466
 Alpha virt. eigenvalues --    0.12131   0.12251   0.12935   0.13267   0.13685

  Beta  occ. eigenvalues --  -19.03173 -19.02887 -18.97087 -18.91876 -14.16313
  Beta  occ. eigenvalues --  -14.14002 -10.13261 -10.11674 -10.11071 -10.10397
  Beta  occ. eigenvalues --  -10.07471 -10.06930 -10.06270 -10.05938 -10.05193
  Beta  occ. eigenvalues --  -10.05125 -10.04869 -10.04544 -10.04495 -10.03934
  Beta  occ. eigenvalues --   -0.96127  -0.95274  -0.88023  -0.85433  -0.81264
  Beta  occ. eigenvalues --   -0.74401  -0.72047  -0.64404  -0.63958  -0.62951
  Beta  occ. eigenvalues --   -0.61443  -0.57690  -0.54966  -0.50406  -0.49732
  Beta  occ. eigenvalues --   -0.49171  -0.48745  -0.43312  -0.42402  -0.41736
  Beta  occ. eigenvalues --   -0.40657  -0.37247  -0.36478  -0.36218  -0.35301
  Beta  occ. eigenvalues --   -0.35247  -0.33999  -0.33006  -0.32782  -0.31922
  Beta  occ. eigenvalues --   -0.31072  -0.29920  -0.28972  -0.28216  -0.26837
  Beta  occ. eigenvalues --   -0.26719  -0.26102  -0.24867  -0.24696  -0.24092
  Beta  occ. eigenvalues --   -0.23536  -0.23118  -0.22334  -0.21970  -0.21012
  Beta  occ. eigenvalues --   -0.19084  -0.18948  -0.18428  -0.17377  -0.16145
  Beta  occ. eigenvalues --   -0.14972  -0.14402  -0.11141  -0.07584  -0.06762
  Beta virt. eigenvalues --    0.07210   0.07383   0.08732   0.09188   0.09318
  Beta virt. eigenvalues --    0.10366   0.10920   0.11106   0.11339   0.11488
  Beta virt. eigenvalues --    0.12069   0.12223   0.12305   0.12935   0.13258

 Mulliken charges and spin densities:
               1          2
     1  C   -0.300892  -0.005826
     2  O   -0.169397   0.019915
     3  C   -0.228069   0.242136
     4  C    0.098239  -0.054847
     5  N   -0.041043   0.333817
     6  C   -0.340908   0.131373
     7  C    0.040694  -0.056898
     8  N   -0.218757   0.074647
     9  O   -0.079216  -0.001767
    10  C   -0.295165   0.001228
    11  C   -0.464116   0.133213
    12  O   -0.334939   0.166950
    13  C   -0.351548  -0.016777
    14  C    0.710545   0.015123
    15  C   -0.399913   0.001354
    16  C   -0.227229  -0.000782
    17  C   -0.499057  -0.003289
    18  C   -0.318838   0.001446
    19  C   -0.582580  -0.003203
    20  O   -0.162426   0.009529
    21  H    0.126526  -0.000397
    22  H    0.150473   0.005436
    23  H    0.150654   0.004992
    24  H    0.145760   0.001107
    25  H    0.153358  -0.000373
    26  H    0.154107  -0.000282
    27  H    0.137546  -0.000013
    28  H    0.218932  -0.001509
    29  H    0.237401   0.000905
    30  H    0.117967   0.003527
    31  H    0.148649   0.001721
    32  H    0.137367  -0.000211
    33  H    0.140444  -0.000315
    34  H    0.138403  -0.000293
    35  H    0.103366   0.001431
    36  H    0.189243  -0.000776
    37  H    0.120979   0.002056
    38  H    0.218760  -0.002152
    39  H    0.122758  -0.000499
    40  H    0.251923  -0.001694
 Sum of Mulliken charges =  -1.00000   1.00000

 Dipole moment (field-independent basis, Debye):
    X=             -0.6545    Y=              0.3474    Z=              3.5512  Tot=              3.6277
 Quadrupole moment (field-independent basis, Debye-Ang):
   XX=           -147.8226   YY=           -140.0954   ZZ=           -134.3058
   XY=             -7.8851   XZ=              3.0971   YZ=              0.9099

 Summary of Natural Population Analysis:

                                       Natural Population
                Natural  -----------------------------------------------
    Atom  No    Charge         Core      Valence    Rydberg      Total
 -----------------------------------------------------------------------
      C    1   -0.10288      0.99961     2.09498    0.00829     3.10288
      O    2   -0.26525      0.99985     3.25610    0.00930     4.26525
      C    3    0.31646      0.99950     1.66973    0.01432     2.68354
      C    4   -0.04927      0.99958     2.03662    0.01307     3.04927
      N    5   -0.12831      0.99966     2.61532    0.01333     3.62831
      C    6    0.01850      0.99948     1.96609    0.01594     2.98150
      C    7    0.27108      0.99947     1.71294    0.01652     2.72892
      N    8   -0.28253      0.99962     2.77310    0.00981     3.78253
      O    9   -0.25784      0.99984     3.24874    0.00926     4.25784
      C   10   -0.10307      0.99960     2.09528    0.00819     3.10307
      C   11    0.27766      0.99962     1.69917    0.02356     2.72234
      O   12   -0.25003      0.99988     3.24393    0.00622     4.25003
      C   13    0.02892      0.99949     1.95426    0.01734     2.97108
      C   14   -0.11905      0.99958     2.11002    0.00945     3.11905
      C   15   -0.19037      0.99962     2.18236    0.00839     3.19037
      C   16   -0.19149      0.99964     2.18465    0.00721     3.19149
      C   17   -0.18833      0.99964     2.18184    0.00685     3.18833
      C   18   -0.19437      0.99963     2.18703    0.00771     3.19437
      C   19   -0.19040      0.99962     2.18291    0.00787     3.19040
      O   20   -0.38730      0.99990     3.38015    0.00726     4.38730
      H   21    0.08187      0.00000     0.41732    0.00080     0.41813
      H   22    0.08630      0.00000     0.41246    0.00124     0.41370
      H   23    0.08610      0.00000     0.41266    0.00125     0.41390
      H   24    0.08550      0.00000     0.41317    0.00133     0.41450
      H   25    0.08581      0.00000     0.41298    0.00121     0.41419
      H   26    0.08560      0.00000     0.41319    0.00121     0.41440
      H   27    0.08538      0.00000     0.41382    0.00079     0.41462
      H   28    0.08740      0.00000     0.41049    0.00210     0.41260
      H   29    0.10727      0.00000     0.39118    0.00155     0.39273
      H   30    0.08768      0.00000     0.41107    0.00125     0.41232
      H   31    0.10673      0.00000     0.39199    0.00128     0.39327
      H   32    0.09554      0.00000     0.40323    0.00122     0.40446
      H   33    0.09069      0.00000     0.40810    0.00121     0.40931
      H   34    0.09153      0.00000     0.40731    0.00116     0.40847
      H   35    0.08593      0.00000     0.41262    0.00144     0.41407
      H   36    0.10493      0.00000     0.39351    0.00156     0.39507
      H   37    0.09113      0.00000     0.40768    0.00119     0.40887
      H   38    0.11132      0.00000     0.38770    0.00098     0.38868
      H   39    0.08714      0.00000     0.41161    0.00125     0.41286
      H   40    0.24401      0.00000     0.25308    0.00290     0.25599
 =======================================================================
   * Total *    0.00000     19.99280    54.76038    0.24682    75.00000

 Normal termination of Gaussian 16 at Sun Dec 13 22:01:02 2020.
