 Gaussian 16, Revision A.03,

 -----------------------------------------------------------
 # opt freq B3LYP/6-31G(d) empiricaldispersion=gd3bj scf=xqc
 -----------------------------------------------------------

 -----------------------------
 CID_91315765_JID_584_neutraal
 -----------------------------
 Symbolic Z-matrix:
 Charge =  0 Multiplicity = 1

 SCF Done:  E(RB3LYP) =  -425.398168134     A.U. after   15 cycles
 SCF Done:  E(RB3LYP) =  -425.400784327     A.U. after   12 cycles
 SCF Done:  E(RB3LYP) =  -425.400675148     A.U. after   12 cycles
 SCF Done:  E(RB3LYP) =  -425.401148252     A.U. after   12 cycles
 SCF Done:  E(RB3LYP) =  -425.401258243     A.U. after   11 cycles
 SCF Done:  E(RB3LYP) =  -425.401317133     A.U. after   11 cycles
 SCF Done:  E(RB3LYP) =  -425.401323479     A.U. after   10 cycles
 SCF Done:  E(RB3LYP) =  -425.401324498     A.U. after    9 cycles
 Optimization completed.
    -- Stationary point found.

 1\1\GINC-NODE359\FOpt\RB3LYP\6-31G(d)\C9H12O1\VSC10255\08-Dec-2020\0\\
 # opt freq B3LYP/6-31G(d) empiricaldispersion=gd3bj scf=xqc\\CID_91315
 765_JID_584_neutraal\\0,1\C,1.0344161545,0.1188478818,0.0633550945\C,0
 .425380356,-1.0953677627,-0.643683225\C,1.3846004392,-2.2799820913,-0.
 7612240051\C,1.7624937315,-2.9934313011,0.5851589802\C,1.4330534951,-4
 .3249925613,-0.1008047895\O,1.6516578232,-5.4788168198,0.1675721013\C,
 0.824154667,-3.6354693392,-1.3327422108\C,1.5287288627,-3.9331759895,-
 2.6695902342\C,2.6535124926,-2.9206237057,-2.6710568469\C,2.5760260629

 Normal termination of Gaussian 16 at Tue Dec  8 12:11:04 2020.

 --------------------------------------------------------------------
 #N Geom=AllCheck Guess=TCheck SCRF=Check GenChk RB3LYP/6-31G(d) Freq
 --------------------------------------------------------------------

 Structure from the checkpoint file:  "JID_584.chk"
 -----------------------------
 CID_91315765_JID_584_neutraal
 -----------------------------
 Charge =  0 Multiplicity = 1

 SCF Done:  E(RB3LYP) =  -425.401324498     A.U. after    1 cycles

  Exact polarizability: 100.455  -7.389  89.014  -4.508   0.898  74.681
 Approx polarizability: 145.407 -10.708 129.235  -8.031   3.682 112.804

                      1                      2                      3
                      A                      A                      A
 Frequencies --     68.4668                98.2002               169.9286
 Red. masses --      4.4453                 2.2979                 2.2895
 Frc consts  --      0.0123                 0.0131                 0.0390
 IR Inten    --      3.6408                 0.2645                 0.2649

                      4                      5                      6
                      A                      A                      A
 Frequencies --    195.6896               228.3312               263.8492
 Red. masses --      3.0163                 1.5093                 1.9391
 Frc consts  --      0.0681                 0.0464                 0.0795
 IR Inten    --      1.0433                 0.7916                 0.5712

                      7                      8                      9
                      A                      A                      A
 Frequencies --    337.8962               351.5590               420.8793
 Red. masses --      2.1057                 3.5400                 2.6386
 Frc consts  --      0.1416                 0.2578                 0.2754
 IR Inten    --      0.7330                 0.4296                 1.1086

                     10                     11                     12
                      A                      A                      A
 Frequencies --    467.1506               567.6547               612.5089
 Red. masses --      2.5224                 2.6382                 3.6513
 Frc consts  --      0.3243                 0.5009                 0.8071
 IR Inten    --      3.0469                 0.7010                 0.5172

                     13                     14                     15
                      A                      A                      A
 Frequencies --    626.7933               745.7375               754.1988
 Red. masses --      3.1067                 1.6206                 3.9560
 Frc consts  --      0.7191                 0.5310                 1.3258
 IR Inten    --      1.2574                25.4668                 0.5230

                     16                     17                     18
                      A                      A                      A
 Frequencies --    773.9458               800.4767               825.2190
 Red. masses --      2.1770                 1.2328                 2.3026
 Frc consts  --      0.7683                 0.4654                 0.9239
 IR Inten    --      8.1311                 6.4666                 0.2172

                     19                     20                     21
                      A                      A                      A
 Frequencies --    883.9556               932.1315               964.6172
 Red. masses --      2.7059                 2.2249                 1.7724
 Frc consts  --      1.2457                 1.1390                 0.9717
 IR Inten    --      3.1103                11.5822                 2.4648

                     22                     23                     24
                      A                      A                      A
 Frequencies --    971.5052               978.7650               994.6260
 Red. masses --      2.0483                 1.5035                 2.0614
 Frc consts  --      1.1390                 0.8486                 1.2015
 IR Inten    --      0.5319                 2.3136                 3.1378

                     25                     26                     27
                      A                      A                      A
 Frequencies --   1026.3580              1037.5239              1087.1524
 Red. masses --      2.0589                 1.7528                 1.7395
 Frc consts  --      1.2779                 1.1117                 1.2113
 IR Inten    --      4.7959                 2.7470                16.5064

                     28                     29                     30
                      A                      A                      A
 Frequencies --   1102.0508              1108.0529              1152.0545
 Red. masses --      1.8665                 1.6399                 1.6210
 Frc consts  --      1.3356                 1.1863                 1.2676
 IR Inten    --     15.6515                 2.3976                 9.2211

                     31                     32                     33
                      A                      A                      A
 Frequencies --   1168.6718              1187.6820              1212.3265
 Red. masses --      1.5111                 1.6204                 1.6544
 Frc consts  --      1.2160                 1.3467                 1.4326
 IR Inten    --      3.8700                14.3211                 4.9357

                     34                     35                     36
                      A                      A                      A
 Frequencies --   1243.4440              1276.5917              1280.4938
 Red. masses --      1.9505                 1.8387                 1.8834
 Frc consts  --      1.7768                 1.7655                 1.8195
 IR Inten    --      3.5389                 8.2101                 9.2645

                     37                     38                     39
                      A                      A                      A
 Frequencies --   1323.9291              1343.3971              1382.8339
 Red. masses --      1.2720                 1.5583                 1.5678
 Frc consts  --      1.3136                 1.6570                 1.7664
 IR Inten    --      3.1625                 1.1869                 3.7801

                     40                     41                     42
                      A                      A                      A
 Frequencies --   1400.0494              1442.3254              1466.2997
 Red. masses --      1.7850                 1.2427                 1.1107
 Frc consts  --      2.0615                 1.5232                 1.4070
 IR Inten    --      7.6980                 5.3798                 5.6670

                     43                     44                     45
                      A                      A                      A
 Frequencies --   1515.9725              1517.2502              1531.1496
 Red. masses --      1.0756                 1.0848                 1.0429
 Frc consts  --      1.4564                 1.4713                 1.4406
 IR Inten    --      0.8870                 2.5353                 5.2447

                     46                     47                     48
                      A                      A                      A
 Frequencies --   1537.4934              1694.0349              1887.2263
 Red. masses --      1.0632                 6.3710                12.6986
 Frc consts  --      1.4808                10.7722                26.6473
 IR Inten    --      3.2730                 2.4402               267.2712

                     49                     50                     51
                      A                      A                      A
 Frequencies --   3028.1696              3037.8547              3049.4901
 Red. masses --      1.0616                 1.0640                 1.0364
 Frc consts  --      5.7354                 5.7855                 5.6787
 IR Inten    --     26.2127                41.3716                22.2136

                     52                     53                     54
                      A                      A                      A
 Frequencies --   3054.0259              3065.1773              3074.7437
 Red. masses --      1.0625                 1.1010                 1.0985
 Frc consts  --      5.8390                 6.0946                 6.1189
 IR Inten    --     12.3227                19.2880                13.9036

                     55                     56                     57
                      A                      A                      A
 Frequencies --   3090.2101              3114.9210              3119.9943
 Red. masses --      1.0860                 1.1020                 1.1023
 Frc consts  --      6.1103                 6.2997                 6.3220
 IR Inten    --     16.6837                42.3807                29.9015

                     58                     59                     60
                      A                      A                      A
 Frequencies --   3121.6113              3190.7986              3214.1399
 Red. masses --      1.1013                 1.0848                 1.1022
 Frc consts  --      6.3230                 6.5071                 6.7086
 IR Inten    --     17.7210                 7.3659                25.5525

 - Thermochemistry -
 -------------------
 Temperature   298.150 Kelvin.  Pressure   1.00000 Atm.
 Atom     1 has atomic number  6 and mass  12.00000

 Molecular mass:   136.08882 amu.
 Principal axes and moments of inertia in atomic units:
                           1         2         3
     Eigenvalues --   885.108341521.512731990.81068
           X            0.99752  -0.06996  -0.00726
           Y            0.07000   0.99754   0.00465
           Z            0.00692  -0.00514   0.99996
 This molecule is an asymmetric top.
 Rotational symmetry number  1.
 Warning -- assumption of classical behavior for rotation
           may cause significant error
 Rotational temperatures (Kelvin)      0.09786     0.05693     0.04351
 Rotational constants (GHZ):           2.03901     1.18615     0.90654
 Zero-point vibrational energy     497165.5 (Joules/Mol)
                                  118.82541 (Kcal/Mol)
 Warning -- explicit consideration of  12 degrees of freedom as
           vibrations may cause significant error
 Vibrational temperatures:     98.51   141.29   244.49   281.55   328.52
          (Kelvin)            379.62   486.16   505.81   605.55   672.13
                              816.73   881.26   901.82  1072.95  1085.12
                             1113.54  1151.71  1187.31  1271.81  1341.13
                             1387.87  1397.78  1408.22  1431.04  1476.70
                             1492.77  1564.17  1585.61  1594.24  1657.55
                             1681.46  1708.81  1744.27  1789.04  1836.73
                             1842.35  1904.84  1932.85  1989.59  2014.36
                             2075.18  2109.68  2181.15  2182.98  2202.98
                             2212.11  2437.34  2715.30  4356.86  4370.80
                             4387.54  4394.06  4410.11  4423.87  4446.12
                             4481.68  4488.98  4491.30  4590.85  4624.43

 Zero-point correction=                           0.189360 (Hartree/Particle)
 Thermal correction to Energy=                    0.198651
 Thermal correction to Enthalpy=                  0.199595
 Thermal correction to Gibbs Free Energy=         0.155030
 Sum of electronic and zero-point Energies=           -425.211964
 Sum of electronic and thermal Energies=              -425.202674
 Sum of electronic and thermal Enthalpies=            -425.201730
 Sum of electronic and thermal Free Energies=         -425.246294

                     E (Thermal)             CV                S
                      KCal/Mol        Cal/Mol-Kelvin    Cal/Mol-Kelvin
 Total                  124.655             36.055             93.794
 Electronic               0.000              0.000              0.000
 Translational            0.889              2.981             40.637
 Rotational               0.889              2.981             29.373
 Vibrational            122.878             30.093             23.784
 Vibration     1          0.598              1.969              4.197
 Vibration     2          0.604              1.950              3.490
 Vibration     3          0.625              1.879              2.436
 Vibration     4          0.636              1.846              2.173
 Vibration     5          0.651              1.798              1.892
 Vibration     6          0.670              1.739              1.636
 Vibration     7          0.718              1.600              1.222
 Vibration     8          0.728              1.572              1.159
 Vibration     9          0.783              1.425              0.889
 Vibration    10          0.824              1.323              0.746
 Vibration    11          0.924              1.101              0.509
 Vibration    12          0.972              1.005              0.429

                           ! Non-Optimized Parameters !

 1\1\GINC-NODE359\Freq\RB3LYP\6-31G(d)\C9H12O1\VSC10255\08-Dec-2020\0\\
 #N Geom=AllCheck Guess=TCheck SCRF=Check GenChk RB3LYP/6-31G(d) Freq\\
 CID_91315765_JID_584_neutraal\\0,1\C,1.0344161545,0.1188478818,0.06335
 50945\C,0.425380356,-1.0953677627,-0.643683225\C,1.3846004392,-2.27998
 20913,-0.7612240051\C,1.7624937315,-2.9934313011,0.5851589802\C,1.4330
 534951,-4.3249925613,-0.1008047895\O,1.6516578232,-5.4788168198,0.1675
 721013\C,0.824154667,-3.6354693392,-1.3327422108\C,1.5287288627,-3.933
 1759895,-2.6695902342\C,2.6535124926,-2.9206237057,-2.6710568469\C,2.5

 Normal termination of Gaussian 16 at Tue Dec  8 12:16:00 2020.

 ----------------------------------------------------------------------
 # B3LYP/6-311++G(d,p) empiricaldispersion=gd3bj scf=xqc pop=npa geom=c
 heck
 ----------------------------------------------------------------------

 -------------------------------------
 CID_91315765_JID_584_Energie_neutraal
 -------------------------------------
 Structure from the checkpoint file:  "JID_584.chk"
 Charge =  0 Multiplicity = 1

 SCF Done:  E(RB3LYP) =  -425.519484980     A.U. after   14 cycles
 Normal termination of Gaussian 16 at Tue Dec  8 12:18:12 2020.

 ----------------------------------------------------------------------
 # B3LYP/6-311++G(d,p) empiricaldispersion=gd3bj scf=xqc pop=npa geom=c
 heck
 ----------------------------------------------------------------------

 -----------------------------------
 CID_91315765_JID_584_Energie_kation
 -----------------------------------
 Structure from the checkpoint file:  "JID_584.chk"
 Charge =  1 Multiplicity = 2

 SCF Done:  E(UB3LYP) =  -425.191797148     A.U. after   22 cycles
 Normal termination of Gaussian 16 at Tue Dec  8 12:23:20 2020.
 Gaussian 16:  ES64L-G16RevA.03 25-Dec-2016

 ----------------------------------
 CID_91315765_JID_584_Energie_anion
 ----------------------------------
 Structure from the checkpoint file:  "JID_584.chk"
 Charge = -1 Multiplicity = 2

                         Standard orientation:
 ---------------------------------------------------------------------
 Center     Atomic      Atomic             Coordinates (Angstroms)
 Number     Number       Type             X           Y           Z
 ---------------------------------------------------------------------
      1          6           0        3.060045   -0.375983   -0.075865
      2          6           0        1.837737   -0.128544    0.812889
      3          6           0        0.525108   -0.031446    0.035195
      4          6           0        0.025790   -1.359285   -0.637178
      5          6           0       -1.347344   -1.086128   -0.011061
      6          8           0       -2.450916   -1.534328   -0.190978
      7          6           0       -0.816503    0.069921    0.852437
      8          6           0       -1.455648    1.444155    0.578232
      9          6           0       -0.635434    1.951685   -0.587986
     10          6           0        0.411878    1.172094   -0.873609
     11          1           0        2.941445   -1.294189   -0.663386
     12          1           0        3.969810   -0.479419    0.525155
     13          1           0        3.218753    0.450195   -0.777627
     14          1           0        1.749475   -0.943144    1.545335
     15          1           0        1.977666    0.795790    1.388677
     16          1           0        0.049870   -1.427177   -1.729107
     17          1           0        0.492439   -2.259756   -0.216390
     18          1           0       -0.747211   -0.194922    1.912961
     19          1           0       -1.388292    2.117906    1.443292
     20          1           0       -2.521317    1.346135    0.335803
     21          1           0       -0.889735    2.864488   -1.119950
     22          1           0        1.120658    1.359914   -1.675256
 ---------------------------------------------------------------------

 SCF Done:  E(UB3LYP) =  -425.506615864     A.U. after   33 cycles
 SCF Done:  E(UB3LYP) =  -425.506615864     a.u. after    1 cycles

 The electronic state is 2-A.
 Alpha  occ. eigenvalues --  -18.99229 -10.12668 -10.07567 -10.06438 -10.06322
 Alpha  occ. eigenvalues --  -10.06014 -10.05978 -10.05959 -10.05519 -10.04930
 Alpha  occ. eigenvalues --   -0.92420  -0.76554  -0.67291  -0.65017  -0.60206
 Alpha  occ. eigenvalues --   -0.54794  -0.51461  -0.46920  -0.41657  -0.40234
 Alpha  occ. eigenvalues --   -0.38638  -0.34983  -0.33831  -0.33704  -0.31684
 Alpha  occ. eigenvalues --   -0.29455  -0.28422  -0.27163  -0.26962  -0.26098
 Alpha  occ. eigenvalues --   -0.25325  -0.23303  -0.21989  -0.21079  -0.19392
 Alpha  occ. eigenvalues --   -0.14212  -0.12573   0.04881
 Alpha virt. eigenvalues --    0.07315   0.07604   0.08870   0.09190   0.09949
 Alpha virt. eigenvalues --    0.10255   0.11058   0.11403   0.11751   0.12458
 Alpha virt. eigenvalues --    0.12995   0.13677   0.14650   0.15895   0.16898

  Beta  occ. eigenvalues --  -18.99082 -10.12491 -10.07568 -10.06429 -10.06286
  Beta  occ. eigenvalues --  -10.06024 -10.05985 -10.05939 -10.05485 -10.04894
  Beta  occ. eigenvalues --   -0.92121  -0.76464  -0.67233  -0.64891  -0.60142
  Beta  occ. eigenvalues --   -0.54729  -0.51357  -0.46785  -0.41581  -0.39981
  Beta  occ. eigenvalues --   -0.38577  -0.34844  -0.33714  -0.33574  -0.31538
  Beta  occ. eigenvalues --   -0.29313  -0.28317  -0.27049  -0.26775  -0.25972
  Beta  occ. eigenvalues --   -0.25228  -0.22943  -0.21802  -0.21031  -0.19344
  Beta  occ. eigenvalues --   -0.14166  -0.12452
  Beta virt. eigenvalues --    0.07412   0.08350   0.08521   0.09648   0.10120
  Beta virt. eigenvalues --    0.10627   0.10738   0.11213   0.11814   0.12124
  Beta virt. eigenvalues --    0.12808   0.13518   0.14080   0.15054   0.15987

 Mulliken charges and spin densities:
               1          2
     1  C    1.166813  -1.778944
     2  C   -0.156902  -0.235333
     3  C    0.752487   0.193710
     4  C   -0.092185  -0.347570
     5  C    0.260919  -0.462740
     6  O   -0.353053   0.062443
     7  C   -1.650304   2.139703
     8  C    2.037193  -2.886824
     9  C   -0.668488   0.592940
    10  C    0.197567  -0.729372
    11  H   -0.222460   0.367075
    12  H   -0.429332   0.568112
    13  H   -0.289012   0.422924
    14  H   -0.284578   0.434732
    15  H   -0.139035   0.295000
    16  H    0.174230   0.000302
    17  H   -0.225697   0.392315
    18  H   -0.357534   0.595756
    19  H   -0.477126   0.636803
    20  H    0.187374  -0.015982
    21  H   -0.436676   0.592570
    22  H    0.005799   0.162379
 Sum of Mulliken charges =  -1.00000   1.00000

 Dipole moment (field-independent basis, Debye):
    X=             -1.6157    Y=             -0.0722    Z=             -3.0442  Tot=              3.4472
 Quadrupole moment (field-independent basis, Debye-Ang):
   XX=           -116.0790   YY=           -100.9432   ZZ=            -89.3748
   XY=             -1.2115   XZ=             -1.8979   YZ=             -1.6965

 Summary of Natural Population Analysis:

                                       Natural Population
                Natural  -----------------------------------------------
    Atom  No    Charge         Core      Valence    Rydberg      Total
 -----------------------------------------------------------------------
      C    1   -0.28547      0.99967     2.28036    0.00545     3.28547
      C    2   -0.18420      0.99958     2.17501    0.00961     3.18420
      C    3   -0.04762      0.99955     2.03329    0.01477     3.04762
      C    4   -0.23842      0.99956     2.23044    0.00842     3.23842
      C    5    0.32665      0.99965     1.64958    0.02411     2.67335
      O    6   -0.27429      0.99986     3.26795    0.00648     4.27429
      C    7   -0.14569      0.99954     2.13438    0.01177     3.14569
      C    8   -0.20578      0.99962     2.19594    0.01022     3.20578
      C    9   -0.08491      0.99952     2.07590    0.00949     3.08491
      C   10   -0.09335      0.99947     2.08314    0.01074     3.09335
      H   11    0.09573      0.00000     0.40303    0.00124     0.40427
      H   12    0.10073      0.00000     0.39789    0.00137     0.39927
      H   13    0.09554      0.00000     0.40315    0.00131     0.40446
      H   14    0.09779      0.00000     0.40040    0.00181     0.40221
      H   15    0.10021      0.00000     0.39802    0.00176     0.39979
      H   16    0.10612      0.00000     0.39290    0.00098     0.39388
      H   17    0.11258      0.00000     0.38567    0.00175     0.38742
      H   18    0.11737      0.00000     0.38005    0.00258     0.38263
      H   19    0.10512      0.00000     0.39246    0.00242     0.39488
      H   20    0.10500      0.00000     0.39381    0.00119     0.39500
      H   21    0.09628      0.00000     0.40281    0.00090     0.40372
      H   22    0.10061      0.00000     0.39835    0.00104     0.39939
 =======================================================================
   * Total *   -0.00000      9.99602    26.87454    0.12945    37.00000

 Normal termination of Gaussian 16 at Tue Dec  8 12:29:35 2020.
