 Gaussian 16, Revision A.03,

 -----------------------------------------------------------
 # opt freq B3LYP/6-31G(d) empiricaldispersion=gd3bj scf=xqc
 -----------------------------------------------------------

 ------------------------------
 CID_65199198_JID_5297_neutraal
 ------------------------------
 Symbolic Z-matrix:
 Charge =  0 Multiplicity = 1

 SCF Done:  E(RB3LYP) =  -1042.60452443     A.U. after   15 cycles
 SCF Done:  E(RB3LYP) =  -1042.61271465     A.U. after   12 cycles
 SCF Done:  E(RB3LYP) =  -1042.61352491     A.U. after   11 cycles
 SCF Done:  E(RB3LYP) =  -1042.61366076     A.U. after   11 cycles
 SCF Done:  E(RB3LYP) =  -1042.61374818     A.U. after   11 cycles
 SCF Done:  E(RB3LYP) =  -1042.61384096     A.U. after   11 cycles
 SCF Done:  E(RB3LYP) =  -1042.61401378     A.U. after   12 cycles
 SCF Done:  E(RB3LYP) =  -1042.61431289     A.U. after   12 cycles
 SCF Done:  E(RB3LYP) =  -1042.61496981     A.U. after   12 cycles
 SCF Done:  E(RB3LYP) =  -1042.61481851     A.U. after   15 cycles
 SCF Done:  E(RB3LYP) =  -1042.61517214     A.U. after   11 cycles
 SCF Done:  E(RB3LYP) =  -1042.61515907     A.U. after   12 cycles
 SCF Done:  E(RB3LYP) =  -1042.61519286     A.U. after   11 cycles
 SCF Done:  E(RB3LYP) =  -1042.61519318     A.U. after    8 cycles
 SCF Done:  E(RB3LYP) =  -1042.61519255     A.U. after    9 cycles
 SCF Done:  E(RB3LYP) =  -1042.61519329     A.U. after    9 cycles
 Optimization completed.
    -- Stationary point found.
 Normal termination of Gaussian 16 at Thu Dec 10 15:26:41 2020.

 --------------------------------------------------------------------
 #N Geom=AllCheck Guess=TCheck SCRF=Check GenChk RB3LYP/6-31G(d) Freq
 --------------------------------------------------------------------

 Structure from the checkpoint file:  "JID_5297.chk"
 ------------------------------
 CID_65199198_JID_5297_neutraal
 ------------------------------
 Charge =  0 Multiplicity = 1

 SCF Done:  E(RB3LYP) =  -1042.61519329     A.U. after    1 cycles

  Exact polarizability: 217.482   4.404 129.110   4.337  -2.189  79.795
 Approx polarizability: 285.199  20.521 237.938   8.947  -7.398 121.891

                      1                      2                      3
                      A                      A                      A
 Frequencies --     20.9867                36.6546                64.8173
 Red. masses --      3.5647                 5.5522                 4.5825
 Frc consts  --      0.0009                 0.0044                 0.0113
 IR Inten    --      0.8483                 0.9743                 0.4882

                      4                      5                      6
                      A                      A                      A
 Frequencies --     68.6370                82.2324                97.7082
 Red. masses --      1.1198                 4.7354                 4.2377
 Frc consts  --      0.0031                 0.0189                 0.0238
 IR Inten    --      0.3581                 0.6474                 1.1533

                      7                      8                      9
                      A                      A                      A
 Frequencies --    146.1297               218.5851               243.1251
 Red. masses --      4.0893                 3.9105                 3.0007
 Frc consts  --      0.0514                 0.1101                 0.1045
 IR Inten    --      0.6122                 0.3118                 7.7360

                     10                     11                     12
                      A                      A                      A
 Frequencies --    250.0423               261.3734               271.4028
 Red. masses --      1.8267                 1.6686                 1.5590
 Frc consts  --      0.0673                 0.0672                 0.0677
 IR Inten    --      5.9200                 2.7817                17.2267

                     13                     14                     15
                      A                      A                      A
 Frequencies --    294.2054               344.7451               349.3268
 Red. masses --      2.8112                 2.9041                 5.8322
 Frc consts  --      0.1434                 0.2034                 0.4193
 IR Inten    --     17.7737                 5.8694                 2.2655

                     16                     17                     18
                      A                      A                      A
 Frequencies --    398.5422               430.7033               453.3472
 Red. masses --      3.5091                 3.7233                 2.3091
 Frc consts  --      0.3284                 0.4069                 0.2796
 IR Inten    --     14.5317                 3.6580                 2.9350

                     19                     20                     21
                      A                      A                      A
 Frequencies --    512.6972               521.2358               589.4859
 Red. masses --      6.0416                 4.8463                 7.5065
 Frc consts  --      0.9357                 0.7758                 1.5369
 IR Inten    --      1.0130                 0.0178                 0.0893

                     22                     23                     24
                      A                      A                      A
 Frequencies --    637.3282               649.4293               684.7841
 Red. masses --      5.0062                 8.7060                 5.2482
 Frc consts  --      1.1981                 2.1634                 1.4500
 IR Inten    --     14.0177                 0.9252                 3.5743

                     25                     26                     27
                      A                      A                      A
 Frequencies --    749.3777               767.5398               795.7288
 Red. masses --      2.4235                 4.1983                 2.1123
 Frc consts  --      0.8019                 1.4572                 0.7880
 IR Inten    --     25.9886                14.6853                 9.5286

                     28                     29                     30
                      A                      A                      A
 Frequencies --    845.0581               856.9563               908.1245
 Red. masses --      2.9183                 5.2771                 1.5463
 Frc consts  --      1.2279                 2.2833                 0.7513
 IR Inten    --      2.9483                48.6985                30.1084

                     31                     32                     33
                      A                      A                      A
 Frequencies --    913.4595               925.4879               931.5974
 Red. masses --      6.4969                 1.6188                 5.3461
 Frc consts  --      3.1940                 0.8169                 2.7337
 IR Inten    --      4.5005               134.9086                 8.8887

                     34                     35                     36
                      A                      A                      A
 Frequencies --    977.8399              1004.7519              1026.3676
 Red. masses --      1.6952                 2.3755                 5.8714
 Frc consts  --      0.9550                 1.4130                 3.6442
 IR Inten    --      1.5377                12.5132                 3.2085

                     37                     38                     39
                      A                      A                      A
 Frequencies --   1048.3311              1057.9794              1066.0115
 Red. masses --      1.7433                 3.7884                 1.4165
 Frc consts  --      1.1288                 2.4984                 0.9484
 IR Inten    --      2.4700                 2.5839                 0.7729

                     40                     41                     42
                      A                      A                      A
 Frequencies --   1119.0526              1136.4733              1190.2755
 Red. masses --      2.3600                 1.9774                 1.5621
 Frc consts  --      1.7413                 1.5047                 1.3040
 IR Inten    --     28.6732                30.9342                15.9440

                     43                     44                     45
                      A                      A                      A
 Frequencies --   1193.4954              1198.2543              1249.7603
 Red. masses --      2.3051                 2.1465                 3.2177
 Frc consts  --      1.9345                 1.8158                 2.9611
 IR Inten    --     22.9608                57.7577                26.3561

                     46                     47                     48
                      A                      A                      A
 Frequencies --   1275.2941              1309.7420              1381.7943
 Red. masses --      1.3433                 2.2291                 1.7742
 Frc consts  --      1.2872                 2.2530                 1.9959
 IR Inten    --      4.2165                78.1379                21.1512

                     49                     50                     51
                      A                      A                      A
 Frequencies --   1392.6977              1420.3251              1432.9924
 Red. masses --      2.5243                 1.8127                 1.2981
 Frc consts  --      2.8847                 2.1546                 1.5705
 IR Inten    --      4.0298                20.3169                21.5184

                     52                     53                     54
                      A                      A                      A
 Frequencies --   1435.4194              1448.1518              1493.9310
 Red. masses --      1.2745                 2.0122                 6.5692
 Frc consts  --      1.5472                 2.4863                 8.6382
 IR Inten    --      3.6161                58.3737                 3.4553

                     55                     56                     57
                      A                      A                      A
 Frequencies --   1498.7742              1504.9118              1507.1150
 Red. masses --      1.1633                 1.1383                 1.0427
 Frc consts  --      1.5396                 1.5189                 1.3955
 IR Inten    --     17.2473                15.4806                10.3545

                     58                     59                     60
                      A                      A                      A
 Frequencies --   1522.3010              1536.2573              1569.3967
 Red. masses --      1.0822                 1.0559                 6.1968
 Frc consts  --      1.4776                 1.4683                 8.9926
 IR Inten    --      5.5202                 7.8003                24.9813

                     61                     62                     63
                      A                      A                      A
 Frequencies --   1594.3400              1651.8801              1698.5477
 Red. masses --      6.6616                10.8182                 1.0907
 Frc consts  --      9.9769                17.3925                 1.8540
 IR Inten    --     16.8847               155.8947                25.3172

                     64                     65                     66
                      A                      A                      A
 Frequencies --   3036.6007              3049.0422              3060.3645
 Red. masses --      1.0398                 1.0643                 1.0371
 Frc consts  --      5.6493                 5.8297                 5.7229
 IR Inten    --     23.1461                 5.4010                13.1519

                     67                     68                     69
                      A                      A                      A
 Frequencies --   3066.3997              3089.4240              3103.4531
 Red. masses --      1.0817                 1.0999                 1.1002
 Frc consts  --      5.9923                 6.1853                 6.2434
 IR Inten    --     10.4139                12.6805                44.8921

                     70                     71                     72
                      A                      A                      A
 Frequencies --   3117.0237              3132.5959              3164.5386
 Red. masses --      1.1017                 1.0997                 1.1011
 Frc consts  --      6.3067                 6.3582                 6.4968
 IR Inten    --      8.4408                29.8515                 2.3296

                     73                     74                     75
                      A                      A                      A
 Frequencies --   3289.5646              3441.2311              3529.0966
 Red. masses --      1.0948                 1.0505                 1.0905
 Frc consts  --      6.9802                 7.3296                 8.0023
 IR Inten    --      5.6430                 3.6134                 1.1748

 - Thermochemistry -
 -------------------
 Temperature   298.150 Kelvin.  Pressure   1.00000 Atm.
 Atom     1 has atomic number  6 and mass  12.00000

 Molecular mass:   224.07318 amu.
 Principal axes and moments of inertia in atomic units:
                           1         2         3
     Eigenvalues --   978.681279103.054809762.35340
           X            0.99996  -0.00744  -0.00460
           Y            0.00745   0.99996   0.00392
           Z            0.00457  -0.00395   0.99998
 This molecule is an asymmetric top.
 Rotational symmetry number  1.
 Warning -- assumption of classical behavior for rotation
           may cause significant error
 Rotational temperatures (Kelvin)      0.08850     0.00951     0.00887
 Rotational constants (GHZ):           1.84405     0.19826     0.18487
 Zero-point vibrational energy     558313.1 (Joules/Mol)
                                  133.44002 (Kcal/Mol)
 Warning -- explicit consideration of  21 degrees of freedom as
           vibrations may cause significant error
 Vibrational temperatures:     30.20    52.74    93.26    98.75   118.31
          (Kelvin)            140.58   210.25   314.50   349.80   359.76
                              376.06   390.49   423.30   496.01   502.60
                              573.41   619.69   652.27   737.66   749.94
                              848.14   916.97   934.38   985.25  1078.19
                             1104.32  1144.88  1215.85  1232.97  1306.59
                             1314.26  1331.57  1340.36  1406.89  1445.61
                             1476.71  1508.31  1522.20  1533.75  1610.07
                             1635.13  1712.54  1717.17  1724.02  1798.13
                             1834.86  1884.43  1988.09  2003.78  2043.53
                             2061.76  2065.25  2083.57  2149.43  2156.40
                             2165.23  2168.40  2190.25  2210.33  2258.01
                             2293.90  2376.69  2443.83  4368.99  4386.89
                             4403.18  4411.87  4444.99  4465.18  4484.70
                             4507.11  4553.07  4732.95  4951.16  5077.58

 Zero-point correction=                           0.212650 (Hartree/Particle)
 Thermal correction to Energy=                    0.227443
 Thermal correction to Enthalpy=                  0.228387
 Thermal correction to Gibbs Free Energy=         0.168526
 Sum of electronic and zero-point Energies=          -1042.402543
 Sum of electronic and thermal Energies=             -1042.387750
 Sum of electronic and thermal Enthalpies=           -1042.386806
 Sum of electronic and thermal Free Energies=        -1042.446667

                     E (Thermal)             CV                S
                      KCal/Mol        Cal/Mol-Kelvin    Cal/Mol-Kelvin
 Total                  142.723             53.866            125.988
 Electronic               0.000              0.000              0.000
 Translational            0.889              2.981             42.123
 Rotational               0.889              2.981             32.831
 Vibrational            140.945             47.905             51.035
 Vibration     1          0.593              1.986              6.539
 Vibration     2          0.594              1.982              5.432
 Vibration     3          0.597              1.971              4.305
 Vibration     4          0.598              1.969              4.192
 Vibration     5          0.600              1.961              3.837
 Vibration     6          0.603              1.951              3.500
 Vibration     7          0.617              1.907              2.722
 Vibration     8          0.646              1.813              1.971
 Vibration     9          0.659              1.774              1.780
 Vibration    10          0.663              1.763              1.730
 Vibration    11          0.669              1.743              1.653
 Vibration    12          0.675              1.726              1.587
 Vibration    13          0.689              1.685              1.450
 Vibration    14          0.723              1.586              1.190
 Vibration    15          0.727              1.577              1.169
 Vibration    16          0.765              1.473              0.968
 Vibration    17          0.792              1.403              0.856
 Vibration    18          0.812              1.353              0.786
 Vibration    19          0.868              1.222              0.627
 Vibration    20          0.876              1.203              0.607
 Vibration    21          0.947              1.054              0.468

                           ! Non-Optimized Parameters !
 Normal termination of Gaussian 16 at Thu Dec 10 15:33:12 2020.

 ----------------------------------------------------------------------
 # B3LYP/6-311++G(d,p) empiricaldispersion=gd3bj scf=xqc pop=npa geom=c
 heck
 ----------------------------------------------------------------------

 --------------------------------------
 CID_65199198_JID_5297_Energie_neutraal
 --------------------------------------
 Structure from the checkpoint file:  "JID_5297.chk"
 Charge =  0 Multiplicity = 1

 SCF Done:  E(RB3LYP) =  -1042.82026335     A.U. after   16 cycles
 Normal termination of Gaussian 16 at Thu Dec 10 15:36:50 2020.

 ----------------------------------------------------------------------
 # B3LYP/6-311++G(d,p) empiricaldispersion=gd3bj scf=xqc pop=npa geom=c
 heck
 ----------------------------------------------------------------------

 ------------------------------------
 CID_65199198_JID_5297_Energie_kation
 ------------------------------------
 Structure from the checkpoint file:  "JID_5297.chk"
 Charge =  1 Multiplicity = 2

 SCF Done:  E(UB3LYP) =  -1042.51115563     A.U. after   29 cycles
 Normal termination of Gaussian 16 at Thu Dec 10 15:46:58 2020.
 Gaussian 16:  ES64L-G16RevA.03 25-Dec-2016

 ----------------------------------------------------------------------
 # B3LYP/6-311++G(d,p) empiricaldispersion=gd3bj scf=xqc pop=npa geom=c
 heck
 ----------------------------------------------------------------------

 -----------------------------------
 CID_65199198_JID_5297_Energie_anion
 -----------------------------------
 Structure from the checkpoint file:  "JID_5297.chk"
 Charge = -1 Multiplicity = 2

                         Standard orientation:
 ---------------------------------------------------------------------
 Center     Atomic      Atomic             Coordinates (Angstroms)
 Number     Number       Type             X           Y           Z
 ---------------------------------------------------------------------
      1          6           0       -4.648497    1.917351   -0.258935
      2          6           0       -3.647546    0.814522   -0.122202
      3          7           0       -2.363921    0.988872   -0.055157
      4          6           0       -1.697248   -0.214784    0.069130
      5          6           0       -2.488561   -1.335234    0.097547
      6         16           0       -4.148822   -0.885265   -0.035670
      7          6           0       -0.246764   -0.234051    0.160170
      8          7           0        0.593677    0.762961    0.145851
      9          6           0        1.813661    0.126061    0.263514
     10          7           0        1.740425   -1.181765    0.343375
     11          8           0        0.355324   -1.436655    0.274397
     12          6           0        3.102058    0.882230    0.328253
     13          6           0        4.369398    0.045928    0.099424
     14          6           0        4.445932   -0.510538   -1.329086
     15          7           0        5.518756    0.882808    0.479688
     16          1           0       -5.242788    1.806703   -1.172679
     17          1           0       -5.340459    1.935961    0.590365
     18          1           0       -4.111638    2.867354   -0.298486
     19          1           0       -2.175713   -2.365318    0.188246
     20          1           0        3.045893    1.698816   -0.403712
     21          1           0        3.175184    1.360540    1.312555
     22          1           0        4.348070   -0.796007    0.801463
     23          1           0        4.455012    0.309197   -2.060090
     24          1           0        5.365307   -1.092365   -1.464370
     25          1           0        3.597242   -1.163621   -1.553907
     26          1           0        6.373355    0.334020    0.389188
     27          1           0        5.611936    1.643153   -0.196205
 ---------------------------------------------------------------------

 SCF Done:  E(UB3LYP) =  -1042.83207135     A.U. after   29 cycles

 The electronic state is 2-A.
 Alpha  occ. eigenvalues --  -88.73039 -19.05006 -14.20578 -14.20563 -14.17493
 Alpha  occ. eigenvalues --  -14.15391 -10.10546 -10.10279 -10.09462 -10.09300
 Alpha  occ. eigenvalues --  -10.06633 -10.06621 -10.06175 -10.05455 -10.03278
 Alpha  occ. eigenvalues --   -7.81712  -5.77989  -5.77649  -5.77347  -1.00248
 Alpha  occ. eigenvalues --   -0.82347  -0.80119  -0.78072  -0.72406  -0.65712
 Alpha  occ. eigenvalues --   -0.65237  -0.64490  -0.60058  -0.57306  -0.50506
 Alpha  occ. eigenvalues --   -0.48316  -0.46484  -0.42911  -0.40426  -0.39403
 Alpha  occ. eigenvalues --   -0.36891  -0.35633  -0.34813  -0.33335  -0.32270
 Alpha  occ. eigenvalues --   -0.31934  -0.31322  -0.30738  -0.29041  -0.27752
 Alpha  occ. eigenvalues --   -0.25906  -0.25668  -0.25291  -0.24830  -0.24063
 Alpha  occ. eigenvalues --   -0.22269  -0.18966  -0.17651  -0.16095  -0.15822
 Alpha  occ. eigenvalues --   -0.14832  -0.14569  -0.13535  -0.09636   0.04511
 Alpha virt. eigenvalues --    0.06036   0.08073   0.08959   0.09190   0.10628
 Alpha virt. eigenvalues --    0.10786   0.11179   0.11875   0.12405   0.12737
 Alpha virt. eigenvalues --    0.12965   0.13255   0.13747   0.14440   0.14621

  Beta  occ. eigenvalues --  -88.72980 -19.04795 -14.20556 -14.20348 -14.17557
  Beta  occ. eigenvalues --  -14.15294 -10.10288 -10.10279 -10.09340 -10.09311
  Beta  occ. eigenvalues --  -10.06633 -10.06630 -10.06169 -10.05428 -10.02665
  Beta  occ. eigenvalues --   -7.81660  -5.77967  -5.77630  -5.77141  -0.99891
  Beta  occ. eigenvalues --   -0.82229  -0.80095  -0.77813  -0.72030  -0.65551
  Beta  occ. eigenvalues --   -0.64810  -0.64289  -0.60024  -0.56957  -0.50401
  Beta  occ. eigenvalues --   -0.47762  -0.46143  -0.42637  -0.40267  -0.39236
  Beta  occ. eigenvalues --   -0.36757  -0.35440  -0.34616  -0.32726  -0.32049
  Beta  occ. eigenvalues --   -0.31731  -0.31288  -0.30612  -0.28906  -0.27578
  Beta  occ. eigenvalues --   -0.25733  -0.25384  -0.24830  -0.24660  -0.24013
  Beta  occ. eigenvalues --   -0.21870  -0.18657  -0.16634  -0.15813  -0.14900
  Beta  occ. eigenvalues --   -0.14692  -0.13479  -0.13402  -0.07743
  Beta virt. eigenvalues --    0.06068   0.08025   0.08912   0.09104   0.10222
  Beta virt. eigenvalues --    0.10676   0.11105   0.11684   0.11853   0.12348
  Beta virt. eigenvalues --    0.12878   0.13158   0.13449   0.13826   0.14405

 Mulliken charges and spin densities:
               1          2
     1  C   -0.070426   0.010002
     2  C    0.589533   0.068083
     3  N    0.082163  -0.036623
     4  C   -1.936148  -0.061012
     5  C    0.951116   0.482982
     6  S   -0.783146   0.102714
     7  C   -0.902177   0.153929
     8  N   -0.065149   0.042669
     9  C    1.190886  -0.014328
    10  N   -0.555678   0.110844
    11  O    0.230577   0.045637
    12  C   -0.519062  -0.023629
    13  C   -0.362621   0.022761
    14  C   -0.426779  -0.091517
    15  N   -0.274893  -0.009375
    16  H    0.115758   0.026213
    17  H    0.119358   0.023062
    18  H    0.152595  -0.000171
    19  H    0.275404  -0.029950
    20  H    0.152531  -0.001563
    21  H    0.203888   0.001681
    22  H    0.202993  -0.007117
    23  H    0.106432   0.013610
    24  H    0.030635   0.071875
    25  H    0.164581   0.011901
    26  H    0.157561   0.052774
    27  H    0.170068   0.034550
 Sum of Mulliken charges =  -1.00000   1.00000

 Dipole moment (field-independent basis, Debye):
    X=              2.3486    Y=              0.8675    Z=             -1.3710  Tot=              2.8544
 Quadrupole moment (field-independent basis, Debye-Ang):
   XX=           -142.6375   YY=           -112.3310   ZZ=           -106.9389
   XY=             -3.0524   XZ=             -5.5755   YZ=             -1.6652

 Summary of Natural Population Analysis:

                                       Natural Population
                Natural  -----------------------------------------------
    Atom  No    Charge         Core      Valence    Rydberg      Total
 -----------------------------------------------------------------------
      C    1   -0.30474      0.99961     2.30002    0.00511     3.30474
      C    2    0.03969      0.99964     1.94218    0.01849     2.96031
      N    3   -0.23697      0.99963     2.72686    0.01048     3.73697
      C    4    0.01462      0.99931     1.97236    0.01371     2.98538
      C    5   -0.05637      0.99944     2.04652    0.01041     3.05637
      S    6    0.17165      4.99945     2.80494    0.02396     7.82835
      C    7    0.31251      0.99958     1.66866    0.01925     2.68749
      N    8   -0.26284      0.99967     2.75381    0.00935     3.76284
      C    9    0.16283      0.99965     1.81887    0.01864     2.83717
      N   10   -0.08949      0.99965     2.57834    0.01149     3.58949
      O   11   -0.16271      0.99986     3.15142    0.01143     4.16271
      C   12   -0.20934      0.99957     2.20070    0.00908     3.20934
      C   13   -0.01967      0.99962     2.00614    0.01390     3.01967
      C   14   -0.29557      0.99965     2.29090    0.00502     3.29557
      N   15   -0.41890      0.99978     2.90965    0.00948     3.91890
      H   16    0.10052      0.00000     0.39846    0.00102     0.39948
      H   17    0.10055      0.00000     0.39843    0.00102     0.39945
      H   18    0.10943      0.00000     0.38920    0.00137     0.39057
      H   19    0.10345      0.00000     0.39525    0.00129     0.39655
      H   20    0.10236      0.00000     0.39636    0.00128     0.39764
      H   21    0.11237      0.00000     0.38651    0.00112     0.38763
      H   22    0.09438      0.00000     0.40255    0.00307     0.40562
      H   23    0.09083      0.00000     0.40781    0.00136     0.40917
      H   24    0.09088      0.00000     0.40756    0.00156     0.40912
      H   25    0.11417      0.00000     0.38440    0.00143     0.38583
      H   26    0.16940      0.00000     0.32898    0.00162     0.33060
      H   27    0.16710      0.00000     0.33119    0.00170     0.33290
 =======================================================================
   * Total *    0.00014     18.99412    39.79807    0.20767    58.99986

 Normal termination of Gaussian 16 at Thu Dec 10 15:55:11 2020.
