 Gaussian 16, Revision A.03,

 -----------------------------------------------------------
 # opt freq B3LYP/6-31G(d) empiricaldispersion=gd3bj scf=xqc
 -----------------------------------------------------------

 ------------------------------
 CID_71164327_JID_9859_neutraal
 ------------------------------
 Symbolic Z-matrix:
 Charge =  0 Multiplicity = 1

 SCF Done:  E(RB3LYP) =  -832.379517055     A.U. after   15 cycles
 SCF Done:  E(RB3LYP) =  -832.394461638     A.U. after   13 cycles
 SCF Done:  E(RB3LYP) =  -832.397653907     A.U. after   13 cycles
 SCF Done:  E(RB3LYP) =  -832.400443141     A.U. after   13 cycles
 SCF Done:  E(RB3LYP) =  -832.401252683     A.U. after   13 cycles
 SCF Done:  E(RB3LYP) =  -832.401395689     A.U. after   12 cycles
 SCF Done:  E(RB3LYP) =  -832.401482458     A.U. after   10 cycles
 SCF Done:  E(RB3LYP) =  -832.401593779     A.U. after   11 cycles
 SCF Done:  E(RB3LYP) =  -832.401633689     A.U. after   11 cycles
 SCF Done:  E(RB3LYP) =  -832.401684681     A.U. after   10 cycles
 SCF Done:  E(RB3LYP) =  -832.401805323     A.U. after    9 cycles
 SCF Done:  E(RB3LYP) =  -832.401806657     A.U. after    9 cycles
 SCF Done:  E(RB3LYP) =  -832.401807335     A.U. after    9 cycles
 SCF Done:  E(RB3LYP) =  -832.401807392     A.U. after    7 cycles
 SCF Done:  E(RB3LYP) =  -832.401807441     A.U. after    7 cycles
 Optimization completed.
    -- Stationary point found.
 Normal termination of Gaussian 16 at Sun Dec 13 12:43:16 2020.

 --------------------------------------------------------------------
 #N Geom=AllCheck Guess=TCheck SCRF=Check GenChk RB3LYP/6-31G(d) Freq
 --------------------------------------------------------------------

 Structure from the checkpoint file:  "JID_9859.chk"
 ------------------------------
 CID_71164327_JID_9859_neutraal
 ------------------------------
 Charge =  0 Multiplicity = 1

 SCF Done:  E(RB3LYP) =  -832.401807441     A.U. after    1 cycles

  Exact polarizability: 268.591   5.653 212.123   1.502   7.655  72.389
 Approx polarizability: 404.863   8.282 360.584   1.407  20.812 113.697

                      1                      2                      3
                      A                      A                      A
 Frequencies --     19.4922                36.5110                47.2803
 Red. masses --      4.2280                 3.4739                 4.2250
 Frc consts  --      0.0009                 0.0027                 0.0056
 IR Inten    --      0.4897                 0.1695                 0.3047

                      4                      5                      6
                      A                      A                      A
 Frequencies --     75.0381               105.8384               139.5123
 Red. masses --      3.8505                 3.5573                 6.8333
 Frc consts  --      0.0128                 0.0235                 0.0784
 IR Inten    --      0.6705                 0.2840                 0.7617

                      7                      8                      9
                      A                      A                      A
 Frequencies --    159.0502               193.1149               223.7459
 Red. masses --      2.2628                 4.9045                 5.6777
 Frc consts  --      0.0337                 0.1078                 0.1675
 IR Inten    --      1.3877                 9.3753                 4.7092

                     10                     11                     12
                      A                      A                      A
 Frequencies --    233.9661               237.3518               287.0231
 Red. masses --      1.6124                 3.8774                 6.1623
 Frc consts  --      0.0520                 0.1287                 0.2991
 IR Inten    --      1.3811                 1.5641                 0.7936

                     13                     14                     15
                      A                      A                      A
 Frequencies --    300.9278               356.6552               421.0465
 Red. masses --      2.5031                 4.7962                 2.4326
 Frc consts  --      0.1336                 0.3595                 0.2541
 IR Inten    --      0.4912                 0.1593                13.1942

                     16                     17                     18
                      A                      A                      A
 Frequencies --    430.9570               438.1347               444.2147
 Red. masses --      2.7910                 1.9113                 2.9005
 Frc consts  --      0.3054                 0.2162                 0.3372
 IR Inten    --     39.1702               104.1220                62.4069

                     19                     20                     21
                      A                      A                      A
 Frequencies --    466.5558               483.8637               504.3497
 Red. masses --      2.5308                 3.9708                 1.2185
 Frc consts  --      0.3246                 0.5477                 0.1826
 IR Inten    --     84.3409                10.2113                74.5026

                     22                     23                     24
                      A                      A                      A
 Frequencies --    508.4585               542.7059               585.4625
 Red. masses --      1.1754                 5.8680                 3.5571
 Frc consts  --      0.1790                 1.0183                 0.7184
 IR Inten    --     25.4815                 6.1963                15.0150

                     25                     26                     27
                      A                      A                      A
 Frequencies --    603.0073               611.3128               639.0915
 Red. masses --      2.6305                 4.9451                 2.2270
 Frc consts  --      0.5636                 1.0888                 0.5359
 IR Inten    --     34.7741                 5.4926                11.6971

                     28                     29                     30
                      A                      A                      A
 Frequencies --    668.7369               686.1301               705.6575
 Red. masses --      7.1323                 2.5125                 4.1111
 Frc consts  --      1.8793                 0.6969                 1.2061
 IR Inten    --      0.9223                28.3945                 6.0890

                     31                     32                     33
                      A                      A                      A
 Frequencies --    711.5255               772.5165               779.7104
 Red. masses --      4.5119                 2.5247                 1.4609
 Frc consts  --      1.3458                 0.8877                 0.5233
 IR Inten    --      6.8075                 5.2681                21.0870

                     34                     35                     36
                      A                      A                      A
 Frequencies --    784.6676               801.8550               805.4187
 Red. masses --      2.3246                 4.7651                 2.6951
 Frc consts  --      0.8433                 1.8052                 1.0301
 IR Inten    --      4.6793                28.3595                13.4251

                     37                     38                     39
                      A                      A                      A
 Frequencies --    820.2831               823.9235               879.1810
 Red. masses --      2.0259                 5.3719                 5.1767
 Frc consts  --      0.8032                 2.1486                 2.3576
 IR Inten    --     32.0968                 3.3612                21.6183

                     40                     41                     42
                      A                      A                      A
 Frequencies --    900.1806               950.1652               974.1964
 Red. masses --      1.4445                 1.2777                 2.4177
 Frc consts  --      0.6897                 0.6796                 1.3519
 IR Inten    --     16.7251                 0.0709                 7.3364

                     43                     44                     45
                      A                      A                      A
 Frequencies --    986.6331               986.6959               999.6467
 Red. masses --      1.4965                 2.6746                 9.0474
 Frc consts  --      0.8583                 1.5342                 5.3268
 IR Inten    --      1.5941                 5.4263                18.2183

                     46                     47                     48
                      A                      A                      A
 Frequencies --   1027.5147              1062.6261              1094.4512
 Red. masses --      2.3158                 2.2581                 1.7404
 Frc consts  --      1.4406                 1.5023                 1.2283
 IR Inten    --      7.8197                26.9787                 1.0551

                     49                     50                     51
                      A                      A                      A
 Frequencies --   1106.6751              1126.7259              1167.3484
 Red. masses --      2.1335                 2.0255                 1.7440
 Frc consts  --      1.5395                 1.5150                 1.4002
 IR Inten    --      2.0580                 3.6332                51.9206

                     52                     53                     54
                      A                      A                      A
 Frequencies --   1176.6168              1192.0233              1240.4999
 Red. masses --      1.6736                 1.9093                 2.6926
 Frc consts  --      1.3652                 1.5984                 2.4412
 IR Inten    --      6.8676                15.7831                18.6625

                     55                     56                     57
                      A                      A                      A
 Frequencies --   1270.8402              1280.9448              1281.7143
 Red. masses --      1.7212                 2.0300                 2.8078
 Frc consts  --      1.6378                 1.9625                 2.7177
 IR Inten    --      5.7045                48.0087                37.9192

                     58                     59                     60
                      A                      A                      A
 Frequencies --   1330.2540              1338.4722              1370.6270
 Red. masses --      1.5546                 1.8594                 2.5225
 Frc consts  --      1.6209                 1.9627                 2.7920
 IR Inten    --     18.1686                14.7236                 9.5228

                     61                     62                     63
                      A                      A                      A
 Frequencies --   1377.9449              1398.8430              1406.7446
 Red. masses --      1.8242                 2.3724                 2.6766
 Frc consts  --      2.0408                 2.7351                 3.1208
 IR Inten    --      0.7446                 8.3911                40.5589

                     64                     65                     66
                      A                      A                      A
 Frequencies --   1437.4358              1444.8901              1490.6210
 Red. masses --      1.3282                 2.9735                 3.0240
 Frc consts  --      1.6170                 3.6576                 3.9589
 IR Inten    --      3.8529                 6.8652               180.4774

                     67                     68                     69
                      A                      A                      A
 Frequencies --   1499.0705              1511.5361              1526.2962
 Red. masses --      3.3043                 1.1120                 1.0646
 Frc consts  --      4.3750                 1.4969                 1.4612
 IR Inten    --     74.7846                11.9944                 5.5235

                     70                     71                     72
                      A                      A                      A
 Frequencies --   1527.8059              1535.8371              1549.5301
 Red. masses --      2.2419                 1.1024                 4.7228
 Frc consts  --      3.0832                 1.5320                 6.6811
 IR Inten    --     23.0783                 7.4932               438.5640

                     73                     74                     75
                      A                      A                      A
 Frequencies --   1559.2819              1592.4136              1603.8613
 Red. masses --      3.4331                 4.6036                 6.2941
 Frc consts  --      4.9180                 6.8780                 9.5394
 IR Inten    --     63.3288                48.2682                90.9872

                     76                     77                     78
                      A                      A                      A
 Frequencies --   1638.9550              1651.8756              1673.0365
 Red. masses --      3.3408                 2.1260                 2.1440
 Frc consts  --      5.2874                 3.4180                 3.5358
 IR Inten    --    794.3690                24.6558               384.8019

                     79                     80                     81
                      A                      A                      A
 Frequencies --   1696.4733              3037.2311              3055.3053
 Red. masses --      6.4123                 1.0601                 1.0348
 Frc consts  --     10.8733                 5.7616                 5.6915
 IR Inten    --      1.6505                38.2035                28.7882

                     82                     83                     84
                      A                      A                      A
 Frequencies --   3070.9559              3125.5225              3132.1781
 Red. masses --      1.1032                 1.1031                 1.1033
 Frc consts  --      6.1301                 6.3489                 6.3776
 IR Inten    --     13.4968                37.1309                32.4882

                     85                     86                     87
                      A                      A                      A
 Frequencies --   3165.1321              3171.0281              3211.0698
 Red. masses --      1.0886                 1.0896                 1.0944
 Frc consts  --      6.4252                 6.4555                 6.6483
 IR Inten    --     18.6818                38.6013                12.6101

                     88                     89                     90
                      A                      A                      A
 Frequencies --   3216.6649              3279.1721              3596.1531
 Red. masses --      1.0934                 1.0908                 1.0456
 Frc consts  --      6.6657                 6.9105                 7.9673
 IR Inten    --     13.0836                 4.7483                44.4896

                     91                     92                     93
                      A                      A                      A
 Frequencies --   3621.5994              3639.0897              3717.1924
 Red. masses --      1.0759                 1.0807                 1.1026
 Frc consts  --      8.3142                 8.4318                 8.9767
 IR Inten    --     24.6490                97.5727                35.5542

 - Thermochemistry -
 -------------------
 Temperature   298.150 Kelvin.  Pressure   1.00000 Atm.
 Atom     1 has atomic number  6 and mass  12.00000

 Molecular mass:   254.12799 amu.
 Principal axes and moments of inertia in atomic units:
                           1         2         3
     Eigenvalues --  2641.146638135.81749**********
           X            0.99983   0.01856  -0.00024
           Y           -0.01856   0.99982  -0.00398
           Z            0.00017   0.00398   0.99999
 This molecule is an asymmetric top.
 Rotational symmetry number  1.
 Warning -- assumption of classical behavior for rotation
           may cause significant error
 Rotational temperatures (Kelvin)      0.03279     0.01065     0.00814
 Rotational constants (GHZ):           0.68332     0.22183     0.16965
 Zero-point vibrational energy     701967.9 (Joules/Mol)
                                  167.77436 (Kcal/Mol)
 Warning -- explicit consideration of  26 degrees of freedom as
           vibrations may cause significant error
 Vibrational temperatures:     28.04    52.53    68.03   107.96   152.28
          (Kelvin)            200.73   228.84   277.85   321.92   336.63
                              341.50   412.96   432.97   513.15   605.79
                              620.05   630.38   639.13   671.27   696.17
                              725.65   731.56   780.83   842.35   867.59
                              879.54   919.51   962.16   987.19  1015.28
                             1023.73  1111.48  1121.83  1128.96  1153.69
                             1158.82  1180.20  1185.44  1264.95  1295.16
                             1367.08  1401.65  1419.54  1419.64  1438.27
                             1478.36  1528.88  1574.67  1592.26  1621.11
                             1679.55  1692.89  1715.06  1784.80  1828.46
                             1842.99  1844.10  1913.94  1925.76  1972.03
                             1982.56  2012.62  2023.99  2068.15  2078.87
                             2144.67  2156.83  2174.76  2196.00  2198.17
                             2209.73  2229.43  2243.46  2291.13  2307.60
                             2358.09  2376.68  2407.13  2440.85  4369.90
                             4395.90  4418.42  4496.93  4506.51  4553.92
                             4562.40  4620.01  4628.06  4718.00  5174.06
                             5210.67  5235.84  5348.21

 Zero-point correction=                           0.267365 (Hartree/Particle)
 Thermal correction to Energy=                    0.283454
 Thermal correction to Enthalpy=                  0.284399
 Thermal correction to Gibbs Free Energy=         0.222285
 Sum of electronic and zero-point Energies=           -832.134442
 Sum of electronic and thermal Energies=              -832.118353
 Sum of electronic and thermal Enthalpies=            -832.117409
 Sum of electronic and thermal Free Energies=         -832.179523

                     E (Thermal)             CV                S
                      KCal/Mol        Cal/Mol-Kelvin    Cal/Mol-Kelvin
 Total                  177.870             63.143            130.729
 Electronic               0.000              0.000              0.000
 Translational            0.889              2.981             42.498
 Rotational               0.889              2.981             33.791
 Vibrational            176.093             57.181             54.440
 Vibration     1          0.593              1.986              6.685
 Vibration     2          0.594              1.982              5.440
 Vibration     3          0.595              1.979              4.928
 Vibration     4          0.599              1.966              4.017
 Vibration     5          0.605              1.945              3.344
 Vibration     6          0.615              1.914              2.811
 Vibration     7          0.621              1.892              2.561
 Vibration     8          0.635              1.849              2.198
 Vibration     9          0.649              1.805              1.929
 Vibration    10          0.654              1.789              1.848
 Vibration    11          0.656              1.783              1.823
 Vibration    12          0.684              1.698              1.491
 Vibration    13          0.693              1.672              1.412
 Vibration    14          0.732              1.562              1.137
 Vibration    15          0.784              1.424              0.888
 Vibration    16          0.792              1.403              0.856
 Vibration    17          0.798              1.387              0.832
 Vibration    18          0.804              1.374              0.813
 Vibration    19          0.824              1.324              0.747
 Vibration    20          0.840              1.286              0.700
 Vibration    21          0.860              1.240              0.647
 Vibration    22          0.864              1.231              0.637
 Vibration    23          0.898              1.156              0.559
 Vibration    24          0.942              1.063              0.475
 Vibration    25          0.961              1.025              0.445
 Vibration    26          0.970              1.008              0.431

 Optimization completed.
    -- Stationary point found.
 Normal termination of Gaussian 16 at Sun Dec 13 12:59:11 2020.

 ----------------------------------------------------------------------
 # B3LYP/6-311++G(d,p) empiricaldispersion=gd3bj scf=xqc pop=npa geom=c
 heck
 ----------------------------------------------------------------------

 --------------------------------------
 CID_71164327_JID_9859_Energie_neutraal
 --------------------------------------
 Structure from the checkpoint file:  "JID_9859.chk"
 Charge =  0 Multiplicity = 1

 SCF Done:  E(RB3LYP) =  -832.628113013     A.U. after   15 cycles
 Normal termination of Gaussian 16 at Sun Dec 13 13:05:59 2020.

 ----------------------------------------------------------------------
 # B3LYP/6-311++G(d,p) empiricaldispersion=gd3bj scf=xqc pop=npa geom=c
 heck
 ----------------------------------------------------------------------

 ------------------------------------
 CID_71164327_JID_9859_Energie_kation
 ------------------------------------
 Structure from the checkpoint file:  "JID_9859.chk"
 Charge =  1 Multiplicity = 2

 SCF Done:  E(UB3LYP) =  -832.375898542     A.U. after   23 cycles
 Normal termination of Gaussian 16 at Sun Dec 13 13:21:22 2020.
 Gaussian 16:  ES64L-G16RevA.03 25-Dec-2016

 ----------------------------------------------------------------------
 # B3LYP/6-311++G(d,p) empiricaldispersion=gd3bj scf=xqc pop=npa geom=c
 heck
 ----------------------------------------------------------------------

 -----------------------------------
 CID_71164327_JID_9859_Energie_anion
 -----------------------------------
 Structure from the checkpoint file:  "JID_9859.chk"
 Charge = -1 Multiplicity = 2

                         Standard orientation:
 ---------------------------------------------------------------------
 Center     Atomic      Atomic             Coordinates (Angstroms)
 Number     Number       Type             X           Y           Z
 ---------------------------------------------------------------------
      1          6           0        2.072968    3.086266   -0.778707
      2          6           0        2.739942    2.439929    0.448097
      3          6           0        2.966541    0.972377    0.276601
      4          6           0        2.071291   -0.098993    0.145328
      5          6           0        0.659414   -0.199221    0.161589
      6          6           0        0.104962   -1.453773   -0.006025
      7          6           0        0.945540   -2.606798   -0.180177
      8          6           0        2.313919   -2.527923   -0.191743
      9          6           0        2.908385   -1.251527   -0.029100
     10          7           0        4.219552   -0.931072   -0.010303
     11          7           0        4.196795    0.405614    0.172139
     12          7           0       -1.277363   -1.721722   -0.011584
     13          6           0       -2.365355   -0.887385    0.009698
     14          7           0       -2.189569    0.438288    0.033805
     15          6           0       -3.305667    1.191018    0.046655
     16          7           0       -4.578149    0.763700    0.029728
     17          6           0       -4.719359   -0.570727    0.008929
     18          6           0       -3.660946   -1.457874    0.000042
     19          7           0       -3.116329    2.546797    0.115240
     20          1           0        2.702789    2.976835   -1.667677
     21          1           0        1.897467    4.154170   -0.608405
     22          1           0        1.111904    2.607841   -0.992913
     23          1           0        3.696110    2.937551    0.656353
     24          1           0        2.110076    2.606272    1.331761
     25          1           0        0.021540    0.660962    0.294484
     26          1           0        0.467942   -3.576211   -0.309973
     27          1           0        2.930569   -3.410967   -0.323405
     28          1           0        5.080514    0.893055    0.225727
     29          1           0       -1.511248   -2.702978   -0.058630
     30          1           0       -5.743920   -0.939097   -0.004239
     31          1           0       -3.814319   -2.531583   -0.020462
     32          1           0       -3.915705    3.112468   -0.130444
     33          1           0       -2.208083    2.888245   -0.162483
 ---------------------------------------------------------------------

 SCF Done:  E(UB3LYP) =  -832.625950139     A.U. after   33 cycles
 SCF Done:  E(UB3LYP) =  -832.625950139     a.u. after    1 cycles

 The electronic state is 2-A.
 Alpha  occ. eigenvalues --  -14.26108 -14.24422 -14.22480 -14.19677 -14.18783
 Alpha  occ. eigenvalues --  -14.18781 -10.16592 -10.14483 -10.10708 -10.09310
 Alpha  occ. eigenvalues --  -10.08126 -10.07375 -10.06950 -10.06749 -10.05853
 Alpha  occ. eigenvalues --  -10.05771 -10.04954 -10.04612 -10.03354  -0.92121
 Alpha  occ. eigenvalues --   -0.89728  -0.85432  -0.79486  -0.76923  -0.72859
 Alpha  occ. eigenvalues --   -0.70897  -0.67209  -0.65152  -0.63819  -0.61165
 Alpha  occ. eigenvalues --   -0.56644  -0.54527  -0.52726  -0.51967  -0.48855
 Alpha  occ. eigenvalues --   -0.46406  -0.44287  -0.43920  -0.41085  -0.39883
 Alpha  occ. eigenvalues --   -0.37950  -0.37458  -0.36254  -0.35928  -0.34488
 Alpha  occ. eigenvalues --   -0.34014  -0.32696  -0.32028  -0.30779  -0.30275
 Alpha  occ. eigenvalues --   -0.29842  -0.28782  -0.28553  -0.27339  -0.26299
 Alpha  occ. eigenvalues --   -0.24759  -0.23305  -0.22723  -0.21759  -0.20316
 Alpha  occ. eigenvalues --   -0.17632  -0.16956  -0.15738  -0.14378  -0.13396
 Alpha  occ. eigenvalues --   -0.11251  -0.07710   0.04230
 Alpha virt. eigenvalues --    0.06429   0.06539   0.07215   0.07825   0.08217
 Alpha virt. eigenvalues --    0.08962   0.09708   0.09956   0.10055   0.10986
 Alpha virt. eigenvalues --    0.11583   0.12207   0.12678   0.13121   0.13715

  Beta  occ. eigenvalues --  -14.25866 -14.24468 -14.22473 -14.19585 -14.18698
  Beta  occ. eigenvalues --  -14.18678 -10.16604 -10.14341 -10.10624 -10.09292
  Beta  occ. eigenvalues --  -10.07985 -10.07366 -10.06990 -10.06781 -10.05844
  Beta  occ. eigenvalues --  -10.05735 -10.04802 -10.04659 -10.03138  -0.91810
  Beta  occ. eigenvalues --   -0.89604  -0.85383  -0.79419  -0.76736  -0.72672
  Beta  occ. eigenvalues --   -0.70680  -0.67061  -0.65003  -0.63650  -0.60932
  Beta  occ. eigenvalues --   -0.56368  -0.54476  -0.52626  -0.51793  -0.48793
  Beta  occ. eigenvalues --   -0.46322  -0.44208  -0.43767  -0.41002  -0.39745
  Beta  occ. eigenvalues --   -0.37897  -0.37326  -0.36170  -0.35875  -0.34324
  Beta  occ. eigenvalues --   -0.33681  -0.32421  -0.31708  -0.30674  -0.30176
  Beta  occ. eigenvalues --   -0.29731  -0.28566  -0.28411  -0.27193  -0.26211
  Beta  occ. eigenvalues --   -0.24697  -0.22871  -0.22641  -0.21244  -0.20176
  Beta  occ. eigenvalues --   -0.17090  -0.16841  -0.15118  -0.14255  -0.13114
  Beta  occ. eigenvalues --   -0.10784  -0.06863
  Beta virt. eigenvalues --    0.06439   0.06955   0.07601   0.08060   0.08210
  Beta virt. eigenvalues --    0.08544   0.09225   0.09758   0.10162   0.10558
  Beta virt. eigenvalues --    0.11244   0.11680   0.12332   0.12731   0.13133

 Mulliken charges and spin densities:
               1          2
     1  C    0.208012  -0.741200
     2  C   -0.952004   0.480418
     3  C    1.399581   0.197943
     4  C    0.092379  -0.399504
     5  C   -0.379650   0.073390
     6  C   -0.004640  -0.336169
     7  C   -0.345740  -0.089135
     8  C   -0.353181   0.152842
     9  C   -0.127837  -0.252270
    10  N   -0.194592   0.100451
    11  N   -0.145984   0.050301
    12  N    0.007921  -0.018919
    13  C   -0.090802  -0.183940
    14  N   -0.178951   0.017419
    15  C   -0.022176  -0.005270
    16  N   -0.230972   0.037988
    17  C   -0.426764  -0.019721
    18  C    0.151364   0.248363
    19  N   -0.262017  -0.008106
    20  H    0.079360   0.044317
    21  H   -0.446133   0.577650
    22  H    0.094200   0.046166
    23  H   -0.522068   0.665934
    24  H    0.004203   0.142745
    25  H    0.356883  -0.078698
    26  H    0.044531   0.034102
    27  H    0.144887  -0.008220
    28  H    0.199696   0.107450
    29  H    0.302172  -0.028761
    30  H    0.136378   0.002231
    31  H    0.073681   0.051420
    32  H    0.213397   0.043075
    33  H    0.174867   0.095707
 Sum of Mulliken charges =  -1.00000   1.00000

 Dipole moment (field-independent basis, Debye):
    X=             -4.2827    Y=             -3.8859    Z=             -1.0401  Tot=              5.8757
 Quadrupole moment (field-independent basis, Debye-Ang):
   XX=           -184.4205   YY=           -145.3508   ZZ=           -129.2421
   XY=              2.6386   XZ=              0.4601   YZ=             -3.1265

 Summary of Natural Population Analysis:

                                       Natural Population
                Natural  -----------------------------------------------
    Atom  No    Charge         Core      Valence    Rydberg      Total
 -----------------------------------------------------------------------
      C    1   -0.27951      0.99966     2.27433    0.00552     3.27951
      C    2   -0.20657      0.99962     2.19743    0.00952     3.20657
      C    3    0.10354      0.99951     1.88463    0.01231     2.89646
      C    4   -0.07115      0.99946     2.06321    0.00848     3.07115
      C    5   -0.07527      0.99950     2.06824    0.00753     3.07527
      C    6    0.06615      0.99949     1.92397    0.01038     2.93385
      C    7   -0.11650      0.99956     2.10866    0.00829     3.11650
      C    8   -0.07608      0.99953     2.06781    0.00874     3.07608
      C    9    0.05374      0.99951     1.93365    0.01310     2.94626
      N   10   -0.16666      0.99972     2.65376    0.01318     3.66666
      N   11   -0.12326      0.99965     2.61089    0.01272     3.62326
      N   12   -0.28572      0.99964     2.77809    0.00799     3.78572
      C   13    0.24040      0.99955     1.74703    0.01302     2.75960
      N   14   -0.28711      0.99963     2.77781    0.00966     3.78711
      C   15    0.29983      0.99964     1.68217    0.01835     2.70017
      N   16   -0.28549      0.99968     2.77427    0.01155     3.78549
      C   17    0.05708      0.99961     1.92934    0.01397     2.94292
      C   18   -0.19407      0.99953     2.18607    0.00847     3.19407
      N   19   -0.39497      0.99970     2.88559    0.00968     3.89497
      H   20    0.09530      0.00000     0.40375    0.00095     0.40470
      H   21    0.09700      0.00000     0.40100    0.00200     0.40300
      H   22    0.10025      0.00000     0.39850    0.00125     0.39975
      H   23    0.09901      0.00000     0.39902    0.00196     0.40099
      H   24    0.10556      0.00000     0.39292    0.00151     0.39444
      H   25    0.11653      0.00000     0.38167    0.00180     0.38347
      H   26    0.08782      0.00000     0.41076    0.00142     0.41218
      H   27    0.09638      0.00000     0.40207    0.00155     0.40362
      H   28    0.19034      0.00000     0.30737    0.00229     0.30966
      H   29    0.18666      0.00000     0.31124    0.00211     0.31334
      H   30    0.08355      0.00000     0.41529    0.00116     0.41645
      H   31    0.09911      0.00000     0.39982    0.00107     0.40089
      H   32    0.19006      0.00000     0.30785    0.00209     0.30994
      H   33    0.19405      0.00000     0.30436    0.00159     0.30595
 =======================================================================
   * Total *   -0.00000     18.99218    47.78256    0.22525    67.00000

 Normal termination of Gaussian 16 at Sun Dec 13 13:43:33 2020.
