 Gaussian 16, Revision A.03,

 -----------------------------------------------------------
 # opt freq B3LYP/6-31G(d) empiricaldispersion=gd3bj scf=xqc
 -----------------------------------------------------------

 ------------------------------
 CID_12483526_JID_4560_neutraal
 ------------------------------
 Symbolic Z-matrix:
 Charge =  0 Multiplicity = 1

 SCF Done:  E(RB3LYP) =  -703.820803383     A.U. after   15 cycles
 SCF Done:  E(RB3LYP) =  -703.826011267     A.U. after   15 cycles
 SCF Done:  E(RB3LYP) =  -703.824103456     A.U. after   14 cycles
 SCF Done:  E(RB3LYP) =  -703.829361742     A.U. after   13 cycles
 SCF Done:  E(RB3LYP) =  -703.832035699     A.U. after   14 cycles
 SCF Done:  E(RB3LYP) =  -703.833531915     A.U. after   13 cycles
 SCF Done:  E(RB3LYP) =  -703.834212920     A.U. after   12 cycles
 SCF Done:  E(RB3LYP) =  -703.834975765     A.U. after   12 cycles
 SCF Done:  E(RB3LYP) =  -703.835297948     A.U. after   12 cycles
 SCF Done:  E(RB3LYP) =  -703.835528653     A.U. after   12 cycles
 SCF Done:  E(RB3LYP) =  -703.836016049     A.U. after    9 cycles
 SCF Done:  E(RB3LYP) =  -703.836017115     A.U. after    9 cycles
 SCF Done:  E(RB3LYP) =  -703.836018243     A.U. after   10 cycles
 SCF Done:  E(RB3LYP) =  -703.836019024     A.U. after    9 cycles
 SCF Done:  E(RB3LYP) =  -703.836019039     A.U. after    7 cycles
 Optimization completed.
    -- Stationary point found.
 Normal termination of Gaussian 16 at Thu Dec 10 10:11:56 2020.

 --------------------------------------------------------------------
 #N Geom=AllCheck Guess=TCheck SCRF=Check GenChk RB3LYP/6-31G(d) Freq
 --------------------------------------------------------------------

 Structure from the checkpoint file:  "JID_4560.chk"
 ------------------------------
 CID_12483526_JID_4560_neutraal
 ------------------------------
 Charge =  0 Multiplicity = 1

 SCF Done:  E(RB3LYP) =  -703.836019039     A.U. after    1 cycles

  Exact polarizability: 150.581 -12.743 111.307  -0.496  -8.277  91.967
 Approx polarizability: 183.873 -29.602 194.827   6.772 -20.749 128.439

                      1                      2                      3
                      A                      A                      A
 Frequencies --     17.2480                26.7601                43.8351
 Red. masses --      3.9207                 3.4504                 3.8765
 Frc consts  --      0.0007                 0.0015                 0.0044
 IR Inten    --      1.2081                 0.0790                 1.5630

                      4                      5                      6
                      A                      A                      A
 Frequencies --     61.7881                68.2465                74.3292
 Red. masses --      3.4199                 2.8199                 2.2817
 Frc consts  --      0.0077                 0.0077                 0.0074
 IR Inten    --      0.9388                 3.3039                 0.8114

                      7                      8                      9
                      A                      A                      A
 Frequencies --    102.7240               145.1753               158.4555
 Red. masses --      3.0212                 3.5581                 2.2235
 Frc consts  --      0.0188                 0.0442                 0.0329
 IR Inten    --      0.4685                 1.9911                 0.6366

                     10                     11                     12
                      A                      A                      A
 Frequencies --    184.4172               238.7602               242.3889
 Red. masses --      2.3479                 3.0784                 2.7449
 Frc consts  --      0.0470                 0.1034                 0.0950
 IR Inten    --      2.0707                 1.2961                 4.4956

                     13                     14                     15
                      A                      A                      A
 Frequencies --    264.4056               271.8002               289.5814
 Red. masses --      2.7038                 4.2381                 1.7379
 Frc consts  --      0.1114                 0.1845                 0.0859
 IR Inten    --      0.1989                17.6082                 3.6267

                     16                     17                     18
                      A                      A                      A
 Frequencies --    338.4378               376.9332               400.8201
 Red. masses --      4.7857                 2.0877                 4.8498
 Frc consts  --      0.3230                 0.1748                 0.4591
 IR Inten    --      4.0221                 2.4226                 6.0258

                     19                     20                     21
                      A                      A                      A
 Frequencies --    468.3048               517.7595               556.1193
 Red. masses --      4.4423                 2.9777                 4.7231
 Frc consts  --      0.5740                 0.4703                 0.8606
 IR Inten    --      1.1626                 7.8704                12.5497

                     22                     23                     24
                      A                      A                      A
 Frequencies --    591.2263               682.4451               695.8506
 Red. masses --      1.7939                 1.3051                 2.5087
 Frc consts  --      0.3694                 0.3581                 0.7157
 IR Inten    --     12.8143               230.5997                28.0079

                     25                     26                     27
                      A                      A                      A
 Frequencies --    738.1919               747.6896               761.6687
 Red. masses --      4.4721                 2.0738                 2.8215
 Frc consts  --      1.4358                 0.6830                 0.9644
 IR Inten    --      8.7752                40.3595                35.1316

                     28                     29                     30
                      A                      A                      A
 Frequencies --    787.4157               824.8655               867.3729
 Red. masses --      4.4855                 2.0507                 1.9119
 Frc consts  --      1.6386                 0.8221                 0.8475
 IR Inten    --     16.0293                 0.4169                 6.5541

                     31                     32                     33
                      A                      A                      A
 Frequencies --    882.6657               950.4577               963.7766
 Red. masses --      3.6174                 2.0813                 1.6035
 Frc consts  --      1.6605                 1.1078                 0.8775
 IR Inten    --     12.9485                13.4151                21.6020

                     34                     35                     36
                      A                      A                      A
 Frequencies --    978.5610              1000.3223              1057.7755
 Red. masses --      2.0307                 1.5116                 2.5842
 Frc consts  --      1.1457                 0.8912                 1.7036
 IR Inten    --      4.7159                 9.6488                91.9566

                     37                     38                     39
                      A                      A                      A
 Frequencies --   1087.1539              1104.4413              1146.6163
 Red. masses --      2.0142                 2.5969                 1.8749
 Frc consts  --      1.4026                 1.8663                 1.4523
 IR Inten    --    125.2407                45.5619                 6.2210

                     40                     41                     42
                      A                      A                      A
 Frequencies --   1157.1191              1160.7644              1171.0675
 Red. masses --      1.6887                 2.3146                 2.1544
 Frc consts  --      1.3322                 1.8375                 1.7408
 IR Inten    --     94.2930               109.5657                 9.0673

                     43                     44                     45
                      A                      A                      A
 Frequencies --   1188.4608              1264.2834              1288.3292
 Red. masses --      2.5423                 1.1599                 1.2892
 Frc consts  --      2.1157                 1.0923                 1.2607
 IR Inten    --     90.0860                 4.9355                 8.2674

                     46                     47                     48
                      A                      A                      A
 Frequencies --   1319.3914              1337.4003              1366.0661
 Red. masses --      2.3275                 1.1224                 2.2427
 Frc consts  --      2.3871                 1.1828                 2.4658
 IR Inten    --    685.8057                 0.8416                21.7795

                     49                     50                     51
                      A                      A                      A
 Frequencies --   1391.2174              1396.3249              1409.6999
 Red. masses --      1.9865                 1.5172                 1.5017
 Frc consts  --      2.2654                 1.7428                 1.7583
 IR Inten    --     95.2710                24.5209                 1.7581

                     52                     53                     54
                      A                      A                      A
 Frequencies --   1439.0846              1445.4906              1477.5565
 Red. masses --      1.5316                 1.3245                 1.4462
 Frc consts  --      1.8688                 1.6306                 1.8602
 IR Inten    --      7.6053                 6.2656                43.3311

                     55                     56                     57
                      A                      A                      A
 Frequencies --   1497.4342              1504.2780              1506.7274
 Red. masses --      1.2208                 1.3348                 1.1040
 Frc consts  --      1.6129                 1.7796                 1.4767
 IR Inten    --     14.3186                 6.2442                 0.7170

                     58                     59                     60
                      A                      A                      A
 Frequencies --   1519.9519              1521.8243              1530.5146
 Red. masses --      1.0467                 1.0634                 1.0566
 Frc consts  --      1.4248                 1.4511                 1.4583
 IR Inten    --      9.2606                 1.1818                 3.8472

                     61                     62                     63
                      A                      A                      A
 Frequencies --   1535.6802              1547.9714              1550.7566
 Red. masses --      1.0782                 1.0693                 1.1009
 Frc consts  --      1.4981                 1.5096                 1.5598
 IR Inten    --     10.5609                 6.9558                28.2360

                     64                     65                     66
                      A                      A                      A
 Frequencies --   1682.0103              1793.5116              1824.9803
 Red. masses --      6.4262                11.3423                 6.8068
 Frc consts  --     10.7118                21.4961                13.3570
 IR Inten    --    119.9780               275.0037               417.1356

                     67                     68                     69
                      A                      A                      A
 Frequencies --   3038.6450              3044.6427              3050.5162
 Red. masses --      1.0618                 1.0383                 1.0647
 Frc consts  --      5.7765                 5.6710                 5.8373
 IR Inten    --     21.4132                20.9724                29.9236

                     70                     71                     72
                      A                      A                      A
 Frequencies --   3057.8677              3075.9252              3080.9310
 Red. masses --      1.0381                 1.0671                 1.0928
 Frc consts  --      5.7193                 5.9484                 6.1115
 IR Inten    --     38.9821                15.7576                22.7954

                     73                     74                     75
                      A                      A                      A
 Frequencies --   3090.7965              3112.7626              3114.4177
 Red. masses --      1.0982                 1.1010                 1.1053
 Frc consts  --      6.1812                 6.2854                 6.3166
 IR Inten    --     13.2227                54.0565                20.1151

                     76                     77                     78
                      A                      A                      A
 Frequencies --   3115.9400              3124.6366              3183.5453
 Red. masses --      1.1036                 1.1056                 1.0987
 Frc consts  --      6.3131                 6.3600                 6.5608
 IR Inten    --     64.6478                29.0856                 7.8330

                     79                     80                     81
                      A                      A                      A
 Frequencies --   3189.1351              3598.6413              3600.5394
 Red. masses --      1.0894                 1.0756                 1.0772
 Frc consts  --      6.5281                 8.2067                 8.2279
 IR Inten    --      5.9881                45.5153                37.8871

 - Thermochemistry -
 -------------------
 Temperature   298.150 Kelvin.  Pressure   1.00000 Atm.
 Atom     1 has atomic number  6 and mass  12.00000

 Molecular mass:   201.11134 amu.
 Principal axes and moments of inertia in atomic units:
                           1         2         3
     Eigenvalues --  1426.014076681.725246937.84266
           X            0.99986   0.01614  -0.00538
           Y           -0.01609   0.99983   0.00938
           Z            0.00553  -0.00929   0.99994
 This molecule is an asymmetric top.
 Rotational symmetry number  1.
 Warning -- assumption of classical behavior for rotation
           may cause significant error
 Rotational temperatures (Kelvin)      0.06074     0.01296     0.01248
 Rotational constants (GHZ):           1.26558     0.27010     0.26013
 Zero-point vibrational energy     640143.4 (Joules/Mol)
                                  152.99795 (Kcal/Mol)
 Warning -- explicit consideration of  22 degrees of freedom as
           vibrations may cause significant error
 Vibrational temperatures:     24.82    38.50    63.07    88.90    98.19
          (Kelvin)            106.94   147.80   208.87   227.98   265.34
                              343.52   348.74   380.42   391.06   416.64
                              486.94   542.32   576.69   673.79   744.94
                              800.13   850.64   981.89  1001.17  1062.09
                             1075.76  1095.87  1132.92  1186.80  1247.96
                             1269.96  1367.50  1386.66  1407.93  1439.24
                             1521.90  1564.17  1589.04  1649.73  1664.84
                             1670.08  1684.90  1709.93  1819.02  1853.62
                             1898.31  1924.22  1965.46  2001.65  2009.00
                             2028.24  2070.52  2079.74  2125.87  2154.47
                             2164.32  2167.84  2186.87  2189.57  2202.07
                             2209.50  2227.19  2231.19  2420.04  2580.46
                             2625.74  4371.93  4380.56  4389.01  4399.59
                             4425.57  4432.77  4446.97  4478.57  4480.95
                             4483.14  4495.66  4580.41  4588.45  5177.64
                             5180.37

 Zero-point correction=                           0.243818 (Hartree/Particle)
 Thermal correction to Energy=                    0.259727
 Thermal correction to Enthalpy=                  0.260671
 Thermal correction to Gibbs Free Energy=         0.197371
 Sum of electronic and zero-point Energies=           -703.592201
 Sum of electronic and thermal Energies=              -703.576292
 Sum of electronic and thermal Enthalpies=            -703.575348
 Sum of electronic and thermal Free Energies=         -703.638648

                     E (Thermal)             CV                S
                      KCal/Mol        Cal/Mol-Kelvin    Cal/Mol-Kelvin
 Total                  162.981             55.369            133.227
 Electronic               0.000              0.000              0.000
 Translational            0.889              2.981             41.801
 Rotational               0.889              2.981             32.558
 Vibrational            161.204             49.408             58.868
 Vibration     1          0.593              1.986              6.928
 Vibration     2          0.593              1.984              6.056
 Vibration     3          0.595              1.980              5.078
 Vibration     4          0.597              1.973              4.399
 Vibration     5          0.598              1.969              4.203
 Vibration     6          0.599              1.966              4.035
 Vibration     7          0.605              1.947              3.402
 Vibration     8          0.617              1.908              2.735
 Vibration     9          0.621              1.893              2.568
 Vibration    10          0.631              1.861              2.283
 Vibration    11          0.657              1.781              1.812
 Vibration    12          0.659              1.775              1.785
 Vibration    13          0.671              1.738              1.633
 Vibration    14          0.675              1.725              1.585
 Vibration    15          0.686              1.693              1.476
 Vibration    16          0.719              1.599              1.220
 Vibration    17          0.747              1.519              1.051
 Vibration    18          0.767              1.468              0.960
 Vibration    19          0.825              1.320              0.742
 Vibration    20          0.873              1.211              0.615
 Vibration    21          0.912              1.126              0.532
 Vibration    22          0.949              1.050              0.465

 Optimization completed.
    -- Stationary point found.
 Normal termination of Gaussian 16 at Thu Dec 10 10:18:19 2020.

 ----------------------------------------------------------------------
 # B3LYP/6-311++G(d,p) empiricaldispersion=gd3bj scf=xqc pop=npa geom=c
 heck
 ----------------------------------------------------------------------

 --------------------------------------
 CID_12483526_JID_4560_Energie_neutraal
 --------------------------------------
 Structure from the checkpoint file:  "JID_4560.chk"
 Charge =  0 Multiplicity = 1

 SCF Done:  E(RB3LYP) =  -704.050924453     A.U. after   15 cycles
 Normal termination of Gaussian 16 at Thu Dec 10 10:21:02 2020.

 ----------------------------------------------------------------------
 # B3LYP/6-311++G(d,p) empiricaldispersion=gd3bj scf=xqc pop=npa geom=c
 heck
 ----------------------------------------------------------------------

 ------------------------------------
 CID_12483526_JID_4560_Energie_kation
 ------------------------------------
 Structure from the checkpoint file:  "JID_4560.chk"
 Charge =  1 Multiplicity = 2

 SCF Done:  E(UB3LYP) =  -703.715105164     A.U. after   31 cycles
 Normal termination of Gaussian 16 at Thu Dec 10 10:29:43 2020.
 Gaussian 16:  ES64L-G16RevA.03 25-Dec-2016

 ----------------------------------------------------------------------
 # B3LYP/6-311++G(d,p) empiricaldispersion=gd3bj scf=xqc pop=npa geom=c
 heck
 ----------------------------------------------------------------------

 -----------------------------------
 CID_12483526_JID_4560_Energie_anion
 -----------------------------------
 Structure from the checkpoint file:  "JID_4560.chk"
 Charge = -1 Multiplicity = 2

                         Standard orientation:
 ---------------------------------------------------------------------
 Center     Atomic      Atomic             Coordinates (Angstroms)
 Number     Number       Type             X           Y           Z
 ---------------------------------------------------------------------
      1          6           0        4.048097    0.882825    1.652874
      2          6           0        3.715171    1.417821    0.257010
      3          6           0        3.820407    0.365553   -0.856848
      4          6           0        2.886539   -0.821096   -0.681930
      5          8           0        1.539415   -0.303974   -0.621061
      6          6           0        0.580158   -1.204208   -0.354684
      7          8           0        0.777562   -2.393895   -0.187934
      8          6           0       -0.781693   -0.624559   -0.266773
      9          7           0       -0.957955    0.637367   -0.426335
     10          7           0       -2.186843    1.210374   -0.332924
     11          6           0       -3.475820    0.600883   -0.329027
     12          8           0       -4.341707    1.003351   -1.087646
     13          7           0       -3.657910   -0.407738    0.578931
     14          6           0       -3.009099   -0.485902    1.885904
     15          1           0        3.326890    0.124865    1.978500
     16          1           0        4.031678    1.688358    2.395109
     17          1           0        5.045676    0.426462    1.677824
     18          1           0        2.700583    1.832155    0.254560
     19          1           0        4.392978    2.245789    0.013601
     20          1           0        3.614183    0.837226   -1.825476
     21          1           0        4.845363   -0.027698   -0.906540
     22          1           0        2.959005   -1.523060   -1.519049
     23          1           0        3.090084   -1.380922    0.235379
     24          1           0       -1.568543   -1.352505   -0.083094
     25          1           0       -2.207985    2.096945   -0.822085
     26          1           0       -4.596698   -0.783082    0.519958
     27          1           0       -3.721732   -0.238999    2.681043
     28          1           0       -2.608183   -1.488042    2.068321
     29          1           0       -2.189067    0.230726    1.928210
 ---------------------------------------------------------------------

 SCF Done:  E(UB3LYP) =  -704.058550070     A.U. after   33 cycles
 SCF Done:  E(UB3LYP) =  -704.058550070     a.u. after    1 cycles

 The electronic state is 2-A.
 Alpha  occ. eigenvalues --  -19.01481 -18.96052 -18.93636 -14.22238 -14.21418
 Alpha  occ. eigenvalues --  -14.17057 -10.16252 -10.12294 -10.10682 -10.08535
 Alpha  occ. eigenvalues --  -10.07265 -10.07150 -10.07046 -10.02686  -0.95400
 Alpha  occ. eigenvalues --   -0.92883  -0.85832  -0.85104  -0.80051  -0.70353
 Alpha  occ. eigenvalues --   -0.68123  -0.62928  -0.58865  -0.55889  -0.52657
 Alpha  occ. eigenvalues --   -0.49003  -0.46174  -0.42959  -0.39738  -0.38057
 Alpha  occ. eigenvalues --   -0.37779  -0.36578  -0.35728  -0.33287  -0.32693
 Alpha  occ. eigenvalues --   -0.32121  -0.31081  -0.30417  -0.29821  -0.29292
 Alpha  occ. eigenvalues --   -0.28052  -0.27555  -0.26807  -0.24966  -0.23788
 Alpha  occ. eigenvalues --   -0.23471  -0.22340  -0.21065  -0.17126  -0.16392
 Alpha  occ. eigenvalues --   -0.13780  -0.13067  -0.11397  -0.09776   0.04929
 Alpha virt. eigenvalues --    0.06726   0.07505   0.08730   0.09032   0.10303
 Alpha virt. eigenvalues --    0.10574   0.11366   0.11717   0.12098   0.12594
 Alpha virt. eigenvalues --    0.13429   0.14083   0.14457   0.14972   0.15608

  Beta  occ. eigenvalues --  -19.01427 -18.95924 -18.93286 -14.22270 -14.21389
  Beta  occ. eigenvalues --  -14.16306 -10.16143 -10.12108 -10.10685 -10.08491
  Beta  occ. eigenvalues --  -10.07265 -10.07150 -10.07045 -10.02558  -0.95163
  Beta  occ. eigenvalues --   -0.92631  -0.85318  -0.84445  -0.79897  -0.70315
  Beta  occ. eigenvalues --   -0.67599  -0.62870  -0.58762  -0.55688  -0.52222
  Beta  occ. eigenvalues --   -0.48871  -0.45933  -0.42832  -0.39431  -0.37969
  Beta  occ. eigenvalues --   -0.37609  -0.36394  -0.35658  -0.33118  -0.32468
  Beta  occ. eigenvalues --   -0.31948  -0.30819  -0.30270  -0.29589  -0.28707
  Beta  occ. eigenvalues --   -0.27855  -0.27388  -0.26170  -0.24883  -0.23552
  Beta  occ. eigenvalues --   -0.23152  -0.21081  -0.20753  -0.16769  -0.15371
  Beta  occ. eigenvalues --   -0.13372  -0.12579  -0.10673  -0.08471
  Beta virt. eigenvalues --    0.06676   0.08063   0.08680   0.08977   0.10304
  Beta virt. eigenvalues --    0.10631   0.11248   0.11783   0.11898   0.12102
  Beta virt. eigenvalues --    0.12604   0.13345   0.13998   0.14398   0.15390

 Mulliken charges and spin densities:
               1          2
     1  C   -0.527336  -0.035324
     2  C   -0.110852   0.009468
     3  C   -0.458605   0.008356
     4  C   -0.093454  -0.009240
     5  O    0.032252   0.003584
     6  C   -0.468954   0.109316
     7  O   -0.360843   0.103441
     8  C    0.187774   0.122046
     9  N   -0.118024   0.305896
    10  N   -0.332278  -0.013219
    11  C    0.067135   0.160817
    12  O   -0.417770   0.041334
    13  N   -0.318108   0.041787
    14  C    0.279579  -0.656683
    15  H    0.159702   0.013504
    16  H    0.110505   0.013255
    17  H    0.104898   0.005962
    18  H    0.173037  -0.002554
    19  H    0.113230   0.001772
    20  H    0.153506   0.001759
    21  H    0.107707   0.001134
    22  H    0.166903   0.000280
    23  H    0.179959  -0.001260
    24  H    0.107186  -0.022005
    25  H    0.301547   0.002862
    26  H    0.221918   0.068843
    27  H   -0.485625   0.634123
    28  H    0.099707   0.054509
    29  H    0.125305   0.036237
 Sum of Mulliken charges =  -1.00000   1.00000

 Dipole moment (field-independent basis, Debye):
    X=              6.8892    Y=              1.8621    Z=              0.4150  Tot=              7.1485
 Quadrupole moment (field-independent basis, Debye-Ang):
   XX=           -133.2231   YY=           -106.2421   ZZ=           -104.8372
   XY=             10.0203   XZ=             -1.8374   YZ=              1.0974

 Summary of Natural Population Analysis:

                                       Natural Population
                Natural  -----------------------------------------------
    Atom  No    Charge         Core      Valence    Rydberg      Total
 -----------------------------------------------------------------------
      C    1   -0.28864      0.99967     2.28430    0.00467     3.28864
      C    2   -0.19363      0.99964     2.18697    0.00701     3.19363
      C    3   -0.19572      0.99963     2.18871    0.00738     3.19572
      C    4   -0.01625      0.99958     2.00574    0.01094     3.01625
      O    5   -0.28338      0.99985     3.27288    0.01064     4.28338
      C    6    0.40176      0.99969     1.57466    0.02389     2.59824
      O    7   -0.29950      0.99988     3.29355    0.00608     4.29950
      C    8   -0.03639      0.99959     2.02333    0.01347     3.03639
      N    9   -0.01502      0.99965     2.50214    0.01322     3.51502
      N   10   -0.24758      0.99969     2.73322    0.01467     3.74758
      C   11    0.41220      0.99970     1.56249    0.02560     2.58780
      O   12   -0.32642      0.99987     3.32090    0.00564     4.32642
      N   13   -0.32659      0.99967     2.81708    0.00984     3.82659
      C   14   -0.18398      0.99965     2.17514    0.00920     3.18398
      H   15    0.10179      0.00000     0.39681    0.00140     0.39821
      H   16    0.09567      0.00000     0.40352    0.00080     0.40433
      H   17    0.08946      0.00000     0.40960    0.00094     0.41054
      H   18    0.10926      0.00000     0.38957    0.00116     0.39074
      H   19    0.08715      0.00000     0.41165    0.00120     0.41285
      H   20    0.09847      0.00000     0.40040    0.00113     0.40153
      H   21    0.08956      0.00000     0.40938    0.00106     0.41044
      H   22    0.08765      0.00000     0.41097    0.00137     0.41235
      H   23    0.08794      0.00000     0.41065    0.00141     0.41206
      H   24    0.08125      0.00000     0.41632    0.00244     0.41875
      H   25    0.18761      0.00000     0.31068    0.00172     0.31239
      H   26    0.18747      0.00000     0.30987    0.00265     0.31253
      H   27    0.09057      0.00000     0.40686    0.00257     0.40943
      H   28    0.09430      0.00000     0.40453    0.00116     0.40570
      H   29    0.11097      0.00000     0.38763    0.00140     0.38903
 =======================================================================
   * Total *   -0.00000     13.99576    39.81956    0.18468    54.00000

 Normal termination of Gaussian 16 at Thu Dec 10 10:41:03 2020.
