 Gaussian 16, Revision A.03,

 -----------------------------------------------------------
 # opt freq B3LYP/6-31G(d) empiricaldispersion=gd3bj scf=xqc
 -----------------------------------------------------------

 -------------------------------
 CID_130876442_JID_3911_neutraal
 -------------------------------
 Symbolic Z-matrix:
 Charge =  0 Multiplicity = 1

 SCF Done:  E(RB3LYP) =  -898.361875487     A.U. after   15 cycles
 SCF Done:  E(RB3LYP) =  -898.371705801     A.U. after   11 cycles
 SCF Done:  E(RB3LYP) =  -898.373126652     A.U. after   12 cycles
 SCF Done:  E(RB3LYP) =  -898.374029090     A.U. after   12 cycles
 SCF Done:  E(RB3LYP) =  -898.375224762     A.U. after   12 cycles
 SCF Done:  E(RB3LYP) =  -898.375988609     A.U. after   12 cycles
 SCF Done:  E(RB3LYP) =  -898.377407179     A.U. after   12 cycles
 SCF Done:  E(RB3LYP) =  -898.379298787     A.U. after   13 cycles
 SCF Done:  E(RB3LYP) =  -898.379686135     A.U. after   12 cycles
 SCF Done:  E(RB3LYP) =  -898.380008274     A.U. after   12 cycles
 SCF Done:  E(RB3LYP) =  -898.380296461     A.U. after    8 cycles
 SCF Done:  E(RB3LYP) =  -898.380301094     A.U. after    9 cycles
 SCF Done:  E(RB3LYP) =  -898.380304815     A.U. after    9 cycles
 SCF Done:  E(RB3LYP) =  -898.380307816     A.U. after    9 cycles
 SCF Done:  E(RB3LYP) =  -898.380308034     A.U. after    7 cycles
 Optimization completed.
    -- Stationary point found.
 Normal termination of Gaussian 16 at Mon Dec 14 13:14:13 2020.

 --------------------------------------------------------------------
 #N Geom=AllCheck Guess=TCheck SCRF=Check GenChk RB3LYP/6-31G(d) Freq
 --------------------------------------------------------------------

 Structure from the checkpoint file:  "JID_3911.chk"
 -------------------------------
 CID_130876442_JID_3911_neutraal
 -------------------------------
 Charge =  0 Multiplicity = 1

 SCF Done:  E(RB3LYP) =  -898.380308034     A.U. after    1 cycles

  Exact polarizability: 173.307  -2.567 132.835  -0.645  -2.473  91.775
 Approx polarizability: 227.109  -5.628 214.898  -0.964  -4.443 139.452

                      1                      2                      3
                      A                      A                      A
 Frequencies --     30.9614                35.0293                69.1245
 Red. masses --      3.8909                 3.7680                 1.5462
 Frc consts  --      0.0022                 0.0027                 0.0044
 IR Inten    --      0.4195                 0.1622                 0.5151

                      4                      5                      6
                      A                      A                      A
 Frequencies --     80.8074                99.2390               132.4272
 Red. masses --      1.6765                 3.2307                 3.0462
 Frc consts  --      0.0064                 0.0187                 0.0315
 IR Inten    --      0.3516                 0.6802                 0.8402

                      7                      8                      9
                      A                      A                      A
 Frequencies --    185.6423               217.9288               233.7369
 Red. masses --      3.0810                 3.2871                 2.4016
 Frc consts  --      0.0626                 0.0920                 0.0773
 IR Inten    --      0.2899                 1.6225                 0.7366

                     10                     11                     12
                      A                      A                      A
 Frequencies --    242.0875               280.6541               324.4160
 Red. masses --      1.2259                 3.3104                 2.8337
 Frc consts  --      0.0423                 0.1536                 0.1757
 IR Inten    --      0.3707                 3.3648                 2.0083

                     13                     14                     15
                      A                      A                      A
 Frequencies --    327.6792               385.0421               442.4259
 Red. masses --      2.7515                 2.4369                 2.5710
 Frc consts  --      0.1741                 0.2129                 0.2965
 IR Inten    --      1.4464                 5.1242                 1.8797

                     16                     17                     18
                      A                      A                      A
 Frequencies --    460.6357               495.5302               552.7864
 Red. masses --      3.0119                 4.7301                 4.6675
 Frc consts  --      0.3765                 0.6843                 0.8403
 IR Inten    --      2.8147                 3.0409                 1.2968

                     19                     20                     21
                      A                      A                      A
 Frequencies --    616.4133               656.7519               692.8216
 Red. masses --      2.9170                 4.6936                 4.4081
 Frc consts  --      0.6530                 1.1928                 1.2467
 IR Inten    --      6.9754                 0.5313                 1.2525

                     22                     23                     24
                      A                      A                      A
 Frequencies --    716.9129               718.4822               781.6460
 Red. masses --      4.3840                 1.3032                 1.3628
 Frc consts  --      1.3275                 0.3964                 0.4906
 IR Inten    --     13.2198                36.0074                65.0978

                     25                     26                     27
                      A                      A                      A
 Frequencies --    837.7761               879.0305               884.3789
 Red. masses --      4.7973                 2.5662                 1.2615
 Frc consts  --      1.9838                 1.1683                 0.5813
 IR Inten    --      7.3645                 6.4499                 0.8523

                     28                     29                     30
                      A                      A                      A
 Frequencies --    896.3037               926.7590               950.0892
 Red. masses --      1.5432                 3.6711                 2.6261
 Frc consts  --      0.7304                 1.8577                 1.3967
 IR Inten    --      1.3251                12.7913                 2.2301

                     31                     32                     33
                      A                      A                      A
 Frequencies --    993.7036              1012.6912              1028.6714
 Red. masses --      1.6443                 2.2297                 2.3045
 Frc consts  --      0.9567                 1.3472                 1.4367
 IR Inten    --      1.7180                16.3732                 8.7283

                     34                     35                     36
                      A                      A                      A
 Frequencies --   1053.9342              1070.7237              1082.8805
 Red. masses --      1.8899                 1.4730                 1.8355
 Frc consts  --      1.2368                 0.9950                 1.2682
 IR Inten    --     14.4699                 2.8525                 1.7558

                     37                     38                     39
                      A                      A                      A
 Frequencies --   1122.2972              1127.6549              1141.8016
 Red. masses --      1.3302                 1.5535                 1.7625
 Frc consts  --      0.9872                 1.1639                 1.3538
 IR Inten    --      1.1421                 6.8891                11.1908

                     40                     41                     42
                      A                      A                      A
 Frequencies --   1157.0254              1193.1158              1206.3210
 Red. masses --      1.1360                 1.9429                 2.3205
 Frc consts  --      0.8960                 1.6296                 1.9896
 IR Inten    --      5.0702                 9.0466                11.2299

                     43                     44                     45
                      A                      A                      A
 Frequencies --   1216.5265              1235.3124              1256.9452
 Red. masses --      1.5632                 1.7940                 1.9352
 Frc consts  --      1.3631                 1.6130                 1.8014
 IR Inten    --      8.4407                 7.9436                44.7916

                     46                     47                     48
                      A                      A                      A
 Frequencies --   1263.8952              1265.4764              1301.8237
 Red. masses --      1.8793                 1.9031                 1.4180
 Frc consts  --      1.7688                 1.7956                 1.4159
 IR Inten    --     12.8292                 2.0382                 4.2393

                     49                     50                     51
                      A                      A                      A
 Frequencies --   1319.5123              1363.9784              1382.7727
 Red. masses --      1.5593                 1.5991                 1.4817
 Frc consts  --      1.5995                 1.7529                 1.6692
 IR Inten    --      1.2786                55.6921                39.7371

                     52                     53                     54
                      A                      A                      A
 Frequencies --   1416.9932              1417.5614              1446.2671
 Red. masses --      1.6886                 2.3663                 1.3254
 Frc consts  --      1.9976                 2.8016                 1.6333
 IR Inten    --     28.2936                 6.1819                 0.6369

                     55                     56                     57
                      A                      A                      A
 Frequencies --   1475.7312              1498.4979              1504.6540
 Red. masses --      1.1773                 1.2586                 3.0111
 Frc consts  --      1.5105                 1.6652                 4.0166
 IR Inten    --      7.3484                29.4058                 5.6803

                     58                     59                     60
                      A                      A                      A
 Frequencies --   1514.6530              1517.3459              1519.7178
 Red. masses --      1.0581                 1.0596                 1.0858
 Frc consts  --      1.4302                 1.4373                 1.4775
 IR Inten    --     19.4424                 4.6695                 1.3892

                     61                     62                     63
                      A                      A                      A
 Frequencies --   1526.6743              1527.3562              1537.1199
 Red. masses --      1.3120                 1.0512                 1.0785
 Frc consts  --      1.8017                 1.4448                 1.5014
 IR Inten    --      4.7454                 2.4132                 5.8264

                     64                     65                     66
                      A                      A                      A
 Frequencies --   1549.0519              1628.1323              2918.5721
 Red. masses --      1.1241                 5.9491                 1.0623
 Frc consts  --      1.5892                 9.2913                 5.3314
 IR Inten    --      5.7006                 1.4217               104.0172

                     67                     68                     69
                      A                      A                      A
 Frequencies --   2943.9792              2968.4043              2975.2178
 Red. masses --      1.0729                 1.0801                 1.0662
 Frc consts  --      5.4788                 5.6072                 5.5607
 IR Inten    --     61.4007                15.6771                75.8747

                     70                     71                     72
                      A                      A                      A
 Frequencies --   2993.6619              3032.8402              3041.1901
 Red. masses --      1.0752                 1.0854                 1.0406
 Frc consts  --      5.6773                 5.8824                 5.6707
 IR Inten    --    149.8756                27.2450                39.9193

                     73                     74                     75
                      A                      A                      A
 Frequencies --   3067.1380              3071.9853              3080.8377
 Red. masses --      1.0952                 1.0698                 1.0944
 Frc consts  --      6.0705                 5.9484                 6.1204
 IR Inten    --     44.9339                46.5161                49.5229

                     76                     77                     78
                      A                      A                      A
 Frequencies --   3095.0359              3115.3482              3125.5465
 Red. masses --      1.0967                 1.1041                 1.1007
 Frc consts  --      6.1895                 6.3133                 6.3354
 IR Inten    --     22.4201                25.5774                22.7575

                     79                     80                     81
                      A                      A                      A
 Frequencies --   3207.2400              3266.0403              3486.9794
 Red. masses --      1.0909                 1.0964                 1.0742
 Frc consts  --      6.6112                 6.8909                 7.6956
 IR Inten    --     13.3126                 2.3336                 0.2050

 - Thermochemistry -
 -------------------
 Temperature   298.150 Kelvin.  Pressure   1.00000 Atm.
 Atom     1 has atomic number  6 and mass  12.00000

 Molecular mass:   196.10342 amu.
 Principal axes and moments of inertia in atomic units:
                           1         2         3
     Eigenvalues --  1062.446105910.117786590.66387
           X            0.99994  -0.01105  -0.00122
           Y            0.01104   0.99991  -0.00714
           Z            0.00130   0.00712   0.99997
 This molecule is an asymmetric top.
 Rotational symmetry number  1.
 Warning -- assumption of classical behavior for rotation
           may cause significant error
 Rotational temperatures (Kelvin)      0.08152     0.01466     0.01314
 Rotational constants (GHZ):           1.69867     0.30536     0.27383
 Zero-point vibrational energy     654479.1 (Joules/Mol)
                                  156.42425 (Kcal/Mol)
 Warning -- explicit consideration of  19 degrees of freedom as
           vibrations may cause significant error
 Vibrational temperatures:     44.55    50.40    99.45   116.26   142.78
          (Kelvin)            190.53   267.10   313.55   336.30   348.31
                              403.80   466.76   471.46   553.99   636.55
                              662.75   712.96   795.34   886.88   944.92
                              996.82  1031.48  1033.74  1124.61  1205.37
                             1264.73  1272.42  1289.58  1333.40  1366.97
                             1429.72  1457.04  1480.03  1516.38  1540.53
                             1558.02  1614.74  1622.44  1642.80  1664.70
                             1716.63  1735.63  1750.31  1777.34  1808.46
                             1818.46  1820.74  1873.03  1898.48  1962.46
                             1989.50  2038.74  2039.55  2080.86  2123.25
                             2156.00  2164.86  2179.25  2183.12  2186.53
                             2196.54  2197.52  2211.57  2228.74  2342.52
                             4199.17  4235.73  4270.87  4280.67  4307.21
                             4363.58  4375.59  4412.93  4419.90  4432.64
                             4453.07  4482.29  4496.96  4614.50  4699.10
                             5016.99

 Zero-point correction=                           0.249278 (Hartree/Particle)
 Thermal correction to Energy=                    0.262953
 Thermal correction to Enthalpy=                  0.263897
 Thermal correction to Gibbs Free Energy=         0.207224
 Sum of electronic and zero-point Energies=           -898.131030
 Sum of electronic and thermal Energies=              -898.117355
 Sum of electronic and thermal Enthalpies=            -898.116411
 Sum of electronic and thermal Free Energies=         -898.173084

                     E (Thermal)             CV                S
                      KCal/Mol        Cal/Mol-Kelvin    Cal/Mol-Kelvin
 Total                  165.006             50.480            119.279
 Electronic               0.000              0.000              0.000
 Translational            0.889              2.981             41.725
 Rotational               0.889              2.981             32.093
 Vibrational            163.228             44.518             45.461
 Vibration     1          0.594              1.984              5.767
 Vibration     2          0.594              1.982              5.522
 Vibration     3          0.598              1.969              4.178
 Vibration     4          0.600              1.962              3.871
 Vibration     5          0.604              1.950              3.469
 Vibration     6          0.613              1.921              2.910
 Vibration     7          0.632              1.859              2.271
 Vibration     8          0.646              1.814              1.976
 Vibration     9          0.654              1.789              1.850
 Vibration    10          0.658              1.776              1.787
 Vibration    11          0.680              1.709              1.530
 Vibration    12          0.709              1.627              1.288
 Vibration    13          0.711              1.620              1.272
 Vibration    14          0.754              1.502              1.019
 Vibration    15          0.802              1.378              0.819
 Vibration    16          0.818              1.337              0.764
 Vibration    17          0.851              1.260              0.669
 Vibration    18          0.908              1.134              0.538
 Vibration    19          0.976              0.997              0.422

 Optimization completed.
    -- Stationary point found.
 Normal termination of Gaussian 16 at Mon Dec 14 13:20:37 2020.

 ----------------------------------------------------------------------
 # B3LYP/6-311++G(d,p) empiricaldispersion=gd3bj scf=xqc pop=npa geom=c
 heck
 ----------------------------------------------------------------------

 ---------------------------------------
 CID_130876442_JID_3911_Energie_neutraal
 ---------------------------------------
 Structure from the checkpoint file:  "JID_3911.chk"
 Charge =  0 Multiplicity = 1

 SCF Done:  E(RB3LYP) =  -898.544270311     A.U. after   15 cycles
 Normal termination of Gaussian 16 at Mon Dec 14 13:23:31 2020.

 ----------------------------------------------------------------------
 # B3LYP/6-311++G(d,p) empiricaldispersion=gd3bj scf=xqc pop=npa geom=c
 heck
 ----------------------------------------------------------------------

 -------------------------------------
 CID_130876442_JID_3911_Energie_kation
 -------------------------------------
 Structure from the checkpoint file:  "JID_3911.chk"
 Charge =  1 Multiplicity = 2

 SCF Done:  E(UB3LYP) =  -898.269252432     A.U. after   28 cycles
 Normal termination of Gaussian 16 at Mon Dec 14 13:30:50 2020.
 Gaussian 16:  ES64L-G16RevA.03 25-Dec-2016

 ----------------------------------------------------------------------
 # B3LYP/6-311++G(d,p) empiricaldispersion=gd3bj scf=xqc pop=npa geom=c
 heck
 ----------------------------------------------------------------------

 ------------------------------------
 CID_130876442_JID_3911_Energie_anion
 ------------------------------------
 Structure from the checkpoint file:  "JID_3911.chk"
 Charge = -1 Multiplicity = 2

                         Standard orientation:
 ---------------------------------------------------------------------
 Center     Atomic      Atomic             Coordinates (Angstroms)
 Number     Number       Type             X           Y           Z
 ---------------------------------------------------------------------
      1          6           0       -3.317557    2.123423   -0.112901
      2          6           0       -2.924102    0.671152   -0.060885
      3          6           0       -1.634747    0.195847   -0.083767
      4         16           0       -1.589246   -1.552813   -0.036958
      5          6           0       -3.321873   -1.634370    0.005749
      6          6           0       -3.886861   -0.392188   -0.009382
      7          6           0       -0.342853    0.948594   -0.185730
      8          7           0        0.720468    0.254723    0.534184
      9          6           0        2.017077    0.894747    0.409810
     10          6           0        3.142884    0.113589    1.125062
     11          7           0        3.530695   -0.488363   -0.162645
     12          6           0        2.759630    0.528900   -0.900802
     13          6           0        4.937817   -0.625422   -0.455966
     14          1           0       -3.578076    2.433685   -1.133398
     15          1           0       -4.194505    2.312603    0.516232
     16          1           0       -2.512082    2.779888    0.230041
     17          1           0       -3.820074   -2.592777    0.063552
     18          1           0       -4.957888   -0.218471    0.024595
     19          1           0       -0.028799    1.022324   -1.236588
     20          1           0       -0.495121    1.988796    0.158994
     21          1           0        0.464594    0.177240    1.517425
     22          1           0        1.987525    1.974732    0.630891
     23          1           0        3.907212    0.789466    1.545410
     24          1           0        2.836177   -0.606239    1.894419
     25          1           0        2.152568    0.133016   -1.723228
     26          1           0        3.376079    1.366105   -1.270539
     27          1           0        5.499601    0.326992   -0.364585
     28          1           0        5.389119   -1.353106    0.228135
     29          1           0        5.066979   -0.999410   -1.477934
 ---------------------------------------------------------------------

 SCF Done:  E(UB3LYP) =  -898.529741394     A.U. after   33 cycles
 SCF Done:  E(UB3LYP) =  -898.529741394     a.u. after    1 cycles

 The electronic state is 2-A.
 Alpha  occ. eigenvalues --  -88.77294 -14.20549 -14.20448 -10.10650 -10.10349
 Alpha  occ. eigenvalues --  -10.10047 -10.09901 -10.09628 -10.09315 -10.09245
 Alpha  occ. eigenvalues --  -10.08356 -10.07754 -10.07078  -7.85884  -5.82170
 Alpha  occ. eigenvalues --   -5.81798  -5.81491  -0.85564  -0.81037  -0.77838
 Alpha  occ. eigenvalues --   -0.67312  -0.66704  -0.63683  -0.58974  -0.58249
 Alpha  occ. eigenvalues --   -0.55892  -0.53058  -0.46726  -0.45332  -0.42741
 Alpha  occ. eigenvalues --   -0.40955  -0.39825  -0.38821  -0.37723  -0.35153
 Alpha  occ. eigenvalues --   -0.34066  -0.33336  -0.32067  -0.30962  -0.29972
 Alpha  occ. eigenvalues --   -0.29688  -0.28383  -0.27413  -0.27056  -0.26255
 Alpha  occ. eigenvalues --   -0.25815  -0.24458  -0.23759  -0.22333  -0.15145
 Alpha  occ. eigenvalues --   -0.14245  -0.13110  -0.11767   0.04370
 Alpha virt. eigenvalues --    0.06028   0.06857   0.07478   0.07568   0.08179
 Alpha virt. eigenvalues --    0.08676   0.09309   0.09494   0.10415   0.10571
 Alpha virt. eigenvalues --    0.10999   0.11400   0.12201   0.12597   0.13017

  Beta  occ. eigenvalues --  -88.77292 -14.20535 -14.20441 -10.10625 -10.10331
  Beta  occ. eigenvalues --  -10.10042 -10.09888 -10.09610 -10.09298 -10.09222
  Beta  occ. eigenvalues --  -10.08353 -10.07743 -10.07037  -7.85882  -5.82169
  Beta  occ. eigenvalues --   -5.81796  -5.81486  -0.85543  -0.81015  -0.77820
  Beta  occ. eigenvalues --   -0.67279  -0.66673  -0.63653  -0.58927  -0.58202
  Beta  occ. eigenvalues --   -0.55841  -0.52995  -0.46694  -0.45273  -0.42699
  Beta  occ. eigenvalues --   -0.40908  -0.39780  -0.38784  -0.37673  -0.35130
  Beta  occ. eigenvalues --   -0.34030  -0.33295  -0.32029  -0.30927  -0.29945
  Beta  occ. eigenvalues --   -0.29650  -0.28343  -0.27377  -0.27023  -0.26218
  Beta  occ. eigenvalues --   -0.25790  -0.24435  -0.23735  -0.22301  -0.15113
  Beta  occ. eigenvalues --   -0.14203  -0.13053  -0.11721
  Beta virt. eigenvalues --    0.06426   0.06708   0.07392   0.07663   0.08114
  Beta virt. eigenvalues --    0.08637   0.09156   0.09775   0.09842   0.10863
  Beta virt. eigenvalues --    0.11018   0.11333   0.11586   0.12275   0.12976

 Mulliken charges and spin densities:
               1          2
     1  C    2.474921  -3.513756
     2  C   -1.841721   2.152515
     3  C   -0.106222   0.854604
     4  S   -0.135816  -0.504697
     5  C   -0.120085   0.056159
     6  C   -0.373169   0.518236
     7  C    0.913750  -1.618522
     8  N    0.112752  -0.009339
     9  C   -1.232300   0.960093
    10  C    1.053082  -1.476828
    11  N   -0.095314   0.165598
    12  C    0.384331  -0.750611
    13  C    0.471098  -0.768373
    14  H   -0.059766   0.220491
    15  H   -0.213971   0.348613
    16  H   -0.786744   0.938775
    17  H    0.045220   0.173641
    18  H   -0.368111   0.523824
    19  H   -0.143675   0.301242
    20  H    0.516330  -0.393761
    21  H    0.099219   0.114767
    22  H   -0.933751   1.138328
    23  H   -0.164723   0.285454
    24  H    0.005751   0.138494
    25  H    0.027543   0.148436
    26  H   -0.136535   0.240546
    27  H   -0.235308   0.344474
    28  H   -0.116753   0.241997
    29  H   -0.040032   0.169598
 Sum of Mulliken charges =  -1.00000   1.00000

 Dipole moment (field-independent basis, Debye):
    X=             -1.6493    Y=             -5.5190    Z=             -0.5364  Tot=              5.7851
 Quadrupole moment (field-independent basis, Debye-Ang):
   XX=           -178.1505   YY=           -135.5850   ZZ=           -115.8829
   XY=              4.7418   XZ=             -0.4244   YZ=             -3.2272

 Summary of Natural Population Analysis:

                                       Natural Population
                Natural  -----------------------------------------------
    Atom  No    Charge         Core      Valence    Rydberg      Total
 -----------------------------------------------------------------------
      C    1   -0.29109      0.99963     2.28573    0.00573     3.29109
      C    2   -0.04597      0.99943     2.03489    0.01166     3.04597
      C    3   -0.09784      0.99943     2.08471    0.01369     3.09784
      S    4    0.21231      4.99942     2.76766    0.02062     7.78769
      C    5   -0.19829      0.99954     2.18776    0.01099     3.19829
      C    6   -0.12358      0.99949     2.11324    0.01085     3.12358
      C    7   -0.09955      0.99955     2.08822    0.01178     3.09955
      N    8   -0.33537      0.99972     2.82366    0.01199     3.83537
      C    9   -0.01850      0.99958     2.00419    0.01473     3.01850
      C   10   -0.07664      0.99963     2.06528    0.01173     3.07664
      N   11   -0.27892      0.99973     2.76669    0.01250     3.77892
      C   12   -0.07927      0.99963     2.06833    0.01132     3.07927
      C   13   -0.17546      0.99965     2.16737    0.00844     3.17546
      H   14    0.10458      0.00000     0.39430    0.00112     0.39542
      H   15    0.10392      0.00000     0.39471    0.00138     0.39608
      H   16    0.10738      0.00000     0.39074    0.00189     0.39262
      H   17    0.10595      0.00000     0.39328    0.00078     0.39405
      H   18    0.10432      0.00000     0.39472    0.00095     0.39568
      H   19    0.09990      0.00000     0.39848    0.00163     0.40010
      H   20    0.09348      0.00000     0.40415    0.00237     0.40652
      H   21    0.17562      0.00000     0.32172    0.00267     0.32438
      H   22    0.08647      0.00000     0.41047    0.00306     0.41353
      H   23    0.08721      0.00000     0.41121    0.00159     0.41279
      H   24    0.09228      0.00000     0.40629    0.00143     0.40772
      H   25    0.09424      0.00000     0.40416    0.00161     0.40576
      H   26    0.08605      0.00000     0.41237    0.00158     0.41395
      H   27    0.07931      0.00000     0.41882    0.00187     0.42069
      H   28    0.09360      0.00000     0.40534    0.00107     0.40640
      H   29    0.09389      0.00000     0.40511    0.00100     0.40611
 =======================================================================
   * Total *   -0.00000     16.99443    35.82359    0.18198    53.00000

 Normal termination of Gaussian 16 at Mon Dec 14 13:39:21 2020.
