 Gaussian 16, Revision A.03,

 -----------------------------------------------------------
 # opt freq B3LYP/6-31G(d) empiricaldispersion=gd3bj scf=xqc
 -----------------------------------------------------------

 ------------------------------
 CID_18545133_JID_4600_neutraal
 ------------------------------
 Symbolic Z-matrix:
 Charge =  0 Multiplicity = 1

 SCF Done:  E(RB3LYP) =  -653.297459535     A.U. after   16 cycles
 SCF Done:  E(RB3LYP) =  -653.304620979     A.U. after   14 cycles
 SCF Done:  E(RB3LYP) =  -653.305353159     A.U. after   13 cycles
 SCF Done:  E(RB3LYP) =  -653.306536061     A.U. after   14 cycles
 SCF Done:  E(RB3LYP) =  -653.307314975     A.U. after   13 cycles
 SCF Done:  E(RB3LYP) =  -653.307900798     A.U. after   14 cycles
 SCF Done:  E(RB3LYP) =  -653.308704684     A.U. after   13 cycles
 SCF Done:  E(RB3LYP) =  -653.309089556     A.U. after   13 cycles
 SCF Done:  E(RB3LYP) =  -653.309629462     A.U. after   14 cycles
 SCF Done:  E(RB3LYP) =  -653.309900105     A.U. after   14 cycles
 SCF Done:  E(RB3LYP) =  -653.315126252     A.U. after    8 cycles
 SCF Done:  E(RB3LYP) =  -653.315126691     A.U. after    8 cycles
 SCF Done:  E(RB3LYP) =  -653.315126824     A.U. after    9 cycles
 SCF Done:  E(RB3LYP) =  -653.315126847     A.U. after    7 cycles
 SCF Done:  E(RB3LYP) =  -653.315126866     A.U. after    7 cycles
 SCF Done:  E(RB3LYP) =  -653.315126873     A.U. after    8 cycles
 Optimization completed.
    -- Stationary point found.
 Normal termination of Gaussian 16 at Thu Dec 10 10:37:11 2020.

 --------------------------------------------------------------------
 #N Geom=AllCheck Guess=TCheck SCRF=Check GenChk RB3LYP/6-31G(d) Freq
 --------------------------------------------------------------------

 Structure from the checkpoint file:  "JID_4600.chk"
 ------------------------------
 CID_18545133_JID_4600_neutraal
 ------------------------------
 Charge =  0 Multiplicity = 1

 SCF Done:  E(RB3LYP) =  -653.315126873     A.U. after    1 cycles

  Exact polarizability: 142.653  -2.934 124.353   5.698  -2.075  88.920
 Approx polarizability: 216.466 -15.536 177.573  20.207  -9.177 141.235

                      1                      2                      3
                      A                      A                      A
 Frequencies --     23.6816                49.7099                61.3626
 Red. masses --      4.5339                 2.2210                 3.7249
 Frc consts  --      0.0015                 0.0032                 0.0083
 IR Inten    --      1.9502                 0.2535                 1.5422

                      4                      5                      6
                      A                      A                      A
 Frequencies --     70.3788                80.6235                96.6193
 Red. masses --      4.1878                 2.3227                 2.3194
 Frc consts  --      0.0122                 0.0089                 0.0128
 IR Inten    --      4.5344                 3.9674                 0.7875

                      7                      8                      9
                      A                      A                      A
 Frequencies --    129.8595               157.7143               192.3280
 Red. masses --      2.6424                 2.9930                 3.5483
 Frc consts  --      0.0263                 0.0439                 0.0773
 IR Inten    --      2.3569                 0.7988                 6.9110

                     10                     11                     12
                      A                      A                      A
 Frequencies --    203.6918               231.9913               250.4572
 Red. masses --      1.3453                 1.4261                 2.1422
 Frc consts  --      0.0329                 0.0452                 0.0792
 IR Inten    --      1.3601                 0.1020                 2.0230

                     13                     14                     15
                      A                      A                      A
 Frequencies --    278.1915               322.0775               349.9541
 Red. masses --      4.7503                 6.5659                 4.6164
 Frc consts  --      0.2166                 0.4013                 0.3331
 IR Inten    --     11.7645                11.5695                 1.0534

                     16                     17                     18
                      A                      A                      A
 Frequencies --    375.4447               397.8554               523.8271
 Red. masses --      5.0657                 4.5642                 2.2163
 Frc consts  --      0.4207                 0.4257                 0.3583
 IR Inten    --      3.0987                 2.8594                 0.3275

                     19                     20                     21
                      A                      A                      A
 Frequencies --    534.1517               576.3931               592.4245
 Red. masses --      3.4288                 3.6546                 4.5042
 Frc consts  --      0.5764                 0.7154                 0.9314
 IR Inten    --     14.5670                 8.7265                10.6410

                     22                     23                     24
                      A                      A                      A
 Frequencies --    605.9863               647.0017               673.1664
 Red. masses --      2.6550                 2.1159                 5.8821
 Frc consts  --      0.5744                 0.5219                 1.5705
 IR Inten    --      1.1808                 0.5352                14.1421

                     25                     26                     27
                      A                      A                      A
 Frequencies --    717.9940               796.2035               811.5535
 Red. masses --      3.5974                 1.5087                 1.4846
 Frc consts  --      1.0926                 0.5635                 0.5761
 IR Inten    --      5.3777                18.1651                 3.0345

                     28                     29                     30
                      A                      A                      A
 Frequencies --    844.6070               868.8887               936.7687
 Red. masses --      1.9049                 3.8821                 2.7644
 Frc consts  --      0.8006                 1.7268                 1.4293
 IR Inten    --     14.6550                19.2949                40.8642

                     31                     32                     33
                      A                      A                      A
 Frequencies --    987.6487              1006.5424              1013.4216
 Red. masses --      2.4701                 2.1772                 2.2089
 Frc consts  --      1.4196                 1.2996                 1.3366
 IR Inten    --     18.2444                 1.3395                 2.9168

                     34                     35                     36
                      A                      A                      A
 Frequencies --   1024.5822              1047.8218              1085.2272
 Red. masses --      2.6780                 2.2160                 2.1181
 Frc consts  --      1.6563                 1.4335                 1.4697
 IR Inten    --      8.4063                 2.6381                 9.9947

                     37                     38                     39
                      A                      A                      A
 Frequencies --   1094.4837              1102.0255              1119.0358
 Red. masses --      2.1950                 1.7165                 2.1548
 Frc consts  --      1.5492                 1.2282                 1.5898
 IR Inten    --     21.6549                 0.3056                11.2303

                     40                     41                     42
                      A                      A                      A
 Frequencies --   1167.6857              1169.9025              1228.8504
 Red. masses --      2.9657                 1.3012                 3.4312
 Frc consts  --      2.3825                 1.0493                 3.0528
 IR Inten    --     65.1060                 3.1276               148.5926

                     43                     44                     45
                      A                      A                      A
 Frequencies --   1242.9914              1287.7434              1289.0910
 Red. masses --      1.2161                 1.5452                 1.1794
 Frc consts  --      1.1070                 1.5097                 1.1547
 IR Inten    --     23.2457                 2.3555                 0.1732

                     46                     47                     48
                      A                      A                      A
 Frequencies --   1299.8853              1324.7269              1349.4614
 Red. masses --      1.1991                 2.5160                 2.8466
 Frc consts  --      1.1938                 2.6015                 3.0542
 IR Inten    --      6.9030                37.8558                13.3595

                     49                     50                     51
                      A                      A                      A
 Frequencies --   1361.0314              1413.3262              1442.8627
 Red. masses --      1.5191                 1.9738                 1.2376
 Frc consts  --      1.6580                 2.3229                 1.5180
 IR Inten    --      2.2292                34.9196                 5.6935

                     52                     53                     54
                      A                      A                      A
 Frequencies --   1443.6099              1457.8394              1477.1176
 Red. masses --      1.2451                 1.1115                 1.0815
 Frc consts  --      1.5288                 1.3919                 1.3903
 IR Inten    --      8.8118                12.0692                 3.4945

                     55                     56                     57
                      A                      A                      A
 Frequencies --   1477.9573              1502.9921              1524.7903
 Red. masses --      1.0795                 1.1083                 1.0393
 Frc consts  --      1.3892                 1.4750                 1.4236
 IR Inten    --      8.4527                24.8575                 6.5358

                     58                     59                     60
                      A                      A                      A
 Frequencies --   1528.4659              1528.8367              1536.0515
 Red. masses --      1.0480                 1.0501                 1.0426
 Frc consts  --      1.4426                 1.4461                 1.4493
 IR Inten    --     12.6697                 2.5028                 9.7452

                     61                     62                     63
                      A                      A                      A
 Frequencies --   1648.4356              1761.1699              1782.7059
 Red. masses --      9.1983                10.9892                12.5740
 Frc consts  --     14.7265                20.0825                23.5442
 IR Inten    --    105.6246                95.8689               139.1864

                     64                     65                     66
                      A                      A                      A
 Frequencies --   1810.1068              3052.3819              3055.0813
 Red. masses --     12.7346                 1.0634                 1.0632
 Frc consts  --     24.5836                 5.8374                 5.8468
 IR Inten    --    292.4059                10.5742                12.6291

                     67                     68                     69
                      A                      A                      A
 Frequencies --   3057.2186              3065.8868              3066.9927
 Red. masses --      1.0408                 1.0643                 1.0353
 Frc consts  --      5.7313                 5.8945                 5.7380
 IR Inten    --     21.1340                10.3987                25.3378

                     70                     71                     72
                      A                      A                      A
 Frequencies --   3077.3519              3084.3405              3089.5488
 Red. masses --      1.0978                 1.0631                 1.0976
 Frc consts  --      6.1253                 5.9587                 6.1726
 IR Inten    --      2.1782                 7.1201                 2.3300

                     73                     74                     75
                      A                      A                      A
 Frequencies --   3109.9773              3124.5469              3125.7516
 Red. masses --      1.0965                 1.0993                 1.1037
 Frc consts  --      6.2487                 6.3234                 6.3534
 IR Inten    --      9.5482                18.8516                 5.2065

                     76                     77                     78
                      A                      A                      A
 Frequencies --   3136.1547              3139.7197              3147.0488
 Red. masses --      1.1031                 1.1025                 1.1014
 Frc consts  --      6.3925                 6.4035                 6.4271
 IR Inten    --     24.1240                22.2197                26.5046

 - Thermochemistry -
 -------------------
 Temperature   298.150 Kelvin.  Pressure   1.00000 Atm.
 Atom     1 has atomic number  6 and mass  12.00000

 Molecular mass:   194.09429 amu.
 Principal axes and moments of inertia in atomic units:
                           1         2         3
     Eigenvalues --  2270.856912914.444934307.76573
           X            0.99563   0.09029  -0.02379
           Y           -0.08976   0.99571   0.02244
           Z            0.02571  -0.02020   0.99947
 This molecule is an asymmetric top.
 Rotational symmetry number  1.
 Warning -- assumption of classical behavior for rotation
           may cause significant error
 Rotational temperatures (Kelvin)      0.03814     0.02972     0.02011
 Rotational constants (GHZ):           0.79474     0.61924     0.41895
 Zero-point vibrational energy     605737.1 (Joules/Mol)
                                  144.77464 (Kcal/Mol)
 Warning -- explicit consideration of  22 degrees of freedom as
           vibrations may cause significant error
 Vibrational temperatures:     34.07    71.52    88.29   101.26   116.00
          (Kelvin)            139.01   186.84   226.92   276.72   293.07
                              333.78   360.35   400.26   463.40   503.51
                              540.18   572.43   753.67   768.53   829.30
                              852.37   871.88   930.89   968.54  1033.03
                             1145.56  1167.64  1215.20  1250.14  1347.80
                             1421.01  1448.19  1458.09  1474.15  1507.58
                             1561.40  1574.72  1585.57  1610.04  1680.04
                             1683.23  1768.04  1788.39  1852.78  1854.71
                             1870.24  1905.99  1941.57  1958.22  2033.46
                             2075.96  2077.03  2097.51  2125.24  2126.45
                             2162.47  2193.83  2199.12  2199.65  2210.04
                             2371.73  2533.93  2564.92  2604.34  4391.70
                             4395.58  4398.66  4411.13  4412.72  4427.62
                             4437.68  4445.17  4474.56  4495.53  4497.26
                             4512.23  4517.36  4527.90

 Zero-point correction=                           0.230713 (Hartree/Particle)
 Thermal correction to Energy=                    0.245737
 Thermal correction to Enthalpy=                  0.246682
 Thermal correction to Gibbs Free Energy=         0.187026
 Sum of electronic and zero-point Energies=           -653.084414
 Sum of electronic and thermal Energies=              -653.069389
 Sum of electronic and thermal Enthalpies=            -653.068445
 Sum of electronic and thermal Free Energies=         -653.128101

                     E (Thermal)             CV                S
                      KCal/Mol        Cal/Mol-Kelvin    Cal/Mol-Kelvin
 Total                  154.203             53.331            125.556
 Electronic               0.000              0.000              0.000
 Translational            0.889              2.981             41.695
 Rotational               0.889              2.981             31.722
 Vibrational            152.425             47.370             52.139
 Vibration     1          0.593              1.985              6.299
 Vibration     2          0.595              1.978              4.829
 Vibration     3          0.597              1.973              4.413
 Vibration     4          0.598              1.968              4.143
 Vibration     5          0.600              1.962              3.876
 Vibration     6          0.603              1.952              3.521
 Vibration     7          0.612              1.923              2.948
 Vibration     8          0.621              1.894              2.577
 Vibration     9          0.634              1.850              2.205
 Vibration    10          0.639              1.835              2.099
 Vibration    11          0.653              1.792              1.863
 Vibration    12          0.663              1.762              1.727
 Vibration    13          0.679              1.714              1.545
 Vibration    14          0.707              1.631              1.300
 Vibration    15          0.727              1.575              1.166
 Vibration    16          0.746              1.522              1.057
 Vibration    17          0.764              1.475              0.971
 Vibration    18          0.879              1.197              0.601
 Vibration    19          0.889              1.174              0.578
 Vibration    20          0.933              1.082              0.492
 Vibration    21          0.950              1.048              0.463
 Vibration    22          0.965              1.019              0.439

 Optimization completed on the basis of negligible forces.
    -- Stationary point found.
 Normal termination of Gaussian 16 at Thu Dec 10 10:44:52 2020.

 ----------------------------------------------------------------------
 # B3LYP/6-311++G(d,p) empiricaldispersion=gd3bj scf=xqc pop=npa geom=c
 heck
 ----------------------------------------------------------------------

 --------------------------------------
 CID_18545133_JID_4600_Energie_neutraal
 --------------------------------------
 Structure from the checkpoint file:  "JID_4600.chk"
 Charge =  0 Multiplicity = 1

 SCF Done:  E(RB3LYP) =  -653.501246972     A.U. after   15 cycles
 Normal termination of Gaussian 16 at Thu Dec 10 10:48:13 2020.

 ----------------------------------------------------------------------
 # B3LYP/6-311++G(d,p) empiricaldispersion=gd3bj scf=xqc pop=npa geom=c
 heck
 ----------------------------------------------------------------------

 ------------------------------------
 CID_18545133_JID_4600_Energie_kation
 ------------------------------------
 Structure from the checkpoint file:  "JID_4600.chk"
 Charge =  1 Multiplicity = 2

 SCF Done:  E(UB3LYP) =  -653.174468621     A.U. after   24 cycles
 Normal termination of Gaussian 16 at Thu Dec 10 10:57:24 2020.
 Gaussian 16:  ES64L-G16RevA.03 25-Dec-2016

 ----------------------------------------------------------------------
 # B3LYP/6-311++G(d,p) empiricaldispersion=gd3bj scf=xqc pop=npa geom=c
 heck
 ----------------------------------------------------------------------

 -----------------------------------
 CID_18545133_JID_4600_Energie_anion
 -----------------------------------
 Structure from the checkpoint file:  "JID_4600.chk"
 Charge = -1 Multiplicity = 2

                         Standard orientation:
 ---------------------------------------------------------------------
 Center     Atomic      Atomic             Coordinates (Angstroms)
 Number     Number       Type             X           Y           Z
 ---------------------------------------------------------------------
      1          6           0        1.753376   -1.502017   -1.859856
      2          6           0        2.146006   -1.813957   -0.414563
      3          6           0        1.857431   -0.718372    0.595634
      4          8           0        2.351736   -0.705945    1.708942
      5          6           0        1.022215    0.476630    0.221065
      6          6           0       -0.323173    0.548069    0.085163
      7          6           0       -0.725700    1.959128   -0.173156
      8          8           0       -1.850388    2.380575   -0.367187
      9          6           0        0.549956    2.811455   -0.159457
     10          6           0        1.696723    1.823093    0.103047
     11          6           0       -1.220616   -0.635969    0.200408
     12          8           0       -0.732635   -1.735887    0.432616
     13          6           0       -2.709703   -0.440818    0.024414
     14          6           0       -3.500863   -1.737798    0.157880
     15          1           0        0.671541   -1.379195   -1.956789
     16          1           0        2.056848   -2.321603   -2.518395
     17          1           0        2.236548   -0.588593   -2.226670
     18          1           0        1.615798   -2.704038   -0.060597
     19          1           0        3.217747   -2.030778   -0.328828
     20          1           0        0.459975    3.576721    0.618246
     21          1           0        0.642572    3.336997   -1.115059
     22          1           0        2.444347    1.809231   -0.700651
     23          1           0        2.246377    2.022382    1.030640
     24          1           0       -3.036886    0.316113    0.749642
     25          1           0       -2.875680    0.044754   -0.946219
     26          1           0       -3.347675   -2.192155    1.141121
     27          1           0       -4.570264   -1.546192    0.026112
     28          1           0       -3.184856   -2.470247   -0.591003
 ---------------------------------------------------------------------

 SCF Done:  E(UB3LYP) =  -653.537258070     A.U. after   21 cycles

 The electronic state is 2-A.
 Alpha  occ. eigenvalues --  -18.95909 -18.94827 -18.94114 -10.10820 -10.09740
 Alpha  occ. eigenvalues --  -10.08931 -10.04370 -10.04323 -10.04298 -10.04295
 Alpha  occ. eigenvalues --  -10.03947 -10.03346 -10.01292 -10.00837  -0.89565
 Alpha  occ. eigenvalues --   -0.88618  -0.87857  -0.70366  -0.65110  -0.64295
 Alpha  occ. eigenvalues --   -0.59420  -0.55461  -0.52211  -0.51805  -0.45640
 Alpha  occ. eigenvalues --   -0.42475  -0.37994  -0.35643  -0.34465  -0.33174
 Alpha  occ. eigenvalues --   -0.32797  -0.32415  -0.31238  -0.30328  -0.28598
 Alpha  occ. eigenvalues --   -0.27201  -0.26484  -0.25891  -0.25483  -0.25266
 Alpha  occ. eigenvalues --   -0.24667  -0.24453  -0.23475  -0.23021  -0.22099
 Alpha  occ. eigenvalues --   -0.21363  -0.20521  -0.19743  -0.12414  -0.11311
 Alpha  occ. eigenvalues --   -0.10385  -0.08869   0.02669
 Alpha virt. eigenvalues --    0.08539   0.09110   0.09632   0.10841   0.11184
 Alpha virt. eigenvalues --    0.11533   0.11739   0.12341   0.12725   0.12964
 Alpha virt. eigenvalues --    0.12986   0.14264   0.14950   0.15369   0.15743

  Beta  occ. eigenvalues --  -18.95680 -18.94684 -18.93872 -10.10788 -10.09635
  Beta  occ. eigenvalues --  -10.08735 -10.04362 -10.04359 -10.04308 -10.04289
  Beta  occ. eigenvalues --  -10.03947 -10.03361 -10.00863 -10.00478  -0.89116
  Beta  occ. eigenvalues --   -0.88340  -0.87412  -0.69782  -0.65013  -0.64205
  Beta  occ. eigenvalues --   -0.59038  -0.54798  -0.52102  -0.51661  -0.45141
  Beta  occ. eigenvalues --   -0.42080  -0.37615  -0.35325  -0.34011  -0.33025
  Beta  occ. eigenvalues --   -0.32639  -0.32244  -0.30969  -0.30142  -0.28427
  Beta  occ. eigenvalues --   -0.27024  -0.26039  -0.25543  -0.25142  -0.24986
  Beta  occ. eigenvalues --   -0.24464  -0.23967  -0.23324  -0.22892  -0.21820
  Beta  occ. eigenvalues --   -0.20792  -0.19750  -0.19181  -0.11176  -0.10400
  Beta  occ. eigenvalues --   -0.09650  -0.08629
  Beta virt. eigenvalues --    0.08485   0.09080   0.09515   0.10138   0.10934
  Beta virt. eigenvalues --    0.11347   0.11914   0.12206   0.12558   0.12849
  Beta virt. eigenvalues --    0.13197   0.13664   0.14559   0.15037   0.15507

 Mulliken charges and spin densities:
               1          2
     1  C   -0.578995  -0.011187
     2  C   -0.208987  -0.005626
     3  C   -0.436639   0.011071
     4  O   -0.303027   0.058220
     5  C    1.188255   0.570611
     6  C    0.653231   0.035440
     7  C   -0.416246   0.031836
     8  O   -0.357465   0.052252
     9  C   -0.380168  -0.001906
    10  C   -0.589828  -0.032459
    11  C   -0.301157   0.120805
    12  O   -0.285581   0.085876
    13  C   -0.282273  -0.011328
    14  C   -0.736151   0.001460
    15  H    0.177350  -0.005255
    16  H    0.091650   0.016192
    17  H    0.117327   0.001832
    18  H    0.195182   0.016500
    19  H    0.145262  -0.003765
    20  H    0.133549   0.005294
    21  H    0.143724   0.002115
    22  H    0.109489   0.018506
    23  H    0.171296   0.026495
    24  H    0.163246   0.010880
    25  H    0.184587   0.006356
    26  H    0.151386  -0.000160
    27  H    0.110239  -0.000148
    28  H    0.140742   0.000093
 Sum of Mulliken charges =  -1.00000   1.00000

 Dipole moment (field-independent basis, Debye):
    X=              0.9103    Y=              0.0439    Z=             -2.9324  Tot=              3.0707
 Quadrupole moment (field-independent basis, Debye-Ang):
   XX=           -110.2093   YY=           -108.8248   ZZ=            -96.6349
   XY=              8.5480   XZ=             -8.9399   YZ=              5.5418

 Summary of Natural Population Analysis:

                                       Natural Population
                Natural  -----------------------------------------------
    Atom  No    Charge         Core      Valence    Rydberg      Total
 -----------------------------------------------------------------------
      C    1   -0.28559      0.99967     2.28195    0.00397     3.28559
      C    2   -0.23180      0.99959     2.22452    0.00769     3.23180
      C    3    0.29441      0.99960     1.68273    0.02327     2.70559
      O    4   -0.27537      0.99987     3.26790    0.00760     4.27537
      C    5    0.18829      0.99941     1.80041    0.01188     2.81171
      C    6   -0.15038      0.99931     2.13889    0.01218     3.15038
      C    7    0.29164      0.99962     1.68769    0.02105     2.70836
      O    8   -0.30900      0.99987     3.30090    0.00822     4.30900
      C    9   -0.23297      0.99961     2.22580    0.00756     3.23297
      C   10   -0.20710      0.99961     2.20131    0.00618     3.20710
      C   11    0.30638      0.99962     1.67434    0.01966     2.69362
      O   12   -0.29151      0.99988     3.28511    0.00651     4.29151
      C   13   -0.23525      0.99961     2.22876    0.00688     3.23525
      C   14   -0.28511      0.99968     2.28049    0.00494     3.28511
      H   15    0.10812      0.00000     0.39092    0.00095     0.39188
      H   16    0.09014      0.00000     0.40887    0.00099     0.40986
      H   17    0.09258      0.00000     0.40648    0.00094     0.40742
      H   18    0.11821      0.00000     0.37974    0.00205     0.38179
      H   19    0.09585      0.00000     0.40285    0.00130     0.40415
      H   20    0.10306      0.00000     0.39578    0.00116     0.39694
      H   21    0.10078      0.00000     0.39803    0.00120     0.39922
      H   22    0.09880      0.00000     0.39992    0.00127     0.40120
      H   23    0.11033      0.00000     0.38833    0.00135     0.38967
      H   24    0.11141      0.00000     0.38741    0.00118     0.38859
      H   25    0.11041      0.00000     0.38841    0.00118     0.38959
      H   26    0.09863      0.00000     0.40036    0.00101     0.40137
      H   27    0.08784      0.00000     0.41127    0.00088     0.41216
      H   28    0.09720      0.00000     0.40176    0.00104     0.40280
 =======================================================================
   * Total *    0.00000     13.99496    37.84094    0.16410    52.00000

 Normal termination of Gaussian 16 at Thu Dec 10 11:04:53 2020.
