 Gaussian 16, Revision A.03,

 -----------------------------------------------------------
 # opt freq B3LYP/6-31G(d) empiricaldispersion=gd3bj scf=xqc
 -----------------------------------------------------------

 -------------------------------
 CID_116584324_JID_8063_neutraal
 -------------------------------
 Symbolic Z-matrix:
 Charge =  0 Multiplicity = 1

 SCF Done:  E(RB3LYP) =  -752.347914586     A.U. after   15 cycles
 SCF Done:  E(RB3LYP) =  -752.352125618     A.U. after   14 cycles
 SCF Done:  E(RB3LYP) =  -752.346461997     A.U. after   14 cycles
 SCF Done:  E(RB3LYP) =  -752.353418458     A.U. after   13 cycles
 SCF Done:  E(RB3LYP) =  -752.352844318     A.U. after   12 cycles
 SCF Done:  E(RB3LYP) =  -752.355774239     A.U. after   13 cycles
 SCF Done:  E(RB3LYP) =  -752.356705851     A.U. after   13 cycles
 SCF Done:  E(RB3LYP) =  -752.357218729     A.U. after   12 cycles
 SCF Done:  E(RB3LYP) =  -752.357572736     A.U. after   13 cycles
 SCF Done:  E(RB3LYP) =  -752.357865634     A.U. after   11 cycles
 SCF Done:  E(RB3LYP) =  -752.358738834     A.U. after   11 cycles
 SCF Done:  E(RB3LYP) =  -752.358740882     A.U. after   10 cycles
 SCF Done:  E(RB3LYP) =  -752.358741127     A.U. after    8 cycles
 SCF Done:  E(RB3LYP) =  -752.358741223     A.U. after    8 cycles
 SCF Done:  E(RB3LYP) =  -752.358741253     A.U. after    6 cycles
 Optimization completed.
    -- Stationary point found.
 Normal termination of Gaussian 16 at Fri Dec 11 19:16:10 2020.

 --------------------------------------------------------------------
 #N Geom=AllCheck Guess=TCheck SCRF=Check GenChk RB3LYP/6-31G(d) Freq
 --------------------------------------------------------------------

 Structure from the checkpoint file:  "JID_8063.chk"
 -------------------------------
 CID_116584324_JID_8063_neutraal
 -------------------------------
 Charge =  0 Multiplicity = 1

 SCF Done:  E(RB3LYP) =  -752.358741253     A.U. after    2 cycles

  Exact polarizability: 175.265 -17.417 167.021 -19.647 -10.827 143.480
 Approx polarizability: 240.420 -27.978 255.827 -41.062 -21.894 241.456

                      1                      2                      3
                      A                      A                      A
 Frequencies --     18.6172                43.6002                61.5306
 Red. masses --      4.4489                 4.4687                 5.7642
 Frc consts  --      0.0009                 0.0050                 0.0129
 IR Inten    --      0.3925                 0.0428                 0.8889

                      4                      5                      6
                      A                      A                      A
 Frequencies --     80.1531               111.6817               123.7521
 Red. masses --      3.5320                 2.5866                 2.4753
 Frc consts  --      0.0134                 0.0190                 0.0223
 IR Inten    --      0.1193                 0.4978                 1.0359

                      7                      8                      9
                      A                      A                      A
 Frequencies --    152.2889               176.7305               195.5031
 Red. masses --      4.9325                 3.4357                 2.9275
 Frc consts  --      0.0674                 0.0632                 0.0659
 IR Inten    --      1.2662                 4.3744                 1.9926

                     10                     11                     12
                      A                      A                      A
 Frequencies --    205.9107               223.6345               235.7773
 Red. masses --      3.4657                 2.6465                 2.8947
 Frc consts  --      0.0866                 0.0780                 0.0948
 IR Inten    --      1.1369                 2.9281                 0.3501

                     13                     14                     15
                      A                      A                      A
 Frequencies --    289.9975               345.2250               367.1287
 Red. masses --      2.4041                 1.1411                 2.7878
 Frc consts  --      0.1191                 0.0801                 0.2214
 IR Inten    --      5.1961                52.8473                 6.0053

                     16                     17                     18
                      A                      A                      A
 Frequencies --    392.3372               412.4955               430.1381
 Red. masses --      3.9441                 3.1567                 2.7742
 Frc consts  --      0.3577                 0.3165                 0.3024
 IR Inten    --      2.5862                16.5297                 7.7926

                     19                     20                     21
                      A                      A                      A
 Frequencies --    452.7185               458.4089               513.2756
 Red. masses --      3.3462                 3.5546                 3.9090
 Frc consts  --      0.4041                 0.4401                 0.6068
 IR Inten    --      0.2012                 5.3923                 3.0999

                     22                     23                     24
                      A                      A                      A
 Frequencies --    550.0643               578.9380               587.7983
 Red. masses --      4.0284                 2.9506                 2.7764
 Frc consts  --      0.7181                 0.5827                 0.5652
 IR Inten    --      3.6668                 2.1604                 0.3106

                     25                     26                     27
                      A                      A                      A
 Frequencies --    631.5160               644.8874               722.4811
 Red. masses --      3.7602                 3.3140                 4.2150
 Frc consts  --      0.8835                 0.8120                 1.2963
 IR Inten    --      0.3112                 1.3011                 0.2791

                     28                     29                     30
                      A                      A                      A
 Frequencies --    728.7002               758.5489               768.3595
 Red. masses --      2.3612                 1.5451                 1.4434
 Frc consts  --      0.7387                 0.5238                 0.5021
 IR Inten    --      7.0253                15.6943                19.0917

                     31                     32                     33
                      A                      A                      A
 Frequencies --    780.4149               796.5412               823.8426
 Red. masses --      3.3499                 3.0221                 2.3468
 Frc consts  --      1.2021                 1.1297                 0.9385
 IR Inten    --      0.1710                 2.4830                 9.1821

                     34                     35                     36
                      A                      A                      A
 Frequencies --    852.3597               880.6764               883.1938
 Red. masses --      2.6288                 2.7115                 1.3405
 Frc consts  --      1.1253                 1.2390                 0.6161
 IR Inten    --      0.7776                 1.0973                 0.4440

                     37                     38                     39
                      A                      A                      A
 Frequencies --    897.7799               904.2090               928.1415
 Red. masses --      1.6936                 2.5765                 1.6030
 Frc consts  --      0.8043                 1.2411                 0.8136
 IR Inten    --     15.1294                 3.5273                61.6037

                     40                     41                     42
                      A                      A                      A
 Frequencies --    933.3152               976.5670               979.2392
 Red. masses --      1.3764                 2.5363                 1.2577
 Frc consts  --      0.7064                 1.4251                 0.7106
 IR Inten    --      1.2097                11.9559                 7.0865

                     43                     44                     45
                      A                      A                      A
 Frequencies --    979.8126               985.8007              1028.0011
 Red. masses --      1.5568                 2.0187                 2.3189
 Frc consts  --      0.8806                 1.1558                 1.4439
 IR Inten    --     64.4186                13.5440                 8.1612

                     46                     47                     48
                      A                      A                      A
 Frequencies --   1034.0115              1035.4575              1055.5078
 Red. masses --      2.2286                 2.4000                 2.3572
 Frc consts  --      1.4039                 1.5161                 1.5473
 IR Inten    --      2.1462                 1.7595                 3.9830

                     49                     50                     51
                      A                      A                      A
 Frequencies --   1062.1536              1078.2036              1091.8228
 Red. masses --      2.0225                 2.5813                 2.1199
 Frc consts  --      1.3444                 1.7680                 1.4889
 IR Inten    --      3.7206                 1.1360                 9.6986

                     52                     53                     54
                      A                      A                      A
 Frequencies --   1110.9743              1125.9600              1143.4496
 Red. masses --      1.9128                 1.7474                 1.2638
 Frc consts  --      1.3910                 1.3053                 0.9735
 IR Inten    --     16.6542                 4.4238                 2.0416

                     55                     56                     57
                      A                      A                      A
 Frequencies --   1165.5006              1167.3431              1186.7363
 Red. masses --      2.2035                 1.8708                 1.2039
 Frc consts  --      1.7635                 1.5020                 0.9990
 IR Inten    --     37.1040                 5.3756                 0.6101

                     58                     59                     60
                      A                      A                      A
 Frequencies --   1191.5914              1202.3886              1227.4929
 Red. masses --      1.3157                 1.2573                 1.3784
 Frc consts  --      1.1007                 1.0710                 1.2237
 IR Inten    --      5.9785                 1.6149                 3.8722

                     61                     62                     63
                      A                      A                      A
 Frequencies --   1230.4935              1241.0601              1245.5232
 Red. masses --      2.5584                 1.4231                 1.3998
 Frc consts  --      2.2824                 1.2914                 1.2794
 IR Inten    --      2.3875                 3.4879                 6.8875

                     64                     65                     66
                      A                      A                      A
 Frequencies --   1248.9043              1271.9660              1283.5034
 Red. masses --      1.4072                 1.4088                 1.2347
 Frc consts  --      1.2932                 1.3429                 1.1984
 IR Inten    --      2.7962                 0.3526                 8.2243

                     67                     68                     69
                      A                      A                      A
 Frequencies --   1302.3839              1318.4844              1331.3090
 Red. masses --      1.2199                 1.5593                 1.7695
 Frc consts  --      1.2192                 1.5970                 1.8478
 IR Inten    --      0.9696                 2.2232                19.0494

                     70                     71                     72
                      A                      A                      A
 Frequencies --   1333.4127              1340.4110              1357.8116
 Red. masses --      1.3229                 1.3296                 1.4826
 Frc consts  --      1.3859                 1.4075                 1.6105
 IR Inten    --      1.0335                 4.9610                 1.0679

                     73                     74                     75
                      A                      A                      A
 Frequencies --   1370.7027              1381.1138              1391.0847
 Red. masses --      1.2659                 1.4251                 3.5765
 Frc consts  --      1.4013                 1.6016                 4.0777
 IR Inten    --      0.3900                 1.2865                 5.2776

                     76                     77                     78
                      A                      A                      A
 Frequencies --   1404.5640              1421.3231              1457.8690
 Red. masses --      1.3839                 1.5838                 1.4724
 Frc consts  --      1.6086                 1.8852                 1.8438
 IR Inten    --      3.2832                15.8554                16.7598

                     79                     80                     81
                      A                      A                      A
 Frequencies --   1481.3676              1488.3849              1506.5046
 Red. masses --      1.0898                 1.1909                 2.3287
 Frc consts  --      1.4091                 1.5544                 3.1139
 IR Inten    --      8.9308                 5.7777                 2.1382

                     82                     83                     84
                      A                      A                      A
 Frequencies --   1513.0442              1520.3736              1530.3510
 Red. masses --      2.3215                 1.0761                 1.0856
 Frc consts  --      3.1313                 1.4656                 1.4979
 IR Inten    --     16.1292                 0.5238                 4.6570

                     85                     86                     87
                      A                      A                      A
 Frequencies --   1541.3436              1548.4354              1655.1555
 Red. masses --      1.0841                 1.0979                 6.6629
 Frc consts  --      1.5174                 1.5510                10.7545
 IR Inten    --      2.5805                 4.6830                 0.6412

                     88                     89                     90
                      A                      A                      A
 Frequencies --   1664.1576              1711.7388              1778.4720
 Red. masses --      6.8053                 1.0985                 9.2322
 Frc consts  --     11.1042                 1.8963                17.2048
 IR Inten    --      1.3450                45.5227                89.9957

                     91                     92                     93
                      A                      A                      A
 Frequencies --   2998.2471              3022.7121              3037.2905
 Red. masses --      1.0681                 1.0710                 1.0819
 Frc consts  --      5.6571                 5.7656                 5.8807
 IR Inten    --     29.0864                12.7190                 8.8447

                     94                     95                     96
                      A                      A                      A
 Frequencies --   3046.9485              3054.5329              3062.9438
 Red. masses --      1.0845                 1.0647                 1.0898
 Frc consts  --      5.9323                 5.8527                 6.0240
 IR Inten    --     29.0522                37.9344                47.5915

                     97                     98                     99
                      A                      A                      A
 Frequencies --   3064.5790              3071.2101              3074.5053
 Red. masses --      1.0663                 1.0678                 1.0650
 Frc consts  --      5.9003                 5.9343                 5.9316
 IR Inten    --     31.2651                58.4413                38.4628

                    100                    101                    102
                      A                      A                      A
 Frequencies --   3088.8324              3098.7547              3103.7019
 Red. masses --      1.1005                 1.0859                 1.1020
 Frc consts  --      6.1863                 6.1436                 6.2543
 IR Inten    --     16.9788                 7.3886                24.0474

                    103                    104                    105
                      A                      A                      A
 Frequencies --   3107.8579              3118.1014              3162.8331
 Red. masses --      1.0892                 1.1037                 1.0975
 Frc consts  --      6.1982                 6.3223                 6.4684
 IR Inten    --     16.3621                75.6533                 6.0790

                    106                    107                    108
                      A                      A                      A
 Frequencies --   3177.2975              3186.6366              3196.5814
 Red. masses --      1.0852                 1.0888                 1.0934
 Frc consts  --      6.4545                 6.5141                 6.5825
 IR Inten    --      0.5866                 9.1407                39.5886

                    109                    110                    111
                      A                      A                      A
 Frequencies --   3205.6564              3458.6274              3541.7955
 Red. masses --      1.0966                 1.0504                 1.0916
 Frc consts  --      6.6396                 7.4028                 8.0679
 IR Inten    --     26.2506                14.2833                 4.3689

 - Thermochemistry -
 -------------------
 Temperature   298.150 Kelvin.  Pressure   1.00000 Atm.
 Atom     1 has atomic number  6 and mass  12.00000

 Molecular mass:   243.16231 amu.
 Principal axes and moments of inertia in atomic units:
                           1         2         3
     Eigenvalues --  2700.958975612.735846192.66525
           X            0.99988  -0.00588  -0.01441
           Y            0.00596   0.99997   0.00529
           Z            0.01438  -0.00538   0.99988
 This molecule is an asymmetric top.
 Rotational symmetry number  1.
 Warning -- assumption of classical behavior for rotation
           may cause significant error
 Rotational temperatures (Kelvin)      0.03207     0.01543     0.01399
 Rotational constants (GHZ):           0.66819     0.32154     0.29143
 Zero-point vibrational energy     900319.0 (Joules/Mol)
                                  215.18140 (Kcal/Mol)
 Warning -- explicit consideration of  24 degrees of freedom as
           vibrations may cause significant error
 Vibrational temperatures:     26.79    62.73    88.53   115.32   160.69
          (Kelvin)            178.05   219.11   254.28   281.29   296.26
                              321.76   339.23   417.24   496.70   528.22
                              564.49   593.49   618.87   651.36   659.55
                              738.49   791.42   832.96   845.71   908.61
                              927.85  1039.49  1048.44  1091.38  1105.50
                             1122.84  1146.05  1185.33  1226.36  1267.10
                             1270.72  1291.71  1300.96  1335.39  1342.83
                             1405.06  1408.91  1409.73  1418.35  1479.06
                             1487.71  1489.79  1518.64  1528.20  1551.29
                             1570.89  1598.44  1620.01  1645.17  1676.90
                             1679.55  1707.45  1714.43  1729.97  1766.09
                             1770.41  1785.61  1792.03  1796.89  1830.08
                             1846.68  1873.84  1897.00  1915.46  1918.48
                             1928.55  1953.59  1972.14  1987.11  2001.46
                             2020.85  2044.97  2097.55  2131.36  2141.45
                             2167.52  2176.93  2187.48  2201.83  2217.65
                             2227.85  2381.40  2394.35  2462.81  2558.82
                             4313.81  4349.01  4369.98  4383.88  4394.79
                             4406.89  4409.25  4418.79  4423.53  4444.14
                             4458.42  4465.53  4471.51  4486.25  4550.61
                             4571.42  4584.86  4599.17  4612.22  4976.19
                             5095.85

 Zero-point correction=                           0.342913 (Hartree/Particle)
 Thermal correction to Energy=                    0.359226
 Thermal correction to Enthalpy=                  0.360170
 Thermal correction to Gibbs Free Energy=         0.298265
 Sum of electronic and zero-point Energies=           -752.015828
 Sum of electronic and thermal Energies=              -751.999516
 Sum of electronic and thermal Enthalpies=            -751.998571
 Sum of electronic and thermal Free Energies=         -752.060476

                     E (Thermal)             CV                S
                      KCal/Mol        Cal/Mol-Kelvin    Cal/Mol-Kelvin
 Total                  225.417             64.571            130.289
 Electronic               0.000              0.000              0.000
 Translational            0.889              2.981             42.367
 Rotational               0.889              2.981             32.907
 Vibrational            223.640             58.609             55.016
 Vibration     1          0.593              1.986              6.776
 Vibration     2          0.595              1.980              5.088
 Vibration     3          0.597              1.973              4.407
 Vibration     4          0.600              1.963              3.887
 Vibration     5          0.607              1.940              3.239
 Vibration     6          0.610              1.929              3.041
 Vibration     7          0.619              1.900              2.643
 Vibration     8          0.628              1.871              2.363
 Vibration     9          0.636              1.846              2.175
 Vibration    10          0.640              1.831              2.080
 Vibration    11          0.649              1.805              1.929
 Vibration    12          0.655              1.786              1.835
 Vibration    13          0.686              1.692              1.474
 Vibration    14          0.724              1.585              1.188
 Vibration    15          0.740              1.540              1.092
 Vibration    16          0.760              1.487              0.991
 Vibration    17          0.776              1.443              0.918
 Vibration    18          0.791              1.405              0.858
 Vibration    19          0.811              1.355              0.788
 Vibration    20          0.816              1.342              0.771
 Vibration    21          0.868              1.221              0.626
 Vibration    22          0.905              1.140              0.544
 Vibration    23          0.936              1.077              0.487
 Vibration    24          0.945              1.058              0.471

 Optimization completed.
    -- Stationary point found.
 Normal termination of Gaussian 16 at Fri Dec 11 19:38:52 2020.

 ----------------------------------------------------------------------
 # B3LYP/6-311++G(d,p) empiricaldispersion=gd3bj scf=xqc pop=npa geom=c
 heck
 ----------------------------------------------------------------------

 ---------------------------------------
 CID_116584324_JID_8063_Energie_neutraal
 ---------------------------------------
 Structure from the checkpoint file:  "JID_8063.chk"
 Charge =  0 Multiplicity = 1

 SCF Done:  E(RB3LYP) =  -752.563576586     A.U. after   14 cycles
 Normal termination of Gaussian 16 at Fri Dec 11 19:48:37 2020.

 ----------------------------------------------------------------------
 # B3LYP/6-311++G(d,p) empiricaldispersion=gd3bj scf=xqc pop=npa geom=c
 heck
 ----------------------------------------------------------------------

 -------------------------------------
 CID_116584324_JID_8063_Energie_kation
 -------------------------------------
 Structure from the checkpoint file:  "JID_8063.chk"
 Charge =  1 Multiplicity = 2

 SCF Done:  E(UB3LYP) =  -752.267518403     A.U. after   27 cycles
 Normal termination of Gaussian 16 at Fri Dec 11 20:14:41 2020.
 Gaussian 16:  ES64L-G16RevA.03 25-Dec-2016

 ----------------------------------------------------------------------
 # B3LYP/6-311++G(d,p) empiricaldispersion=gd3bj scf=xqc pop=npa geom=c
 heck
 ----------------------------------------------------------------------

 ------------------------------------
 CID_116584324_JID_8063_Energie_anion
 ------------------------------------
 Structure from the checkpoint file:  "JID_8063.chk"
 Charge = -1 Multiplicity = 2

                         Standard orientation:
 ---------------------------------------------------------------------
 Center     Atomic      Atomic             Coordinates (Angstroms)
 Number     Number       Type             X           Y           Z
 ---------------------------------------------------------------------
      1          6           0        3.261624   -0.490494   -1.529206
      2          6           0        2.315027    0.731439   -1.467411
      3          6           0        2.263183    1.125845    0.016498
      4          6           0        2.307096   -0.249183    0.759714
      5          6           0        3.323983   -1.056552   -0.079208
      6          6           0        0.917175   -0.861911    0.903101
      7          8           0        0.211403   -0.525168    1.842903
      8          6           0        0.434061   -1.900622   -0.105642
      9          6           0       -1.070251   -1.915374   -0.400432
     10          6           0       -2.108454   -2.032333    0.796629
     11          6           0       -2.671654   -0.705346    0.309178
     12          6           0       -3.639782    0.258781    0.544241
     13          6           0       -3.640216    1.360913   -0.326709
     14          6           0       -2.718937    1.471909   -1.376901
     15          6           0       -1.746915    0.484566   -1.608890
     16          6           0       -1.754550   -0.592985   -0.736083
     17          6           0        1.118007    2.063275    0.394313
     18          7           0        1.158450    2.377679    1.827325
     19          1           0        4.260748   -0.191123   -1.861530
     20          1           0        2.908581   -1.238649   -2.246876
     21          1           0        2.651191    1.558154   -2.101878
     22          1           0        1.308178    0.459953   -1.808816
     23          1           0        3.201282    1.629991    0.284830
     24          1           0        2.654932   -0.091604    1.784591
     25          1           0        3.142809   -2.135172   -0.040013
     26          1           0        4.321466   -0.896929    0.342476
     27          1           0        0.980523   -1.783632   -1.046355
     28          1           0        0.736382   -2.883250    0.288700
     29          1           0       -1.247288   -2.687335   -1.160114
     30          1           0       -1.653858   -2.002403    1.787055
     31          1           0       -2.782922   -2.892874    0.720610
     32          1           0       -4.360894    0.188999    1.354208
     33          1           0       -4.373514    2.150661   -0.185812
     34          1           0       -2.760910    2.342597   -2.025842
     35          1           0       -1.041694    0.580906   -2.430379
     36          1           0        1.246123    2.998032   -0.166386
     37          1           0        0.162116    1.626382    0.062338
     38          1           0        0.485610    3.117171    2.023476
     39          1           0        0.824382    1.556154    2.332070
 ---------------------------------------------------------------------

 SCF Done:  E(UB3LYP) =  -752.554324904     A.U. after   33 cycles
 SCF Done:  E(UB3LYP) =  -752.554324903     a.u. after    1 cycles

 The electronic state is 2-A.
 Alpha  occ. eigenvalues --  -18.98843 -14.18255 -10.13225 -10.08257 -10.08256
 Alpha  occ. eigenvalues --  -10.08122 -10.08058 -10.07982 -10.07846 -10.07325
 Alpha  occ. eigenvalues --  -10.06932 -10.06842 -10.06791 -10.06628 -10.06601
 Alpha  occ. eigenvalues --  -10.06345 -10.06323 -10.06203  -0.92449  -0.78094
 Alpha  occ. eigenvalues --   -0.77719  -0.73401  -0.71508  -0.65601  -0.64375
 Alpha  occ. eigenvalues --   -0.62469  -0.61530  -0.58150  -0.53992  -0.52799
 Alpha  occ. eigenvalues --   -0.49910  -0.47995  -0.46745  -0.45384  -0.41907
 Alpha  occ. eigenvalues --   -0.39706  -0.39114  -0.38513  -0.37313  -0.36667
 Alpha  occ. eigenvalues --   -0.35329  -0.34814  -0.34361  -0.33108  -0.32269
 Alpha  occ. eigenvalues --   -0.31383  -0.30669  -0.29751  -0.29696  -0.28551
 Alpha  occ. eigenvalues --   -0.26618  -0.26103  -0.25475  -0.24746  -0.23873
 Alpha  occ. eigenvalues --   -0.23234  -0.22950  -0.22719  -0.21872  -0.21742
 Alpha  occ. eigenvalues --   -0.20974  -0.20691  -0.15987  -0.14518  -0.13687
 Alpha  occ. eigenvalues --   -0.12986   0.04387
 Alpha virt. eigenvalues --    0.06516   0.06706   0.07090   0.07901   0.08121
 Alpha virt. eigenvalues --    0.08572   0.08731   0.09059   0.09405   0.09944
 Alpha virt. eigenvalues --    0.10057   0.10535   0.11127   0.12077   0.12120

  Beta  occ. eigenvalues --  -18.98709 -14.18250 -10.13043 -10.08254 -10.08239
  Beta  occ. eigenvalues --  -10.08124 -10.08034 -10.07971 -10.07826 -10.07326
  Beta  occ. eigenvalues --  -10.06908 -10.06830 -10.06762 -10.06642 -10.06586
  Beta  occ. eigenvalues --  -10.06327 -10.06304 -10.06189  -0.92169  -0.78056
  Beta  occ. eigenvalues --   -0.77705  -0.73348  -0.71467  -0.65542  -0.64250
  Beta  occ. eigenvalues --   -0.62424  -0.61477  -0.58104  -0.53927  -0.52725
  Beta  occ. eigenvalues --   -0.49804  -0.47913  -0.46679  -0.45327  -0.41835
  Beta  occ. eigenvalues --   -0.39619  -0.38976  -0.38435  -0.37261  -0.36592
  Beta  occ. eigenvalues --   -0.35291  -0.34773  -0.34328  -0.32962  -0.32141
  Beta  occ. eigenvalues --   -0.31317  -0.30648  -0.29690  -0.29580  -0.28492
  Beta  occ. eigenvalues --   -0.26457  -0.26019  -0.25195  -0.24679  -0.23818
  Beta  occ. eigenvalues --   -0.23183  -0.22912  -0.22629  -0.21813  -0.21684
  Beta  occ. eigenvalues --   -0.20929  -0.20462  -0.15878  -0.14419  -0.13651
  Beta  occ. eigenvalues --   -0.12865
  Beta virt. eigenvalues --    0.06407   0.07070   0.07286   0.07784   0.08222
  Beta virt. eigenvalues --    0.08511   0.08775   0.09175   0.09244   0.09765
  Beta virt. eigenvalues --    0.10236   0.10585   0.10848   0.11287   0.12237

 Mulliken charges and spin densities:
               1          2
     1  C    0.382726  -0.726157
     2  C   -0.315817  -0.012190
     3  C    0.597112  -0.423857
     4  C   -0.165851   0.305566
     5  C   -0.283294  -0.327671
     6  C   -0.887777   1.249203
     7  O   -0.268139   0.049911
     8  C    0.903361  -1.610906
     9  C    0.442607  -0.156629
    10  C   -0.291077  -0.383405
    11  C    0.332273  -0.567000
    12  C   -0.509612   0.146986
    13  C   -0.113554  -0.135401
    14  C   -0.471972   0.150719
    15  C   -0.477644   0.489801
    16  C    0.991610  -0.551108
    17  C   -0.664042  -0.076390
    18  N   -0.357871   0.005891
    19  H   -0.144256   0.293172
    20  H   -0.419535   0.590635
    21  H   -0.207701   0.383581
    22  H    0.598953  -0.530131
    23  H    0.067173   0.142668
    24  H    0.095733   0.181047
    25  H    0.035366   0.117042
    26  H   -0.213497   0.382028
    27  H    0.595493  -0.501892
    28  H   -0.576911   0.816597
    29  H   -0.758856   1.017385
    30  H    0.136197   0.074173
    31  H   -0.010673   0.166802
    32  H    0.118777   0.040816
    33  H    0.129351   0.008764
    34  H    0.094109   0.056201
    35  H   -0.162595   0.330715
    36  H   -0.010463   0.152829
    37  H    0.372196  -0.186304
    38  H    0.206968   0.011036
    39  H    0.211130   0.025473
 Sum of Mulliken charges =  -1.00000   1.00000

 Dipole moment (field-independent basis, Debye):
    X=             -4.2210    Y=              4.8639    Z=              0.9267  Tot=              6.5064
 Quadrupole moment (field-independent basis, Debye-Ang):
   XX=           -165.4569   YY=           -158.5871   ZZ=           -145.6413
   XY=             -6.9262   XZ=             -1.6244   YZ=             -6.8418

 Summary of Natural Population Analysis:

                                       Natural Population
                Natural  -----------------------------------------------
    Atom  No    Charge         Core      Valence    Rydberg      Total
 -----------------------------------------------------------------------
      C    1   -0.19372      0.99964     2.18646    0.00762     3.19372
      C    2   -0.19252      0.99961     2.18485    0.00805     3.19252
      C    3   -0.10053      0.99958     2.08921    0.01174     3.10053
      C    4   -0.15365      0.99954     2.14192    0.01219     3.15365
      C    5   -0.19225      0.99963     2.18433    0.00828     3.19225
      C    6    0.32723      0.99963     1.65138    0.02176     2.67277
      O    7   -0.29776      0.99987     3.29141    0.00648     4.29776
      C    8   -0.23975      0.99955     2.22988    0.01032     3.23975
      C    9   -0.10287      0.99959     2.08974    0.01354     3.10287
      C   10   -0.18783      0.99960     2.18027    0.00796     3.18783
      C   11   -0.00440      0.99944     1.99409    0.01087     3.00440
      C   12   -0.10471      0.99950     2.09694    0.00827     3.10471
      C   13   -0.10163      0.99958     2.09245    0.00960     3.10163
      C   14   -0.10766      0.99958     2.09920    0.00888     3.10766
      C   15   -0.10361      0.99949     2.09423    0.00989     3.10361
      C   16   -0.00575      0.99944     1.99478    0.01153     3.00575
      C   17   -0.09336      0.99959     2.08213    0.01164     3.09336
      N   18   -0.42692      0.99977     2.91892    0.00823     3.92692
      H   19    0.09835      0.00000     0.40030    0.00136     0.40165
      H   20    0.09832      0.00000     0.40055    0.00113     0.40168
      H   21    0.09937      0.00000     0.39961    0.00102     0.40063
      H   22    0.09505      0.00000     0.40297    0.00198     0.40495
      H   23    0.09923      0.00000     0.39892    0.00185     0.40077
      H   24    0.11414      0.00000     0.38450    0.00136     0.38586
      H   25    0.10319      0.00000     0.39551    0.00131     0.39681
      H   26    0.09976      0.00000     0.39918    0.00106     0.40024
      H   27    0.10579      0.00000     0.39180    0.00241     0.39421
      H   28    0.12221      0.00000     0.37378    0.00401     0.37779
      H   29    0.10745      0.00000     0.38934    0.00321     0.39255
      H   30    0.11626      0.00000     0.38264    0.00110     0.38374
      H   31    0.09813      0.00000     0.40089    0.00098     0.40187
      H   32    0.09846      0.00000     0.40068    0.00086     0.40154
      H   33    0.09522      0.00000     0.40401    0.00077     0.40478
      H   34    0.09693      0.00000     0.40229    0.00078     0.40307
      H   35    0.10251      0.00000     0.39637    0.00112     0.39749
      H   36    0.08699      0.00000     0.41212    0.00090     0.41301
      H   37    0.08885      0.00000     0.40862    0.00253     0.41115
      H   38    0.16822      0.00000     0.33019    0.00159     0.33178
      H   39    0.18729      0.00000     0.31078    0.00193     0.31271
 =======================================================================
   * Total *    0.00000     17.99263    47.78725    0.22012    66.00000

 Normal termination of Gaussian 16 at Fri Dec 11 20:47:11 2020.
