 Gaussian 16, Revision A.03,

 -----------------------------------------------------------
 # opt freq B3LYP/6-31G(d) empiricaldispersion=gd3bj scf=xqc
 -----------------------------------------------------------

 ------------------------------
 CID_83162380_JID_2681_neutraal
 ------------------------------
 Symbolic Z-matrix:
 Charge =  0 Multiplicity = 1

 SCF Done:  E(RB3LYP) =  -883.775320797     A.U. after   14 cycles
 SCF Done:  E(RB3LYP) =  -883.779377627     A.U. after   12 cycles
 SCF Done:  E(RB3LYP) =  -883.780464016     A.U. after   12 cycles
 SCF Done:  E(RB3LYP) =  -883.780223453     A.U. after   14 cycles
 SCF Done:  E(RB3LYP) =  -883.780584833     A.U. after   13 cycles
 SCF Done:  E(RB3LYP) =  -883.781534819     A.U. after   11 cycles
 SCF Done:  E(RB3LYP) =  -883.781578327     A.U. after   11 cycles
 SCF Done:  E(RB3LYP) =  -883.781613947     A.U. after   10 cycles
 SCF Done:  E(RB3LYP) =  -883.781623307     A.U. after   10 cycles
 SCF Done:  E(RB3LYP) =  -883.781626059     A.U. after    9 cycles
 SCF Done:  E(RB3LYP) =  -883.781626324     A.U. after    8 cycles
 SCF Done:  E(RB3LYP) =  -883.781626328     A.U. after    7 cycles
 Optimization completed.
    -- Stationary point found.
 Normal termination of Gaussian 16 at Wed Dec  9 18:05:44 2020.

 --------------------------------------------------------------------
 #N Geom=AllCheck Guess=TCheck SCRF=Check GenChk RB3LYP/6-31G(d) Freq
 --------------------------------------------------------------------

 Structure from the checkpoint file:  "JID_2681.chk"
 ------------------------------
 CID_83162380_JID_2681_neutraal
 ------------------------------
 Charge =  0 Multiplicity = 1

 SCF Done:  E(RB3LYP) =  -883.781626328     A.U. after    1 cycles

  Exact polarizability: 138.321  -2.067 124.024  -0.988   1.846 107.698
 Approx polarizability: 176.323  -2.817 184.171   5.792  10.529 168.273

                      1                      2                      3
                      A                      A                      A
 Frequencies --     17.2492                45.3978                56.9892
 Red. masses --      3.7537                 3.5837                 3.3900
 Frc consts  --      0.0007                 0.0044                 0.0065
 IR Inten    --      1.4835                 1.1854                 0.2352

                      4                      5                      6
                      A                      A                      A
 Frequencies --     70.1166               133.9990               140.8980
 Red. masses --      3.0047                 4.1179                 3.9299
 Frc consts  --      0.0087                 0.0436                 0.0460
 IR Inten    --      0.5591                 2.2329                 4.9108

                      7                      8                      9
                      A                      A                      A
 Frequencies --    170.8936               197.5000               211.7142
 Red. masses --      2.3909                 2.3363                 2.0472
 Frc consts  --      0.0411                 0.0537                 0.0541
 IR Inten    --      2.0385                 1.5292                 5.0562

                     10                     11                     12
                      A                      A                      A
 Frequencies --    229.0813               235.3344               253.5153
 Red. masses --      1.2868                 1.9083                 1.1536
 Frc consts  --      0.0398                 0.0623                 0.0437
 IR Inten    --      3.5074                 7.7685                 4.0178

                     13                     14                     15
                      A                      A                      A
 Frequencies --    262.1375               271.4111               280.8998
 Red. masses --      1.2997                 1.4211                 1.8790
 Frc consts  --      0.0526                 0.0617                 0.0874
 IR Inten    --      8.8771                26.1900                10.0861

                     16                     17                     18
                      A                      A                      A
 Frequencies --    342.9954               360.5388               384.5276
 Red. masses --      2.3545                 2.4347                 2.3360
 Frc consts  --      0.1632                 0.1865                 0.2035
 IR Inten    --      1.4134                 1.9516                 1.5674

                     19                     20                     21
                      A                      A                      A
 Frequencies --    405.9089               419.9010               438.3883
 Red. masses --      3.4146                 2.4691                 2.3689
 Frc consts  --      0.3315                 0.2565                 0.2682
 IR Inten    --      3.1523                 1.3058                 0.9120

                     22                     23                     24
                      A                      A                      A
 Frequencies --    505.3984               522.3928               597.6155
 Red. masses --      3.2668                 2.8463                 4.0555
 Frc consts  --      0.4916                 0.4576                 0.8534
 IR Inten    --      5.8856                 1.2115                 6.6244

                     25                     26                     27
                      A                      A                      A
 Frequencies --    636.9698               757.5520               832.7586
 Red. masses --      2.8571                 1.9153                 1.7666
 Frc consts  --      0.6830                 0.6476                 0.7218
 IR Inten    --     14.8878                 2.4175                 2.0198

                     28                     29                     30
                      A                      A                      A
 Frequencies --    850.2239               870.6141               889.1650
 Red. masses --      1.2755                 2.3737                 1.8692
 Frc consts  --      0.5432                 1.0601                 0.8707
 IR Inten    --    135.5388                 1.3793                12.2672

                     31                     32                     33
                      A                      A                      A
 Frequencies --    940.1718               941.5731               949.4911
 Red. masses --      1.5389                 1.3888                 1.2819
 Frc consts  --      0.8015                 0.7254                 0.6809
 IR Inten    --      0.5968                 1.4138                18.7447

                     34                     35                     36
                      A                      A                      A
 Frequencies --    965.7141               985.5729              1008.1280
 Red. masses --      1.4757                 1.5339                 1.6907
 Frc consts  --      0.8109                 0.8778                 1.0124
 IR Inten    --      0.8984                 0.5862                 8.7655

                     37                     38                     39
                      A                      A                      A
 Frequencies --   1051.5619              1061.3433              1083.8072
 Red. masses --      2.0926                 8.8661                 2.1233
 Frc consts  --      1.3633                 5.8843                 1.4695
 IR Inten    --      5.9011                99.2495                 2.7892

                     40                     41                     42
                      A                      A                      A
 Frequencies --   1090.4210              1104.5979              1124.4571
 Red. masses --      1.8493                 1.7098                 1.4665
 Frc consts  --      1.2955                 1.2291                 1.0925
 IR Inten    --      3.5737                 2.4916                 5.6031

                     43                     44                     45
                      A                      A                      A
 Frequencies --   1140.8060              1160.2472              1193.9321
 Red. masses --      1.7956                 2.0756                 1.2520
 Frc consts  --      1.3768                 1.6462                 1.0515
 IR Inten    --      2.4443                 6.5595                 1.1989

                     46                     47                     48
                      A                      A                      A
 Frequencies --   1205.4334              1213.5786              1242.6410
 Red. masses --      1.6542                 1.5286                 1.5097
 Frc consts  --      1.4162                 1.3265                 1.3735
 IR Inten    --      3.6079                 1.7645                 1.9211

                     49                     50                     51
                      A                      A                      A
 Frequencies --   1293.0603              1308.5313              1328.0124
 Red. masses --      1.4362                 1.3377                 1.2632
 Frc consts  --      1.4148                 1.3495                 1.3126
 IR Inten    --      3.3385                 0.3837                 3.2003

                     52                     53                     54
                      A                      A                      A
 Frequencies --   1334.6885              1356.4660              1363.2887
 Red. masses --      1.2622                 1.2076                 1.2020
 Frc consts  --      1.3248                 1.3092                 1.3162
 IR Inten    --      6.8103                 7.2161                 2.4867

                     55                     56                     57
                      A                      A                      A
 Frequencies --   1383.1939              1406.7541              1417.7994
 Red. masses --      1.3990                 1.3832                 1.4561
 Frc consts  --      1.5770                 1.6128                 1.7245
 IR Inten    --      5.4911                 5.4524                 0.3957

                     58                     59                     60
                      A                      A                      A
 Frequencies --   1429.9858              1431.5668              1448.0414
 Red. masses --      1.2592                 1.2800                 1.4218
 Frc consts  --      1.5171                 1.5455                 1.7565
 IR Inten    --      1.9403                10.0303                15.2400

                     61                     62                     63
                      A                      A                      A
 Frequencies --   1451.3271              1481.4209              1511.1114
 Red. masses --      1.2390                 1.0945                 1.0704
 Frc consts  --      1.5376                 1.4152                 1.4401
 IR Inten    --      4.5968                 6.9614                 2.3017

                     64                     65                     66
                      A                      A                      A
 Frequencies --   1516.0767              1525.7510              1526.8374
 Red. masses --      1.0559                 1.0522                 1.0537
 Frc consts  --      1.4299                 1.4431                 1.4473
 IR Inten    --      0.8905                 7.2276                 3.8824

                     67                     68                     69
                      A                      A                      A
 Frequencies --   1528.3779              1535.9531              1536.2693
 Red. masses --      1.0760                 1.0488                 1.0536
 Frc consts  --      1.4809                 1.4578                 1.4650
 IR Inten    --      7.2530                 4.2859                 8.7675

                     70                     71                     72
                      A                      A                      A
 Frequencies --   1542.7041              1545.1148              1697.2619
 Red. masses --      1.0522                 1.0773                 1.0879
 Frc consts  --      1.4754                 1.5154                 1.8465
 IR Inten    --      5.4682                 4.2381                32.4489

                     73                     74                     75
                      A                      A                      A
 Frequencies --   2956.5671              3001.5823              3035.0362
 Red. masses --      1.0732                 1.0811                 1.0576
 Frc consts  --      5.5275                 5.7386                 5.7398
 IR Inten    --     62.2802                33.0310                14.5482

                     76                     77                     78
                      A                      A                      A
 Frequencies --   3038.7480              3043.8918              3052.6754
 Red. masses --      1.0375                 1.0405                 1.0406
 Frc consts  --      5.6444                 5.6800                 5.7133
 IR Inten    --     35.9997                27.0856                15.7111

                     79                     80                     81
                      A                      A                      A
 Frequencies --   3053.9035              3062.4335              3074.9327
 Red. masses --      1.0603                 1.0849                 1.0948
 Frc consts  --      5.8264                 5.9946                 6.0988
 IR Inten    --     18.6980                41.8690                33.4141

                     82                     83                     84
                      A                      A                      A
 Frequencies --   3080.3321              3081.1215              3095.6008
 Red. masses --      1.0626                 1.0852                 1.0999
 Frc consts  --      5.9402                 6.0700                 6.2099
 IR Inten    --      9.7582                 4.2404                23.0736

                     85                     86                     87
                      A                      A                      A
 Frequencies --   3102.5436              3108.3266              3110.8707
 Red. masses --      1.1018                 1.1010                 1.1024
 Frc consts  --      6.2485                 6.2677                 6.2857
 IR Inten    --      4.8851                69.2822                34.8006

                     88                     89                     90
                      A                      A                      A
 Frequencies --   3114.1994              3118.8271              3135.9550
 Red. masses --      1.1016                 1.1017                 1.1024
 Frc consts  --      6.2947                 6.3136                 6.3877
 IR Inten    --     50.9594                29.3059                 8.2726

                     91                     92                     93
                      A                      A                      A
 Frequencies --   3141.1251              3480.8790              3567.3296
 Red. masses --      1.1065                 1.0496                 1.0931
 Frc consts  --      6.4321                 7.4931                 8.1957
 IR Inten    --     11.2793                 0.3953                 0.2018

 - Thermochemistry -
 -------------------
 Temperature   298.150 Kelvin.  Pressure   1.00000 Atm.
 Atom     1 has atomic number  6 and mass  12.00000

 Molecular mass:   191.13439 amu.
 Principal axes and moments of inertia in atomic units:
                           1         2         3
     Eigenvalues --  1720.528883626.960104334.61581
           X            0.99984  -0.00748  -0.01600
           Y            0.00708   0.99966  -0.02508
           Z            0.01619   0.02496   0.99956
 This molecule is an asymmetric top.
 Rotational symmetry number  1.
 Warning -- assumption of classical behavior for rotation
           may cause significant error
 Rotational temperatures (Kelvin)      0.05034     0.02388     0.01998
 Rotational constants (GHZ):           1.04895     0.49759     0.41636
 Zero-point vibrational energy     784822.3 (Joules/Mol)
                                  187.57703 (Kcal/Mol)
 Warning -- explicit consideration of  24 degrees of freedom as
           vibrations may cause significant error
 Vibrational temperatures:     24.82    65.32    81.99   100.88   192.79
          (Kelvin)            202.72   245.88   284.16   304.61   329.60
                              338.59   364.75   377.16   390.50   404.15
                              493.49   518.73   553.25   584.01   604.14
                              630.74   727.16   751.61   859.84   916.46
                             1089.95  1198.15  1223.28  1252.62  1279.31
                             1352.70  1354.71  1366.11  1389.45  1418.02
                             1450.47  1512.96  1527.04  1559.36  1568.87
                             1589.27  1617.84  1641.37  1669.34  1717.80
                             1734.35  1746.07  1787.88  1860.43  1882.68
                             1910.71  1920.32  1951.65  1961.47  1990.11
                             2024.01  2039.90  2057.43  2059.71  2083.41
                             2088.14  2131.43  2174.15  2181.30  2195.22
                             2196.78  2198.99  2209.89  2210.35  2219.61
                             2223.08  2441.98  4253.84  4318.61  4366.74
                             4372.08  4379.48  4392.12  4393.89  4406.16
                             4424.14  4431.91  4433.05  4453.88  4463.87
                             4472.19  4475.85  4480.64  4487.30  4511.94
                             4519.38  5008.21  5132.59

 Zero-point correction=                           0.298923 (Hartree/Particle)
 Thermal correction to Energy=                    0.314697
 Thermal correction to Enthalpy=                  0.315641
 Thermal correction to Gibbs Free Energy=         0.255242
 Sum of electronic and zero-point Energies=           -883.482703
 Sum of electronic and thermal Energies=              -883.466929
 Sum of electronic and thermal Enthalpies=            -883.465985
 Sum of electronic and thermal Free Energies=         -883.526384

                     E (Thermal)             CV                S
                      KCal/Mol        Cal/Mol-Kelvin    Cal/Mol-Kelvin
 Total                  197.475             57.804            127.120
 Electronic               0.000              0.000              0.000
 Translational            0.889              2.981             41.649
 Rotational               0.889              2.981             31.670
 Vibrational            195.698             51.843             53.801
 Vibration     1          0.593              1.986              6.928
 Vibration     2          0.595              1.979              5.008
 Vibration     3          0.596              1.975              4.559
 Vibration     4          0.598              1.968              4.150
 Vibration     5          0.613              1.919              2.888
 Vibration     6          0.615              1.912              2.792
 Vibration     7          0.626              1.878              2.426
 Vibration     8          0.637              1.843              2.156
 Vibration     9          0.643              1.823              2.029
 Vibration    10          0.652              1.797              1.886
 Vibration    11          0.655              1.787              1.838
 Vibration    12          0.665              1.757              1.706
 Vibration    13          0.669              1.742              1.647
 Vibration    14          0.675              1.726              1.587
 Vibration    15          0.681              1.709              1.528
 Vibration    16          0.722              1.590              1.198
 Vibration    17          0.735              1.554              1.120
 Vibration    18          0.753              1.503              1.021
 Vibration    19          0.771              1.457              0.941
 Vibration    20          0.783              1.427              0.892
 Vibration    21          0.799              1.386              0.832
 Vibration    22          0.861              1.238              0.645
 Vibration    23          0.877              1.200              0.604
 Vibration    24          0.956              1.037              0.454

                           ! Non-Optimized Parameters !
 Normal termination of Gaussian 16 at Wed Dec  9 18:15:05 2020.

 ----------------------------------------------------------------------
 # B3LYP/6-311++G(d,p) empiricaldispersion=gd3bj scf=xqc pop=npa geom=c
 heck
 ----------------------------------------------------------------------

 --------------------------------------
 CID_83162380_JID_2681_Energie_neutraal
 --------------------------------------
 Structure from the checkpoint file:  "JID_2681.chk"
 Charge =  0 Multiplicity = 1

 SCF Done:  E(RB3LYP) =  -883.961024847     A.U. after   15 cycles
 Normal termination of Gaussian 16 at Wed Dec  9 18:19:31 2020.

 ----------------------------------------------------------------------
 # B3LYP/6-311++G(d,p) empiricaldispersion=gd3bj scf=xqc pop=npa geom=c
 heck
 ----------------------------------------------------------------------

 ------------------------------------
 CID_83162380_JID_2681_Energie_kation
 ------------------------------------
 Structure from the checkpoint file:  "JID_2681.chk"
 Charge =  1 Multiplicity = 2

 SCF Done:  E(UB3LYP) =  -883.657409433     A.U. after   23 cycles
 Normal termination of Gaussian 16 at Wed Dec  9 18:27:57 2020.
 Gaussian 16:  ES64L-G16RevA.03 25-Dec-2016

 ----------------------------------------------------------------------
 # B3LYP/6-311++G(d,p) empiricaldispersion=gd3bj scf=xqc pop=npa geom=c
 heck
 ----------------------------------------------------------------------

 -----------------------------------
 CID_83162380_JID_2681_Energie_anion
 -----------------------------------
 Structure from the checkpoint file:  "JID_2681.chk"
 Charge = -1 Multiplicity = 2

                         Standard orientation:
 ---------------------------------------------------------------------
 Center     Atomic      Atomic             Coordinates (Angstroms)
 Number     Number       Type             X           Y           Z
 ---------------------------------------------------------------------
      1          6           0        3.086147    0.368491    1.434381
      2          6           0        2.475938    0.355389    0.027785
      3          6           0        3.434978    0.987064   -0.988465
      4          6           0        2.082375   -1.061685   -0.426098
      5          6           0        1.093397   -1.809804    0.483682
      6          6           0       -0.177896   -1.028037    0.823287
      7         16           0       -1.105689   -0.619705   -0.716181
      8          8           0       -1.873887   -1.875604   -1.090483
      9          6           0       -2.347425    0.578884    0.000423
     10          6           0       -3.194342   -0.084142    1.078949
     11          6           0       -1.678415    1.884255    0.433381
     12          7           0       -1.004106    2.540355   -0.688508
     13          1           0        3.980708   -0.266249    1.472494
     14          1           0        2.386137   -0.000091    2.192229
     15          1           0        3.385073    1.382439    1.723812
     16          1           0        1.566719    0.976407    0.047365
     17          1           0        4.370052    0.415887   -1.047455
     18          1           0        2.993963    1.007514   -1.991902
     19          1           0        3.690439    2.015811   -0.709138
     20          1           0        1.662340   -0.997174   -1.437615
     21          1           0        2.994877   -1.667345   -0.515331
     22          1           0        0.805022   -2.751435    0.002390
     23          1           0        1.580504   -2.081957    1.428029
     24          1           0       -0.856248   -1.628637    1.436465
     25          1           0        0.050839   -0.098872    1.352794
     26          1           0       -2.961345    0.788656   -0.882711
     27          1           0       -2.655290   -0.159683    2.029595
     28          1           0       -4.106549    0.496500    1.255251
     29          1           0       -3.481484   -1.089636    0.755762
     30          1           0       -2.471756    2.555872    0.784741
     31          1           0       -1.033642    1.692602    1.309946
     32          1           0       -0.612364    3.429849   -0.387104
     33          1           0       -0.225669    1.974678   -1.021253
 ---------------------------------------------------------------------

 SCF Done:  E(UB3LYP) =  -883.951829722     A.U. after   26 cycles

 The electronic state is 2-A.
 Alpha  occ. eigenvalues --  -88.84109 -18.98271 -14.19965 -10.10893 -10.10572
 Alpha  occ. eigenvalues --  -10.10120 -10.08390 -10.07984 -10.07516 -10.07424
 Alpha  occ. eigenvalues --  -10.06337 -10.05823  -7.91908  -5.88175  -5.88036
 Alpha  occ. eigenvalues --   -5.87489  -0.91008  -0.79505  -0.73248  -0.70716
 Alpha  occ. eigenvalues --   -0.68120  -0.61729  -0.58894  -0.58280  -0.56258
 Alpha  occ. eigenvalues --   -0.51613  -0.47358  -0.44974  -0.40577  -0.39456
 Alpha  occ. eigenvalues --   -0.38306  -0.37971  -0.36317  -0.34308  -0.33615
 Alpha  occ. eigenvalues --   -0.33258  -0.32412  -0.31052  -0.29834  -0.29247
 Alpha  occ. eigenvalues --   -0.28985  -0.28077  -0.27313  -0.26950  -0.26112
 Alpha  occ. eigenvalues --   -0.25507  -0.25189  -0.23166  -0.23007  -0.22335
 Alpha  occ. eigenvalues --   -0.16889  -0.15256  -0.13260   0.04180
 Alpha virt. eigenvalues --    0.06595   0.06758   0.07733   0.08684   0.08951
 Alpha virt. eigenvalues --    0.09681   0.10050   0.10274   0.11194   0.11290
 Alpha virt. eigenvalues --    0.11699   0.11965   0.12715   0.12889   0.13136

  Beta  occ. eigenvalues --  -88.84106 -18.98263 -14.19931 -10.10887 -10.10535
  Beta  occ. eigenvalues --  -10.10100 -10.08379 -10.07971 -10.07497 -10.07417
  Beta  occ. eigenvalues --  -10.06311 -10.05780  -7.91905  -5.88173  -5.88029
  Beta  occ. eigenvalues --   -5.87486  -0.90995  -0.79448  -0.73222  -0.70682
  Beta  occ. eigenvalues --   -0.68086  -0.61698  -0.58824  -0.58220  -0.56200
  Beta  occ. eigenvalues --   -0.51557  -0.47304  -0.44922  -0.40540  -0.39413
  Beta  occ. eigenvalues --   -0.38268  -0.37908  -0.36278  -0.34270  -0.33574
  Beta  occ. eigenvalues --   -0.33211  -0.32373  -0.31023  -0.29796  -0.29203
  Beta  occ. eigenvalues --   -0.28951  -0.28046  -0.27289  -0.26917  -0.26083
  Beta  occ. eigenvalues --   -0.25476  -0.25161  -0.23122  -0.22974  -0.22307
  Beta  occ. eigenvalues --   -0.16854  -0.15216  -0.13241
  Beta virt. eigenvalues --    0.06567   0.07216   0.07498   0.08326   0.09021
  Beta virt. eigenvalues --    0.09277   0.09926   0.10421   0.10763   0.11355
  Beta virt. eigenvalues --    0.11532   0.12001   0.12241   0.13015   0.13211

 Mulliken charges and spin densities:
               1          2
     1  C    0.736877  -1.462647
     2  C   -0.757175   1.124726
     3  C   -0.002330  -0.564482
     4  C    0.132681  -0.192295
     5  C    0.425901  -1.076354
     6  C   -1.068149   0.548650
     7  S    0.751351  -0.228290
     8  O   -0.455403   0.004764
     9  C   -1.168164   1.156400
    10  C    0.351485  -0.960257
    11  C    1.173144  -1.782092
    12  N   -0.364476   0.028960
    13  H   -0.039268   0.180998
    14  H   -0.581046   0.730759
    15  H   -0.386465   0.537172
    16  H    0.684061  -0.566662
    17  H   -0.077782   0.203483
    18  H   -0.012104   0.140465
    19  H   -0.230006   0.381571
    20  H    0.106978   0.036379
    21  H    0.092802   0.077714
    22  H    0.208091  -0.015562
    23  H   -0.089127   0.254295
    24  H    0.165416   0.131590
    25  H    0.459514  -0.350747
    26  H    0.211074   0.063611
    27  H   -0.187232   0.354466
    28  H   -0.102742   0.255670
    29  H    0.178187   0.001988
    30  H   -0.430184   0.620910
    31  H   -0.694284   0.859344
    32  H   -0.159884   0.414942
    33  H    0.128258   0.090534
 Sum of Mulliken charges =  -1.00000   1.00000

 Dipole moment (field-independent basis, Debye):
    X=             -0.5216    Y=             -4.8654    Z=             -2.9203  Tot=              5.6985
 Quadrupole moment (field-independent basis, Debye-Ang):
   XX=           -143.5832   YY=           -141.1926   ZZ=           -128.9386
   XY=             -5.9479   XZ=             -6.2294   YZ=             -8.5342

 Summary of Natural Population Analysis:

                                       Natural Population
                Natural  -----------------------------------------------
    Atom  No    Charge         Core      Valence    Rydberg      Total
 -----------------------------------------------------------------------
      C    1   -0.28570      0.99965     2.27957    0.00648     3.28570
      C    2   -0.12313      0.99961     2.11308    0.01043     3.12313
      C    3   -0.28095      0.99965     2.27527    0.00604     3.28095
      C    4   -0.18995      0.99961     2.18128    0.00907     3.18995
      C    5   -0.19808      0.99962     2.18942    0.00903     3.19808
      C    6   -0.28374      0.99959     2.27212    0.01203     3.28374
      S    7    0.58025      4.99939     2.36987    0.05048     7.41975
      O    8   -0.48973      0.99993     3.48416    0.00563     4.48973
      C    9   -0.18693      0.99956     2.17248    0.01488     3.18693
      C   10   -0.29887      0.99963     2.29259    0.00665     3.29887
      C   11   -0.09767      0.99959     2.08476    0.01333     3.09767
      N   12   -0.42276      0.99977     2.91196    0.01103     3.92276
      H   13    0.09469      0.00000     0.40421    0.00109     0.40531
      H   14    0.10043      0.00000     0.39788    0.00169     0.39957
      H   15    0.10428      0.00000     0.39430    0.00142     0.39572
      H   16    0.09079      0.00000     0.40569    0.00352     0.40921
      H   17    0.09447      0.00000     0.40464    0.00089     0.40553
      H   18    0.09731      0.00000     0.40177    0.00092     0.40269
      H   19    0.10260      0.00000     0.39642    0.00098     0.39740
      H   20    0.09915      0.00000     0.39969    0.00116     0.40085
      H   21    0.09704      0.00000     0.40209    0.00088     0.40296
      H   22    0.10394      0.00000     0.39504    0.00102     0.39606
      H   23    0.10330      0.00000     0.39568    0.00102     0.39670
      H   24    0.11207      0.00000     0.38678    0.00115     0.38793
      H   25    0.11028      0.00000     0.38671    0.00300     0.38972
      H   26    0.10869      0.00000     0.38982    0.00148     0.39131
      H   27    0.10194      0.00000     0.39699    0.00107     0.39806
      H   28    0.10430      0.00000     0.39482    0.00088     0.39570
      H   29    0.11321      0.00000     0.38580    0.00099     0.38679
      H   30    0.09947      0.00000     0.39849    0.00205     0.40053
      H   31    0.08482      0.00000     0.41156    0.00362     0.41518
      H   32    0.18187      0.00000     0.31563    0.00250     0.31813
      H   33    0.17257      0.00000     0.32414    0.00329     0.32743
 =======================================================================
   * Total *   -0.00000     15.99560    36.81470    0.18969    53.00000

 Normal termination of Gaussian 16 at Wed Dec  9 18:36:59 2020.
