 Gaussian 16, Revision A.03,

 -----------------------------------------------------------
 # opt freq B3LYP/6-31G(d) empiricaldispersion=gd3bj scf=xqc
 -----------------------------------------------------------

 -------------------------------
 CID_104349395_JID_8346_neutraal
 -------------------------------
 Symbolic Z-matrix:
 Charge =  0 Multiplicity = 1

 SCF Done:  E(RB3LYP) =  -825.242623970     A.U. after   15 cycles
 SCF Done:  E(RB3LYP) =  -825.248083250     A.U. after   13 cycles
 SCF Done:  E(RB3LYP) =  -825.248139387     A.U. after   12 cycles
 SCF Done:  E(RB3LYP) =  -825.249761744     A.U. after   12 cycles
 SCF Done:  E(RB3LYP) =  -825.250630193     A.U. after   12 cycles
 SCF Done:  E(RB3LYP) =  -825.251181902     A.U. after   13 cycles
 SCF Done:  E(RB3LYP) =  -825.252051436     A.U. after   12 cycles
 SCF Done:  E(RB3LYP) =  -825.252538971     A.U. after   11 cycles
 SCF Done:  E(RB3LYP) =  -825.253197836     A.U. after   13 cycles
 SCF Done:  E(RB3LYP) =  -825.253654745     A.U. after   12 cycles
 SCF Done:  E(RB3LYP) =  -825.255791824     A.U. after   11 cycles
 SCF Done:  E(RB3LYP) =  -825.255795470     A.U. after    9 cycles
 SCF Done:  E(RB3LYP) =  -825.255795704     A.U. after    8 cycles
 SCF Done:  E(RB3LYP) =  -825.255795837     A.U. after    7 cycles
 SCF Done:  E(RB3LYP) =  -825.255795888     A.U. after    6 cycles
 Optimization completed.
    -- Stationary point found.
 Normal termination of Gaussian 16 at Fri Dec 11 20:50:43 2020.

 --------------------------------------------------------------------
 #N Geom=AllCheck Guess=TCheck SCRF=Check GenChk RB3LYP/6-31G(d) Freq
 --------------------------------------------------------------------

 Structure from the checkpoint file:  "JID_8346.chk"
 -------------------------------
 CID_104349395_JID_8346_neutraal
 -------------------------------
 Charge =  0 Multiplicity = 1

 SCF Done:  E(RB3LYP) =  -825.255795888     A.U. after    1 cycles

  Exact polarizability: 203.530   3.627 147.077   5.376  -2.584 134.718
 Approx polarizability: 245.915  10.905 214.539  14.008  -1.311 213.155

                      1                      2                      3
                      A                      A                      A
 Frequencies --     15.8743                23.9655                38.9089
 Red. masses --      5.0023                 4.8883                 3.8904
 Frc consts  --      0.0007                 0.0017                 0.0035
 IR Inten    --      0.5218                 1.1529                 1.5744

                      4                      5                      6
                      A                      A                      A
 Frequencies --     40.6924                61.2059                73.2589
 Red. masses --      3.1639                 3.9751                 3.2546
 Frc consts  --      0.0031                 0.0088                 0.0103
 IR Inten    --      0.0671                 1.4487                 0.0362

                      7                      8                      9
                      A                      A                      A
 Frequencies --     98.0629               125.7526               143.7491
 Red. masses --      3.9562                 5.0659                 2.8831
 Frc consts  --      0.0224                 0.0472                 0.0351
 IR Inten    --      2.4532                 3.0432                 0.3012

                     10                     11                     12
                      A                      A                      A
 Frequencies --    157.4866               205.9928               230.9419
 Red. masses --      1.0740                 3.2492                 2.8028
 Frc consts  --      0.0157                 0.0812                 0.0881
 IR Inten    --      0.3189                 5.7000                 0.5571

                     13                     14                     15
                      A                      A                      A
 Frequencies --    234.2334               244.1022               262.1899
 Red. masses --      1.2046                 1.3591                 3.2345
 Frc consts  --      0.0389                 0.0477                 0.1310
 IR Inten    --      0.3435                 1.8488                 2.5933

                     16                     17                     18
                      A                      A                      A
 Frequencies --    290.9538               310.8076               337.8524
 Red. masses --      1.9558                 3.4216                 1.2656
 Frc consts  --      0.0975                 0.1947                 0.0851
 IR Inten    --      3.6526                 1.6811                24.8221

                     19                     20                     21
                      A                      A                      A
 Frequencies --    357.6638               369.9863               384.6306
 Red. masses --      4.7528                 2.1584                 1.8405
 Frc consts  --      0.3582                 0.1741                 0.1604
 IR Inten    --      0.8022                 0.6114                14.3796

                     22                     23                     24
                      A                      A                      A
 Frequencies --    393.1140               403.7294               421.0271
 Red. masses --      2.0567                 2.4487                 2.8367
 Frc consts  --      0.1873                 0.2352                 0.2963
 IR Inten    --      4.9311                 3.3226                14.9810

                     25                     26                     27
                      A                      A                      A
 Frequencies --    455.7062               474.7799               487.6547
 Red. masses --      2.3114                 2.7738                 3.1862
 Frc consts  --      0.2828                 0.3684                 0.4464
 IR Inten    --      1.3096                 0.6737                 8.0792

                     28                     29                     30
                      A                      A                      A
 Frequencies --    514.0706               527.4509               540.7074
 Red. masses --      2.2024                 2.7511                 2.0295
 Frc consts  --      0.3429                 0.4509                 0.3496
 IR Inten    --     16.0994                 8.5460                16.3960

                     31                     32                     33
                      A                      A                      A
 Frequencies --    561.3401               579.4496               632.6371
 Red. masses --      3.4871                 3.3106                 2.7293
 Frc consts  --      0.6474                 0.6549                 0.6436
 IR Inten    --      6.8441                 8.3007                28.1937

                     34                     35                     36
                      A                      A                      A
 Frequencies --    645.8918               681.4636               768.7122
 Red. masses --      1.8450                 2.8223                 3.0163
 Frc consts  --      0.4535                 0.7722                 1.0502
 IR Inten    --     46.8927                13.0931                 0.9925

                     37                     38                     39
                      A                      A                      A
 Frequencies --    822.0762               832.7707               844.1709
 Red. masses --      1.6913                 2.2596                 3.0658
 Frc consts  --      0.6734                 0.9233                 1.2872
 IR Inten    --      1.5465                 6.3739                 5.5779

                     40                     41                     42
                      A                      A                      A
 Frequencies --    861.7843               894.1105               926.8951
 Red. masses --      2.8684                 2.9767                 1.9455
 Frc consts  --      1.2551                 1.4021                 0.9848
 IR Inten    --      6.0283                56.9337                 6.8326

                     43                     44                     45
                      A                      A                      A
 Frequencies --    940.6510               942.1994               951.3348
 Red. masses --      1.7582                 1.6594                 1.3399
 Frc consts  --      0.9166                 0.8679                 0.7145
 IR Inten    --      5.0326               184.9311                 2.6209

                     46                     47                     48
                      A                      A                      A
 Frequencies --    965.7771               978.2006               998.1309
 Red. masses --      2.0971                 1.4603                 1.5453
 Frc consts  --      1.1525                 0.8233                 0.9070
 IR Inten    --     18.7995                 0.7262                 2.8083

                     49                     50                     51
                      A                      A                      A
 Frequencies --   1011.2663              1030.6880              1037.5201
 Red. masses --      2.1217                 1.9151                 1.9532
 Frc consts  --      1.2784                 1.1986                 1.2388
 IR Inten    --     48.8991                10.0970                 4.0381

                     52                     53                     54
                      A                      A                      A
 Frequencies --   1056.4210              1064.0397              1089.8357
 Red. masses --      1.8731                 1.7320                 1.4359
 Frc consts  --      1.2316                 1.1554                 1.0048
 IR Inten    --     77.9564                 3.9813                 2.4539

                     55                     56                     57
                      A                      A                      A
 Frequencies --   1122.2693              1126.8182              1131.1844
 Red. masses --      2.6166                 1.8588                 2.3782
 Frc consts  --      1.9417                 1.3905                 1.7929
 IR Inten    --      1.7247                64.4027                 1.8042

                     58                     59                     60
                      A                      A                      A
 Frequencies --   1151.1812              1172.6698              1192.8944
 Red. masses --      1.9990                 2.7192                 1.2417
 Frc consts  --      1.5608                 2.2031                 1.0410
 IR Inten    --      0.1024                80.0098                 4.1440

                     61                     62                     63
                      A                      A                      A
 Frequencies --   1205.9634              1232.1215              1238.8048
 Red. masses --      1.7389                 2.4912                 1.6902
 Frc consts  --      1.4900                 2.2282                 1.5283
 IR Inten    --      4.0197                 9.3884                60.1466

                     64                     65                     66
                      A                      A                      A
 Frequencies --   1262.3961              1268.0493              1293.4084
 Red. masses --      1.3152                 1.7201                 1.3053
 Frc consts  --      1.2349                 1.6295                 1.2865
 IR Inten    --      6.9671                13.9798                 9.3921

                     67                     68                     69
                      A                      A                      A
 Frequencies --   1304.8550              1316.8615              1340.7764
 Red. masses --      1.8824                 1.4149                 1.2817
 Frc consts  --      1.8884                 1.4456                 1.3576
 IR Inten    --     23.5632                31.2279                24.7176

                     70                     71                     72
                      A                      A                      A
 Frequencies --   1349.4607              1362.4521              1376.4795
 Red. masses --      1.2957                 2.1799                 1.3811
 Frc consts  --      1.3902                 2.3841                 1.5418
 IR Inten    --      0.5996               256.9017                 7.7317

                     73                     74                     75
                      A                      A                      A
 Frequencies --   1385.7392              1389.7075              1393.9847
 Red. masses --      1.3320                 1.3471                 1.4006
 Frc consts  --      1.5070                 1.5328                 1.6035
 IR Inten    --      4.2859                 5.4878                 4.1372

                     76                     77                     78
                      A                      A                      A
 Frequencies --   1409.6037              1414.8162              1419.6140
 Red. masses --      1.3272                 1.4968                 1.3769
 Frc consts  --      1.5537                 1.7653                 1.6349
 IR Inten    --     13.9474                 8.7757                33.7831

                     79                     80                     81
                      A                      A                      A
 Frequencies --   1422.6695              1425.2686              1436.1405
 Red. masses --      1.2780                 1.5488                 1.3183
 Frc consts  --      1.5240                 1.8536                 1.6020
 IR Inten    --      6.9814                90.2188                 8.6826

                     82                     83                     84
                      A                      A                      A
 Frequencies --   1449.2713              1484.4173              1494.6546
 Red. masses --      1.2817                 2.0836                 1.2028
 Frc consts  --      1.5861                 2.7051                 1.5831
 IR Inten    --     11.6093               148.0965                19.5990

                     85                     86                     87
                      A                      A                      A
 Frequencies --   1499.9231              1503.5395              1504.3215
 Red. masses --      1.6734                 1.0702                 1.0871
 Frc consts  --      2.2182                 1.4254                 1.4494
 IR Inten    --     69.7780                 7.6604                 4.5277

                     88                     89                     90
                      A                      A                      A
 Frequencies --   1515.6212              1518.8420              1519.9321
 Red. masses --      1.0765                 1.0743                 1.0549
 Frc consts  --      1.4570                 1.4601                 1.4358
 IR Inten    --      4.3067                29.5056                 2.9977

                     91                     92                     93
                      A                      A                      A
 Frequencies --   1522.5877              1525.2213              1536.8057
 Red. masses --      1.1128                 1.0501                 1.0493
 Frc consts  --      1.5200                 1.4393                 1.4602
 IR Inten    --      4.0096                 6.6796                 1.6838

                     94                     95                     96
                      A                      A                      A
 Frequencies --   1537.5590              1547.3136              1700.0686
 Red. masses --      1.1173                 1.0512                 1.1846
 Frc consts  --      1.5563                 1.4829                 2.0173
 IR Inten    --      6.8308                 6.1898                68.0448

                     97                     98                     99
                      A                      A                      A
 Frequencies --   1731.3679              1799.3806              3013.5247
 Red. masses --      5.6341                 7.9757                 1.0822
 Frc consts  --      9.9507                15.2147                 5.7904
 IR Inten    --    255.3559               417.2783                28.3502

                    100                    101                    102
                      A                      A                      A
 Frequencies --   3019.2923              3029.3337              3033.1646
 Red. masses --      1.0751                 1.0733                 1.0390
 Frc consts  --      5.7744                 5.8033                 5.6318
 IR Inten    --     25.2624                44.2256                26.2437

                    103                    104                    105
                      A                      A                      A
 Frequencies --   3036.7334              3039.1120              3043.7917
 Red. masses --      1.0569                 1.0579                 1.0653
 Frc consts  --      5.7422                 5.7569                 5.8151
 IR Inten    --     29.5717                21.7462                19.9155

                    106                    107                    108
                      A                      A                      A
 Frequencies --   3049.3213              3057.5223              3063.2757
 Red. masses --      1.0620                 1.0432                 1.0819
 Frc consts  --      5.8183                 5.7456                 5.9812
 IR Inten    --     16.7098                 2.4281                 8.2485

                    109                    110                    111
                      A                      A                      A
 Frequencies --   3067.5154              3094.4301              3096.6258
 Red. masses --      1.0773                 1.0991                 1.1026
 Frc consts  --      5.9723                 6.2011                 6.2293
 IR Inten    --     23.4899                32.4918                24.3280

                    112                    113                    114
                      A                      A                      A
 Frequencies --   3101.7727              3103.8642              3106.1175
 Red. masses --      1.0982                 1.1007                 1.0946
 Frc consts  --      6.2253                 6.2476                 6.2222
 IR Inten    --     80.3405                38.2939                44.9862

                    115                    116                    117
                      A                      A                      A
 Frequencies --   3112.2198              3117.7617              3152.3759
 Red. masses --      1.0979                 1.1008                 1.0983
 Frc consts  --      6.2657                 6.3041                 6.4304
 IR Inten    --     44.7418                13.5082                11.5796

                    118                    119                    120
                      A                      A                      A
 Frequencies --   3172.3636              3176.9193              3180.2666
 Red. masses --      1.0883                 1.0912                 1.0999
 Frc consts  --      6.4531                 6.4887                 6.5544
 IR Inten    --     14.2154                 3.5143                 9.7059

                    121                    122                    123
                      A                      A                      A
 Frequencies --   3462.4765              3549.3651              3575.3772
 Red. masses --      1.0495                 1.0917                 1.0754
 Frc consts  --      7.4130                 8.1034                 8.0998
 IR Inten    --     11.9619                12.3430                11.7833

 - Thermochemistry -
 -------------------
 Temperature   298.150 Kelvin.  Pressure   1.00000 Atm.
 Atom     1 has atomic number  6 and mass  12.00000

 Molecular mass:   255.19468 amu.
 Principal axes and moments of inertia in atomic units:
                           1         2         3
     Eigenvalues --  2186.30945********************
           X            0.99976  -0.02195   0.00249
           Y            0.02197   0.99969  -0.01142
           Z           -0.00224   0.01147   0.99993
 This molecule is an asymmetric top.
 Rotational symmetry number  1.
 Warning -- assumption of classical behavior for rotation
           may cause significant error
 Rotational temperatures (Kelvin)      0.03962     0.00845     0.00773
 Rotational constants (GHZ):           0.82547     0.17611     0.16104
 Zero-point vibrational energy    1012851.0 (Joules/Mol)
                                  242.07719 (Kcal/Mol)
 Warning -- explicit consideration of  32 degrees of freedom as
           vibrations may cause significant error
 Vibrational temperatures:     22.84    34.48    55.98    58.55    88.06
          (Kelvin)            105.40   141.09   180.93   206.82   226.59
                              296.38   332.27   337.01   351.21   377.23
                              418.62   447.18   486.09   514.60   532.33
                              553.40   565.60   580.88   605.76   655.66
                              683.10   701.63   739.63   758.88   777.96
                              807.64   833.70   910.22   929.29   980.47
                             1106.01  1182.78  1198.17  1214.57  1239.92
                             1286.43  1333.60  1353.39  1355.61  1368.76
                             1389.54  1407.41  1436.09  1454.99  1482.93
                             1492.76  1519.95  1530.92  1568.03  1614.70
                             1621.24  1627.52  1656.29  1687.21  1716.31
                             1735.11  1772.75  1782.36  1816.31  1824.44
                             1860.93  1877.40  1894.67  1929.08  1941.57
                             1960.26  1980.45  1993.77  1999.48  2005.63
                             2028.11  2035.60  2042.51  2046.90  2050.64
                             2066.29  2085.18  2135.75  2150.47  2158.05
                             2163.26  2164.38  2180.64  2185.27  2186.84
                             2190.66  2194.45  2211.12  2212.20  2226.24
                             2446.02  2491.05  2588.91  4335.79  4344.09
                             4358.54  4364.05  4369.18  4372.60  4379.34
                             4387.29  4399.09  4407.37  4413.47  4452.19
                             4455.35  4462.76  4465.77  4469.01  4477.79
                             4485.76  4535.57  4564.32  4570.88  4575.69
                             4981.73  5106.74  5144.17

 Zero-point correction=                           0.385775 (Hartree/Particle)
 Thermal correction to Energy=                    0.405513
 Thermal correction to Enthalpy=                  0.406457
 Thermal correction to Gibbs Free Energy=         0.335505
 Sum of electronic and zero-point Energies=           -824.870021
 Sum of electronic and thermal Energies=              -824.850283
 Sum of electronic and thermal Enthalpies=            -824.849339
 Sum of electronic and thermal Free Energies=         -824.920291

                     E (Thermal)             CV                S
                      KCal/Mol        Cal/Mol-Kelvin    Cal/Mol-Kelvin
 Total                  254.463             74.625            149.331
 Electronic               0.000              0.000              0.000
 Translational            0.889              2.981             42.511
 Rotational               0.889              2.981             33.884
 Vibrational            252.686             68.663             72.936
 Vibration     1          0.593              1.986              7.093
 Vibration     2          0.593              1.985              6.275
 Vibration     3          0.594              1.981              5.314
 Vibration     4          0.594              1.981              5.225
 Vibration     5          0.597              1.973              4.418
 Vibration     6          0.599              1.967              4.064
 Vibration     7          0.604              1.951              3.492
 Vibration     8          0.611              1.927              3.010
 Vibration     9          0.616              1.909              2.753
 Vibration    10          0.621              1.894              2.580
 Vibration    11          0.640              1.831              2.079
 Vibration    12          0.653              1.794              1.872
 Vibration    13          0.654              1.788              1.846
 Vibration    14          0.659              1.773              1.773
 Vibration    15          0.669              1.742              1.647
 Vibration    16          0.687              1.691              1.468
 Vibration    17          0.700              1.653              1.358
 Vibration    18          0.718              1.600              1.222
 Vibration    19          0.733              1.560              1.132
 Vibration    20          0.742              1.534              1.080
 Vibration    21          0.754              1.503              1.021
 Vibration    22          0.760              1.485              0.988
 Vibration    23          0.769              1.462              0.949
 Vibration    24          0.784              1.425              0.888
 Vibration    25          0.814              1.348              0.779
 Vibration    26          0.831              1.306              0.724
 Vibration    27          0.844              1.277              0.690
 Vibration    28          0.869              1.219              0.624
 Vibration    29          0.882              1.189              0.593
 Vibration    30          0.896              1.160              0.564
 Vibration    31          0.917              1.115              0.521
 Vibration    32          0.936              1.076              0.486

                           ! Non-Optimized Parameters !
 Normal termination of Gaussian 16 at Fri Dec 11 21:11:47 2020.

 ----------------------------------------------------------------------
 # B3LYP/6-311++G(d,p) empiricaldispersion=gd3bj scf=xqc pop=npa geom=c
 heck
 ----------------------------------------------------------------------

 ---------------------------------------
 CID_104349395_JID_8346_Energie_neutraal
 ---------------------------------------
 Structure from the checkpoint file:  "JID_8346.chk"
 Charge =  0 Multiplicity = 1

 SCF Done:  E(RB3LYP) =  -825.501343943     A.U. after   16 cycles
 Normal termination of Gaussian 16 at Fri Dec 11 21:23:05 2020.

 ----------------------------------------------------------------------
 # B3LYP/6-311++G(d,p) empiricaldispersion=gd3bj scf=xqc pop=npa geom=c
 heck
 ----------------------------------------------------------------------

 -------------------------------------
 CID_104349395_JID_8346_Energie_kation
 -------------------------------------
 Structure from the checkpoint file:  "JID_8346.chk"
 Charge =  1 Multiplicity = 2

 SCF Done:  E(UB3LYP) =  -825.199007341     A.U. after   33 cycles
 SCF Done:  E(UB3LYP) =  -825.199007341     a.u. after    1 cycles
 Normal termination of Gaussian 16 at Fri Dec 11 21:56:39 2020.
 Gaussian 16:  ES64L-G16RevA.03 25-Dec-2016

 ----------------------------------------------------------------------
 # B3LYP/6-311++G(d,p) empiricaldispersion=gd3bj scf=xqc pop=npa geom=c
 heck
 ----------------------------------------------------------------------

 ------------------------------------
 CID_104349395_JID_8346_Energie_anion
 ------------------------------------
 Structure from the checkpoint file:  "JID_8346.chk"
 Charge = -1 Multiplicity = 2

                         Standard orientation:
 ---------------------------------------------------------------------
 Center     Atomic      Atomic             Coordinates (Angstroms)
 Number     Number       Type             X           Y           Z
 ---------------------------------------------------------------------
      1          6           0        2.184793   -2.178560   -0.104542
      2          6           0        3.376642   -1.299407    0.297863
      3          6           0        4.649606   -2.144978    0.420417
      4          6           0        3.613169   -0.123423   -0.680215
      5          6           0        2.309492    0.601949   -1.101359
      6          6           0        1.531356    1.188934    0.073354
      7          8           0        2.083865    1.431903    1.148350
      8          7           0        0.194852    1.454269   -0.103295
      9          6           0       -0.607827    1.862123    1.048217
     10          6           0       -1.612987    0.762061    1.409724
     11          6           0       -2.483135    0.384231    0.202457
     12          6           0       -1.601380    0.042756   -1.013961
     13          6           0       -0.598583    1.169870   -1.292971
     14          7           0       -3.388895   -0.698139    0.554636
     15          6           0       -4.641830   -0.951590    0.049857
     16          8           0       -5.217815   -2.003208    0.291646
     17          6           0       -5.280553    0.149152   -0.783941
     18          7           0        4.640057    0.762234   -0.123792
     19          1           0        2.293774   -2.552816   -1.131485
     20          1           0        1.229882   -1.644146   -0.039211
     21          1           0        2.113951   -3.050337    0.555236
     22          1           0        3.157439   -0.858883    1.277942
     23          1           0        4.864915   -2.661445   -0.525011
     24          1           0        5.505283   -1.511489    0.664191
     25          1           0        4.538338   -2.909325    1.198270
     26          1           0        4.024165   -0.551697   -1.606473
     27          1           0        2.569451    1.423893   -1.783798
     28          1           0        1.686401   -0.086331   -1.678423
     29          1           0       -1.138833    2.791305    0.796937
     30          1           0        0.075012    2.065963    1.871375
     31          1           0       -2.252841    1.086850    2.237617
     32          1           0       -1.056963   -0.122250    1.750069
     33          1           0       -3.095436    1.256637   -0.053788
     34          1           0       -1.055014   -0.887607   -0.811936
     35          1           0       -2.230135   -0.132347   -1.894975
     36          1           0        0.048231    0.925763   -2.133623
     37          1           0       -1.141949    2.086485   -1.566843
     38          1           0       -2.991936   -1.490751    1.047329
     39          1           0       -5.391132    1.073404   -0.205345
     40          1           0       -4.685610    0.382308   -1.674163
     41          1           0       -6.266242   -0.197910   -1.094331
     42          1           0        4.902182    1.462906   -0.815823
     43          1           0        4.213985    1.265002    0.654051
 ---------------------------------------------------------------------

 SCF Done:  E(UB3LYP) =  -825.497836890     A.U. after   31 cycles

 The electronic state is 2-A.
 Alpha  occ. eigenvalues --  -19.00034 -18.99963 -14.25571 -14.24806 -14.19826
 Alpha  occ. eigenvalues --  -10.18748 -10.18736 -10.13230 -10.11967 -10.11543
 Alpha  occ. eigenvalues --  -10.11525 -10.09362 -10.09031 -10.08813 -10.08606
 Alpha  occ. eigenvalues --  -10.08348 -10.07798 -10.07051  -0.95376  -0.95102
 Alpha  occ. eigenvalues --   -0.85886  -0.83854  -0.80222  -0.71387  -0.70705
 Alpha  occ. eigenvalues --   -0.68556  -0.66136  -0.64975  -0.60089  -0.59722
 Alpha  occ. eigenvalues --   -0.56265  -0.54718  -0.51885  -0.49709  -0.48176
 Alpha  occ. eigenvalues --   -0.46049  -0.42342  -0.41083  -0.39583  -0.39203
 Alpha  occ. eigenvalues --   -0.38715  -0.38295  -0.37497  -0.36991  -0.36289
 Alpha  occ. eigenvalues --   -0.34964  -0.34494  -0.34128  -0.32697  -0.32225
 Alpha  occ. eigenvalues --   -0.31795  -0.31239  -0.31162  -0.30421  -0.29974
 Alpha  occ. eigenvalues --   -0.29521  -0.29063  -0.28149  -0.27578  -0.26832
 Alpha  occ. eigenvalues --   -0.25740  -0.25261  -0.25050  -0.24795  -0.23610
 Alpha  occ. eigenvalues --   -0.17576  -0.17333  -0.16613  -0.15975  -0.15169
 Alpha  occ. eigenvalues --    0.03570
 Alpha virt. eigenvalues --    0.05645   0.06364   0.06929   0.07633   0.07871
 Alpha virt. eigenvalues --    0.08142   0.09031   0.09427   0.09764   0.09861
 Alpha virt. eigenvalues --    0.10230   0.10442   0.10764   0.11113   0.11444

  Beta  occ. eigenvalues --  -19.00022 -18.99959 -14.25576 -14.24801 -14.19821
  Beta  occ. eigenvalues --  -10.18746 -10.18728 -10.13215 -10.11924 -10.11521
  Beta  occ. eigenvalues --  -10.11519 -10.09352 -10.09008 -10.08789 -10.08604
  Beta  occ. eigenvalues --  -10.08306 -10.07786 -10.07048  -0.95355  -0.95094
  Beta  occ. eigenvalues --   -0.85870  -0.83840  -0.80208  -0.71360  -0.70693
  Beta  occ. eigenvalues --   -0.68512  -0.66097  -0.64922  -0.60068  -0.59685
  Beta  occ. eigenvalues --   -0.56214  -0.54681  -0.51843  -0.49678  -0.48153
  Beta  occ. eigenvalues --   -0.45989  -0.42304  -0.41048  -0.39548  -0.39167
  Beta  occ. eigenvalues --   -0.38678  -0.38270  -0.37476  -0.36959  -0.36262
  Beta  occ. eigenvalues --   -0.34943  -0.34466  -0.34093  -0.32672  -0.32191
  Beta  occ. eigenvalues --   -0.31770  -0.31202  -0.31128  -0.30404  -0.29959
  Beta  occ. eigenvalues --   -0.29484  -0.29034  -0.28118  -0.27528  -0.26794
  Beta  occ. eigenvalues --   -0.25705  -0.25235  -0.25028  -0.24778  -0.23594
  Beta  occ. eigenvalues --   -0.17564  -0.17312  -0.16599  -0.15948  -0.15150
  Beta virt. eigenvalues --    0.05826   0.06417   0.06667   0.07535   0.07767
  Beta virt. eigenvalues --    0.08243   0.08511   0.09246   0.09736   0.09942
  Beta virt. eigenvalues --    0.10085   0.10325   0.10707   0.11052   0.11371

 Mulliken charges and spin densities:
               1          2
     1  C   -0.602092  -0.202657
     2  C    0.193515   0.450096
     3  C   -0.507402  -0.077951
     4  C    0.530763  -1.064683
     5  C   -0.068983  -0.227943
     6  C   -0.756543   0.287840
     7  O   -0.299320   0.005327
     8  N    0.067647   0.171644
     9  C    0.638263  -0.895297
    10  C   -0.464640   0.594927
    11  C   -0.339901  -0.839874
    12  C    0.271808   0.028427
    13  C    0.982025  -1.643192
    14  N   -0.046149   0.142553
    15  C   -0.398643   0.525657
    16  O   -0.347547  -0.004545
    17  C    0.797312  -1.244773
    18  N   -0.297973   0.048756
    19  H   -0.100308   0.256598
    20  H    0.653195  -0.508104
    21  H    0.071011   0.053803
    22  H    0.145448   0.052199
    23  H    0.118939  -0.005912
    24  H    0.155667   0.023135
    25  H    0.111401   0.009760
    26  H   -0.044286   0.252938
    27  H   -0.277047   0.514325
    28  H    0.362044  -0.209884
    29  H   -0.536149   0.724112
    30  H    0.267968  -0.042631
    31  H   -0.036035   0.256826
    32  H    0.035333   0.085942
    33  H    0.304391  -0.128073
    34  H   -0.278428   0.416042
    35  H   -0.118001   0.327522
    36  H   -0.766151   0.960185
    37  H   -0.491246   0.693886
    38  H    0.210888   0.070969
    39  H   -0.355918   0.527135
    40  H   -0.304440   0.468031
    41  H    0.093914   0.095938
    42  H    0.180018   0.035298
    43  H    0.245652   0.015650
 Sum of Mulliken charges =  -1.00000   1.00000

 Dipole moment (field-independent basis, Debye):
    X=              5.4836    Y=             -2.9644    Z=              3.7918  Tot=              7.2962
 Quadrupole moment (field-independent basis, Debye-Ang):
   XX=           -219.4178   YY=           -161.2841   ZZ=           -155.9930
   XY=             -2.7177   XZ=             -5.2708   YZ=              3.6858

 Summary of Natural Population Analysis:

                                       Natural Population
                Natural  -----------------------------------------------
    Atom  No    Charge         Core      Valence    Rydberg      Total
 -----------------------------------------------------------------------
      C    1   -0.28597      0.99965     2.28050    0.00582     3.28597
      C    2   -0.12057      0.99959     2.11128    0.00970     3.12057
      C    3   -0.28424      0.99965     2.27989    0.00469     3.28424
      C    4   -0.00582      0.99959     1.99205    0.01418     3.00582
      C    5   -0.24251      0.99957     2.23325    0.00969     3.24251
      C    6    0.35305      0.99963     1.62473    0.02258     2.64695
      O    7   -0.34088      0.99988     3.33634    0.00467     4.34088
      N    8   -0.25568      0.99964     2.74349    0.01255     3.75568
      C    9   -0.08732      0.99960     2.07708    0.01064     3.08732
      C   10   -0.19310      0.99961     2.18512    0.00838     3.19310
      C   11   -0.01607      0.99956     2.00412    0.01239     3.01607
      C   12   -0.19658      0.99960     2.18792    0.00906     3.19658
      C   13   -0.08554      0.99960     2.07374    0.01220     3.08554
      N   14   -0.32165      0.99966     2.81221    0.00978     3.82165
      C   15    0.34593      0.99970     1.63204    0.02233     2.65407
      O   16   -0.32491      0.99988     3.31901    0.00603     4.32491
      C   17   -0.33592      0.99962     2.33155    0.00475     3.33592
      N   18   -0.43010      0.99977     2.92102    0.00931     3.93010
      H   19    0.09696      0.00000     0.40224    0.00079     0.40304
      H   20    0.09784      0.00000     0.40095    0.00121     0.40216
      H   21    0.09843      0.00000     0.40086    0.00071     0.40157
      H   22    0.10305      0.00000     0.39535    0.00160     0.39695
      H   23    0.09225      0.00000     0.40692    0.00083     0.40775
      H   24    0.11052      0.00000     0.38856    0.00092     0.38948
      H   25    0.09357      0.00000     0.40569    0.00074     0.40643
      H   26    0.08933      0.00000     0.40923    0.00144     0.41067
      H   27    0.11370      0.00000     0.38496    0.00134     0.38630
      H   28    0.11005      0.00000     0.38815    0.00179     0.38995
      H   29    0.09719      0.00000     0.40137    0.00144     0.40281
      H   30    0.11825      0.00000     0.38067    0.00108     0.38175
      H   31    0.10644      0.00000     0.39258    0.00098     0.39356
      H   32    0.09560      0.00000     0.40306    0.00134     0.40440
      H   33    0.10395      0.00000     0.39231    0.00374     0.39605
      H   34    0.09564      0.00000     0.40257    0.00180     0.40436
      H   35    0.10828      0.00000     0.39001    0.00170     0.39172
      H   36    0.10925      0.00000     0.38833    0.00242     0.39075
      H   37    0.10151      0.00000     0.39460    0.00389     0.39849
      H   38    0.19125      0.00000     0.30650    0.00225     0.30875
      H   39    0.11173      0.00000     0.38705    0.00122     0.38827
      H   40    0.11262      0.00000     0.38601    0.00137     0.38738
      H   41    0.11212      0.00000     0.38713    0.00076     0.38788
      H   42    0.17058      0.00000     0.32790    0.00152     0.32942
      H   43    0.18776      0.00000     0.31040    0.00184     0.31224
 =======================================================================
   * Total *    0.00000     17.99379    51.77875    0.22746    70.00000

 Normal termination of Gaussian 16 at Fri Dec 11 22:28:30 2020.
