 Gaussian 16, Revision A.03,

 -----------------------------------------------------------
 # opt freq B3LYP/6-31G(d) empiricaldispersion=gd3bj scf=xqc
 -----------------------------------------------------------

 -------------------------------
 CID_138457007_JID_2318_neutraal
 -------------------------------
 Symbolic Z-matrix:
 Charge =  0 Multiplicity = 1

 SCF Done:  E(RB3LYP) =  -500.268362304     A.U. after   14 cycles
 SCF Done:  E(RB3LYP) =  -500.270239170     A.U. after   11 cycles
 SCF Done:  E(RB3LYP) =  -500.270419930     A.U. after   10 cycles
 SCF Done:  E(RB3LYP) =  -500.270450749     A.U. after   10 cycles
 SCF Done:  E(RB3LYP) =  -500.270483514     A.U. after   10 cycles
 SCF Done:  E(RB3LYP) =  -500.270514235     A.U. after   11 cycles
 SCF Done:  E(RB3LYP) =  -500.270622645     A.U. after   13 cycles
 SCF Done:  E(RB3LYP) =  -500.270594853     A.U. after   13 cycles
 SCF Done:  E(RB3LYP) =  -500.271026650     A.U. after   12 cycles
 SCF Done:  E(RB3LYP) =  -500.270556104     A.U. after   14 cycles
 SCF Done:  E(RB3LYP) =  -500.271488989     A.U. after    9 cycles
 SCF Done:  E(RB3LYP) =  -500.271489719     A.U. after    8 cycles
 SCF Done:  E(RB3LYP) =  -500.271489826     A.U. after    7 cycles
 SCF Done:  E(RB3LYP) =  -500.271489859     A.U. after    7 cycles
 SCF Done:  E(RB3LYP) =  -500.271489858     A.U. after    6 cycles
 Optimization completed.
    -- Stationary point found.
 Normal termination of Gaussian 16 at Wed Dec  9 17:06:39 2020.

 --------------------------------------------------------------------
 #N Geom=AllCheck Guess=TCheck SCRF=Check GenChk RB3LYP/6-31G(d) Freq
 --------------------------------------------------------------------

 Structure from the checkpoint file:  "JID_2318.chk"
 -------------------------------
 CID_138457007_JID_2318_neutraal
 -------------------------------
 Charge =  0 Multiplicity = 1

 SCF Done:  E(RB3LYP) =  -500.271489858     A.U. after    1 cycles

  Exact polarizability: 147.655   0.361 115.018   9.176  -1.395  82.646
 Approx polarizability: 192.021   1.331 186.478  22.653  -5.559 123.803

                      1                      2                      3
                      A                      A                      A
 Frequencies --     26.0046                34.9141                61.1510
 Red. masses --      2.9838                 2.4960                 2.7109
 Frc consts  --      0.0012                 0.0018                 0.0060
 IR Inten    --      0.3179                 0.1238                 0.1470

                      4                      5                      6
                      A                      A                      A
 Frequencies --     87.4193               137.1731               211.4029
 Red. masses --      4.1503                 3.5790                 1.3650
 Frc consts  --      0.0187                 0.0397                 0.0359
 IR Inten    --      0.6330                 0.2560                 0.2334

                      7                      8                      9
                      A                      A                      A
 Frequencies --    226.7041               241.9950               248.2025
 Red. masses --      1.1175                 2.2365                 1.2072
 Frc consts  --      0.0338                 0.0772                 0.0438
 IR Inten    --      0.3068                 0.0434                 0.1658

                     10                     11                     12
                      A                      A                      A
 Frequencies --    291.3944               302.7680               318.9815
 Red. masses --      3.3062                 1.9950                 2.8037
 Frc consts  --      0.1654                 0.1077                 0.1681
 IR Inten    --      0.4199                 0.3163                 0.7148

                     13                     14                     15
                      A                      A                      A
 Frequencies --    386.9885               418.6736               427.2414
 Red. masses --      2.3370                 2.5734                 1.8962
 Frc consts  --      0.2062                 0.2658                 0.2039
 IR Inten    --      0.7743                 0.2045                 0.4103

                     16                     17                     18
                      A                      A                      A
 Frequencies --    478.4241               555.9887               601.0413
 Red. masses --      2.8453                 3.9874                 4.5187
 Frc consts  --      0.3837                 0.7262                 0.9618
 IR Inten    --     10.3768                 2.9435                 7.9450

                     19                     20                     21
                      A                      A                      A
 Frequencies --    696.9374               794.9754               808.9579
 Red. masses --      5.5350                 1.9528                 2.1937
 Frc consts  --      1.5840                 0.7271                 0.8458
 IR Inten    --      2.7554                 2.0157                 4.0208

                     22                     23                     24
                      A                      A                      A
 Frequencies --    815.7811               836.8602               899.0877
 Red. masses --      2.6728                 2.4140                 1.6888
 Frc consts  --      1.0480                 0.9961                 0.8043
 IR Inten    --      5.3025                 1.0440                10.6069

                     25                     26                     27
                      A                      A                      A
 Frequencies --    909.2121               924.1884               945.7306
 Red. masses --      1.4846                 2.5913                 1.2048
 Frc consts  --      0.7231                 1.3040                 0.6349
 IR Inten    --      0.5243                11.6179                 0.7744

                     28                     29                     30
                      A                      A                      A
 Frequencies --    968.0618               981.1478               988.7424
 Red. masses --      2.0771                 1.5078                 1.4461
 Frc consts  --      1.1469                 0.8552                 0.8329
 IR Inten    --      0.3231                 0.0767                 0.0767

                     31                     32                     33
                      A                      A                      A
 Frequencies --   1007.7423              1014.6438              1089.1170
 Red. masses --      2.7691                 5.8765                 1.7616
 Frc consts  --      1.6569                 3.5645                 1.2312
 IR Inten    --      5.3851                 4.4742                10.2300

                     34                     35                     36
                      A                      A                      A
 Frequencies --   1100.4817              1113.4913              1148.8300
 Red. masses --      1.6169                 1.5075                 2.1909
 Frc consts  --      1.1538                 1.1013                 1.7037
 IR Inten    --      3.1827                 5.6733                 3.0664

                     37                     38                     39
                      A                      A                      A
 Frequencies --   1190.3129              1204.4817              1242.7423
 Red. masses --      1.5499                 1.7352                 2.2895
 Frc consts  --      1.2938                 1.4832                 2.0833
 IR Inten    --      3.5615                10.7367                 0.6845

                     40                     41                     42
                      A                      A                      A
 Frequencies --   1265.2682              1295.1786              1306.6783
 Red. masses --      2.3788                 1.8608                 1.7474
 Frc consts  --      2.2437                 1.8391                 1.7578
 IR Inten    --      3.8258                 6.7484                 0.5977

                     43                     44                     45
                      A                      A                      A
 Frequencies --   1331.2979              1358.4402              1366.7752
 Red. masses --      1.4979                 1.6494                 1.4275
 Frc consts  --      1.5642                 1.7934                 1.5712
 IR Inten    --      4.9703                 8.1148                10.5474

                     46                     47                     48
                      A                      A                      A
 Frequencies --   1385.5134              1389.8446              1416.5729
 Red. masses --      1.4305                 1.3833                 2.9913
 Frc consts  --      1.6179                 1.5744                 3.5366
 IR Inten    --      1.3773                 7.3477                27.7679

                     49                     50                     51
                      A                      A                      A
 Frequencies --   1431.8884              1433.0663              1451.6098
 Red. masses --      1.2601                 1.3341                 1.2364
 Frc consts  --      1.5221                 1.6143                 1.5350
 IR Inten    --      2.0700                 5.4446                 4.8559

                     52                     53                     54
                      A                      A                      A
 Frequencies --   1506.4737              1510.7009              1515.7680
 Red. masses --      1.1263                 1.1179                 1.1397
 Frc consts  --      1.5060                 1.5032                 1.5428
 IR Inten    --      2.7221                 2.3142                 0.5540

                     55                     56                     57
                      A                      A                      A
 Frequencies --   1519.6919              1524.3682              1526.2013
 Red. masses --      1.6166                 1.0861                 1.0452
 Frc consts  --      2.1997                 1.4870                 1.4345
 IR Inten    --      7.4467                 1.6648                11.3510

                     58                     59                     60
                      A                      A                      A
 Frequencies --   1534.5816              1537.7512              1540.4257
 Red. masses --      1.0527                 1.0529                 1.0881
 Frc consts  --      1.4606                 1.4669                 1.5213
 IR Inten    --      1.8537                 9.1231                 2.1662

                     61                     62                     63
                      A                      A                      A
 Frequencies --   1596.7513              1642.8788              3015.5597
 Red. masses --      7.6965                 6.3411                 1.0833
 Frc consts  --     11.5617                10.0839                 5.8040
 IR Inten    --     78.8121               252.6584                17.0746

                     64                     65                     66
                      A                      A                      A
 Frequencies --   3039.5723              3046.6321              3050.5611
 Red. masses --      1.0364                 1.0523                 1.0457
 Frc consts  --      5.6415                 5.7545                 5.7336
 IR Inten    --     22.7870                36.8029                19.9540

                     67                     68                     69
                      A                      A                      A
 Frequencies --   3055.6239              3056.9876              3096.3769
 Red. masses --      1.0414                 1.0531                 1.1039
 Frc consts  --      5.7289                 5.7985                 6.2355
 IR Inten    --     22.4214                27.6264                 9.2182

                     70                     71                     72
                      A                      A                      A
 Frequencies --   3102.3320              3106.1179              3111.4438
 Red. masses --      1.1016                 1.1021                 1.1023
 Frc consts  --      6.2468                 6.2646                 6.2876
 IR Inten    --      2.1064                13.9360                35.0900

                     73                     74                     75
                      A                      A                      A
 Frequencies --   3114.6320              3124.0676              3131.8011
 Red. masses --      1.1016                 1.1032                 1.1005
 Frc consts  --      6.2962                 6.3437                 6.3594
 IR Inten    --     66.3497                38.8007                32.3494

                     76                     77                     78
                      A                      A                      A
 Frequencies --   3141.7643              3180.3040              3197.0384
 Red. masses --      1.1030                 1.0906                 1.0915
 Frc consts  --      6.4144                 6.4988                 6.5733
 IR Inten    --     23.1897                39.5605                 6.7703

 - Thermochemistry -
 -------------------
 Temperature   298.150 Kelvin.  Pressure   1.00000 Atm.
 Atom     1 has atomic number  6 and mass  12.00000

 Molecular mass:   164.13135 amu.
 Principal axes and moments of inertia in atomic units:
                           1         2         3
     Eigenvalues --   915.642103879.418414331.80102
           X            0.99997  -0.00768  -0.00328
           Y            0.00774   0.99976   0.02072
           Z            0.00312  -0.02075   0.99978
 This molecule is an asymmetric top.
 Rotational symmetry number  1.
 Warning -- assumption of classical behavior for rotation
           may cause significant error
 Rotational temperatures (Kelvin)      0.09459     0.02233     0.01999
 Rotational constants (GHZ):           1.97101     0.46521     0.41663
 Zero-point vibrational energy     650149.7 (Joules/Mol)
                                  155.38950 (Kcal/Mol)
 Warning -- explicit consideration of  18 degrees of freedom as
           vibrations may cause significant error
 Vibrational temperatures:     37.41    50.23    87.98   125.78   197.36
          (Kelvin)            304.16   326.18   348.18   357.11   419.25
                              435.62   458.94   556.79   602.38   614.71
                              688.35   799.94   864.76  1002.74  1143.79
                             1163.91  1173.73  1204.06  1293.59  1308.15
                             1329.70  1360.70  1392.82  1411.65  1422.58
                             1449.92  1459.85  1567.00  1583.35  1602.07
                             1652.91  1712.59  1732.98  1788.03  1820.44
                             1863.47  1880.02  1915.44  1954.49  1966.48
                             1993.44  1999.68  2038.13  2060.17  2061.86
                             2088.54  2167.48  2173.56  2180.85  2186.50
                             2193.23  2195.86  2207.92  2212.48  2216.33
                             2297.37  2363.74  4338.72  4373.27  4383.42
                             4389.08  4396.36  4398.32  4455.00  4463.56
                             4469.01  4476.67  4481.26  4494.84  4505.96
                             4520.30  4575.75  4599.83

 Zero-point correction=                           0.247629 (Hartree/Particle)
 Thermal correction to Energy=                    0.260326
 Thermal correction to Enthalpy=                  0.261270
 Thermal correction to Gibbs Free Energy=         0.207170
 Sum of electronic and zero-point Energies=           -500.023861
 Sum of electronic and thermal Energies=              -500.011164
 Sum of electronic and thermal Enthalpies=            -500.010220
 Sum of electronic and thermal Free Energies=         -500.064319

                     E (Thermal)             CV                S
                      KCal/Mol        Cal/Mol-Kelvin    Cal/Mol-Kelvin
 Total                  163.357             46.730            113.862
 Electronic               0.000              0.000              0.000
 Translational            0.889              2.981             41.195
 Rotational               0.889              2.981             31.110
 Vibrational            161.579             40.769             41.557
 Vibration     1          0.593              1.985              6.113
 Vibration     2          0.594              1.983              5.529
 Vibration     3          0.597              1.973              4.420
 Vibration     4          0.601              1.958              3.717
 Vibration     5          0.614              1.916              2.843
 Vibration     6          0.643              1.823              2.032
 Vibration     7          0.650              1.800              1.905
 Vibration     8          0.658              1.776              1.788
 Vibration     9          0.662              1.766              1.743
 Vibration    10          0.687              1.690              1.466
 Vibration    11          0.694              1.668              1.402
 Vibration    12          0.705              1.637              1.315
 Vibration    13          0.755              1.498              1.012
 Vibration    14          0.782              1.430              0.896
 Vibration    15          0.789              1.411              0.868
 Vibration    16          0.835              1.298              0.714
 Vibration    17          0.911              1.127              0.532
 Vibration    18          0.959              1.030              0.448

                           ! Non-Optimized Parameters !
 Normal termination of Gaussian 16 at Wed Dec  9 17:13:17 2020.

 ----------------------------------------------------------------------
 # B3LYP/6-311++G(d,p) empiricaldispersion=gd3bj scf=xqc pop=npa geom=c
 heck
 ----------------------------------------------------------------------

 ---------------------------------------
 CID_138457007_JID_2318_Energie_neutraal
 ---------------------------------------
 Structure from the checkpoint file:  "JID_2318.chk"
 Charge =  0 Multiplicity = 1

 SCF Done:  E(RB3LYP) =  -500.404284709     A.U. after   14 cycles
 Normal termination of Gaussian 16 at Wed Dec  9 17:16:17 2020.

 ----------------------------------------------------------------------
 # B3LYP/6-311++G(d,p) empiricaldispersion=gd3bj scf=xqc pop=npa geom=c
 heck
 ----------------------------------------------------------------------

 -------------------------------------
 CID_138457007_JID_2318_Energie_kation
 -------------------------------------
 Structure from the checkpoint file:  "JID_2318.chk"
 Charge =  1 Multiplicity = 2

 SCF Done:  E(UB3LYP) =  -500.074432831     A.U. after   25 cycles
 Normal termination of Gaussian 16 at Wed Dec  9 17:24:04 2020.
 Gaussian 16:  ES64L-G16RevA.03 25-Dec-2016

 ----------------------------------------------------------------------
 # B3LYP/6-311++G(d,p) empiricaldispersion=gd3bj scf=xqc pop=npa geom=c
 heck
 ----------------------------------------------------------------------

 ------------------------------------
 CID_138457007_JID_2318_Energie_anion
 ------------------------------------
 Structure from the checkpoint file:  "JID_2318.chk"
 Charge = -1 Multiplicity = 2

                         Standard orientation:
 ---------------------------------------------------------------------
 Center     Atomic      Atomic             Coordinates (Angstroms)
 Number     Number       Type             X           Y           Z
 ---------------------------------------------------------------------
      1          6           0        4.120010   -1.033832   -0.306314
      2          6           0        2.978580   -1.027326    0.722815
      3          6           0        1.838066   -0.147831    0.279280
      4          6           0        0.604430   -0.662193   -0.116577
      5          6           0       -0.382416    0.233077   -0.541839
      6          7           0       -0.145622    1.555915   -0.569288
      7          6           0        1.070205    1.945993   -0.171822
      8          7           0        2.074630    1.177843    0.249931
      9          6           0       -1.753948   -0.240413   -0.940749
     10          6           0       -2.660780   -0.556264    0.273336
     11          6           0       -2.903556    0.685674    1.137831
     12          6           0       -3.984590   -1.162575   -0.204990
     13          1           0        3.782738   -1.446687   -1.263632
     14          1           0        4.960884   -1.638199    0.049638
     15          1           0        4.472598   -0.013129   -0.480969
     16          1           0        2.615022   -2.046747    0.895412
     17          1           0        3.356557   -0.644124    1.677996
     18          1           0        0.413876   -1.731322   -0.096542
     19          1           0        1.260326    3.017774   -0.195241
     20          1           0       -2.223825    0.537258   -1.552404
     21          1           0       -1.662198   -1.144784   -1.555857
     22          1           0       -2.141284   -1.306948    0.887402
     23          1           0       -3.410609    1.466583    0.558060
     24          1           0       -3.535103    0.439902    1.999156
     25          1           0       -1.967226    1.111014    1.510914
     26          1           0       -3.820337   -2.072178   -0.794625
     27          1           0       -4.627619   -1.420873    0.644006
     28          1           0       -4.532850   -0.449703   -0.833642
 ---------------------------------------------------------------------

 SCF Done:  E(UB3LYP) =  -500.395610782     A.U. after   33 cycles
 SCF Done:  E(UB3LYP) =  -500.395610782     a.u. after    1 cycles

 The electronic state is 2-A.
 Alpha  occ. eigenvalues --  -14.17468 -14.17156 -10.10562 -10.08467 -10.08031
 Alpha  occ. eigenvalues --  -10.07035 -10.05672 -10.05448 -10.05323 -10.05253
 Alpha  occ. eigenvalues --  -10.05109 -10.04671  -0.85014  -0.76072  -0.70505
 Alpha  occ. eigenvalues --   -0.67471  -0.63731  -0.58878  -0.58171  -0.53256
 Alpha  occ. eigenvalues --   -0.51713  -0.47271  -0.44812  -0.39594  -0.37524
 Alpha  occ. eigenvalues --   -0.35279  -0.33846  -0.33588  -0.32384  -0.32189
 Alpha  occ. eigenvalues --   -0.30190  -0.29142  -0.28409  -0.27153  -0.26045
 Alpha  occ. eigenvalues --   -0.25905  -0.23739  -0.23383  -0.23090  -0.22630
 Alpha  occ. eigenvalues --   -0.21993  -0.17181  -0.16847  -0.14897  -0.12295
 Alpha  occ. eigenvalues --    0.04778
 Alpha virt. eigenvalues --    0.06791   0.07794   0.08544   0.08930   0.09333
 Alpha virt. eigenvalues --    0.09658   0.10252   0.10304   0.11048   0.11693
 Alpha virt. eigenvalues --    0.11982   0.12393   0.13211   0.13500   0.13984

  Beta  occ. eigenvalues --  -14.17340 -14.16939 -10.10589 -10.08292 -10.07757
  Beta  occ. eigenvalues --  -10.07000 -10.05642 -10.05452 -10.05336 -10.05247
  Beta  occ. eigenvalues --  -10.05168 -10.04622  -0.84706  -0.75659  -0.70401
  Beta  occ. eigenvalues --   -0.67273  -0.63586  -0.58748  -0.58129  -0.53139
  Beta  occ. eigenvalues --   -0.51584  -0.47091  -0.44657  -0.39444  -0.37411
  Beta  occ. eigenvalues --   -0.35219  -0.33646  -0.33481  -0.32211  -0.32107
  Beta  occ. eigenvalues --   -0.30108  -0.28713  -0.28384  -0.27042  -0.25946
  Beta  occ. eigenvalues --   -0.25686  -0.23636  -0.23302  -0.22911  -0.22522
  Beta  occ. eigenvalues --   -0.21938  -0.16604  -0.16026  -0.14399  -0.12086
  Beta virt. eigenvalues --    0.07006   0.07842   0.08829   0.09087   0.09513
  Beta virt. eigenvalues --    0.09777   0.09973   0.10382   0.10577   0.11481
  Beta virt. eigenvalues --    0.11898   0.12217   0.12492   0.13185   0.13479

 Mulliken charges and spin densities:
               1          2
     1  C    0.722768  -1.362712
     2  C   -0.910023   0.717822
     3  C    0.286581  -0.156217
     4  C   -0.601040   0.216556
     5  C    0.540777   0.202262
     6  N   -0.097320   0.092988
     7  C   -0.142086   0.222605
     8  N   -0.120781   0.126200
     9  C    0.690337  -1.923701
    10  C   -0.505738   1.010244
    11  C   -0.387440  -0.329679
    12  C    0.494357  -1.127959
    13  H   -0.044816   0.173555
    14  H   -0.444044   0.584619
    15  H    0.096670   0.056760
    16  H   -0.140390   0.273513
    17  H   -0.136362   0.298054
    18  H   -0.531878   0.739700
    19  H    0.117787   0.049418
    20  H    0.101731   0.078394
    21  H    0.005903   0.146058
    22  H    0.041968   0.090506
    23  H    0.090577   0.034250
    24  H    0.027621   0.088062
    25  H    0.181922  -0.019196
    26  H   -0.302336   0.439424
    27  H   -0.025776   0.146054
    28  H   -0.008968   0.132423
 Sum of Mulliken charges =  -1.00000   1.00000

 Dipole moment (field-independent basis, Debye):
    X=             -3.4570    Y=              2.7739    Z=              0.8069  Tot=              4.5051
 Quadrupole moment (field-independent basis, Debye-Ang):
   XX=           -145.2036   YY=           -109.8197   ZZ=            -95.8206
   XY=              2.4562   XZ=             -6.3501   YZ=             -1.3888

 Summary of Natural Population Analysis:

                                       Natural Population
                Natural  -----------------------------------------------
    Atom  No    Charge         Core      Valence    Rydberg      Total
 -----------------------------------------------------------------------
      C    1   -0.27919      0.99966     2.27452    0.00501     3.27919
      C    2   -0.20667      0.99961     2.19697    0.01010     3.20667
      C    3    0.15260      0.99954     1.83339    0.01447     2.84740
      C    4   -0.15831      0.99944     2.15060    0.00827     3.15831
      C    5    0.16726      0.99954     1.81848    0.01471     2.83274
      N    6   -0.25030      0.99968     2.74063    0.00999     3.75030
      C    7    0.13466      0.99966     1.84656    0.01911     2.86534
      N    8   -0.23724      0.99968     2.72797    0.00958     3.73724
      C    9   -0.20780      0.99958     2.19721    0.01101     3.20780
      C   10   -0.10607      0.99961     2.09783    0.00862     3.10607
      C   11   -0.28513      0.99965     2.28059    0.00490     3.28513
      C   12   -0.28198      0.99965     2.27612    0.00621     3.28198
      H   13    0.09565      0.00000     0.40339    0.00096     0.40435
      H   14    0.09633      0.00000     0.40202    0.00166     0.40367
      H   15    0.10131      0.00000     0.39741    0.00127     0.39869
      H   16    0.09678      0.00000     0.40187    0.00135     0.40322
      H   17    0.10426      0.00000     0.39418    0.00156     0.39574
      H   18    0.10356      0.00000     0.39507    0.00137     0.39644
      H   19    0.07537      0.00000     0.42359    0.00104     0.42463
      H   20    0.10350      0.00000     0.39501    0.00149     0.39650
      H   21    0.10475      0.00000     0.39378    0.00147     0.39525
      H   22    0.09243      0.00000     0.40568    0.00189     0.40757
      H   23    0.09560      0.00000     0.40355    0.00084     0.40440
      H   24    0.09248      0.00000     0.40674    0.00079     0.40752
      H   25    0.10656      0.00000     0.39262    0.00083     0.39344
      H   26    0.10078      0.00000     0.39804    0.00118     0.39922
      H   27    0.09483      0.00000     0.40440    0.00077     0.40517
      H   28    0.09395      0.00000     0.40513    0.00092     0.40605
 =======================================================================
   * Total *   -0.00000     11.99530    32.86334    0.14136    45.00000

 Normal termination of Gaussian 16 at Wed Dec  9 17:34:25 2020.
