 Gaussian 16, Revision A.03,

 -----------------------------------------------------------
 # opt freq B3LYP/6-31G(d) empiricaldispersion=gd3bj scf=xqc
 -----------------------------------------------------------

 -------------------------------
 CID_134525835_JID_1983_neutraal
 -------------------------------
 Symbolic Z-matrix:
 Charge =  0 Multiplicity = 1

 SCF Done:  E(RB3LYP) =  -446.059549473     A.U. after   14 cycles
 SCF Done:  E(RB3LYP) =  -446.063100663     A.U. after   13 cycles
 SCF Done:  E(RB3LYP) =  -446.063438409     A.U. after   12 cycles
 SCF Done:  E(RB3LYP) =  -446.063511752     A.U. after   11 cycles
 SCF Done:  E(RB3LYP) =  -446.063576201     A.U. after   10 cycles
 SCF Done:  E(RB3LYP) =  -446.063647109     A.U. after   11 cycles
 SCF Done:  E(RB3LYP) =  -446.063669676     A.U. after   10 cycles
 SCF Done:  E(RB3LYP) =  -446.063675687     A.U. after   10 cycles
 SCF Done:  E(RB3LYP) =  -446.063725305     A.U. after   11 cycles
 SCF Done:  E(RB3LYP) =  -446.063333794     A.U. after   14 cycles
 SCF Done:  E(RB3LYP) =  -446.063794116     A.U. after   10 cycles
 SCF Done:  E(RB3LYP) =  -446.063794420     A.U. after    8 cycles
 SCF Done:  E(RB3LYP) =  -446.063795311     A.U. after    8 cycles
 SCF Done:  E(RB3LYP) =  -446.063795343     A.U. after    8 cycles
 SCF Done:  E(RB3LYP) =  -446.063795392     A.U. after    7 cycles
 Optimization completed.
    -- Stationary point found.
 Normal termination of Gaussian 16 at Tue Dec  8 21:56:04 2020.

 --------------------------------------------------------------------
 #N Geom=AllCheck Guess=TCheck SCRF=Check GenChk RB3LYP/6-31G(d) Freq
 --------------------------------------------------------------------

 Structure from the checkpoint file:  "JID_1983.chk"
 -------------------------------
 CID_134525835_JID_1983_neutraal
 -------------------------------
 Charge =  0 Multiplicity = 1

 SCF Done:  E(RB3LYP) =  -446.063795392     A.U. after    1 cycles

  Exact polarizability: 138.075 -27.345 113.707   3.026  10.083 108.707
 Approx polarizability: 189.108 -51.307 179.954   4.112  22.994 153.198

                      1                      2                      3
                      A                      A                      A
 Frequencies --     27.3799                51.2352                70.7135
 Red. masses --      2.8565                 2.8342                 1.9663
 Frc consts  --      0.0013                 0.0044                 0.0058
 IR Inten    --      0.5665                 0.1531                 0.0294

                      4                      5                      6
                      A                      A                      A
 Frequencies --     90.1674               124.6964               161.0286
 Red. masses --      3.1138                 2.4350                 1.1616
 Frc consts  --      0.0149                 0.0223                 0.0177
 IR Inten    --      0.5096                 1.4128                 0.8581

                      7                      8                      9
                      A                      A                      A
 Frequencies --    170.2433               188.1537               197.3656
 Red. masses --      1.1062                 2.8403                 2.5990
 Frc consts  --      0.0189                 0.0592                 0.0596
 IR Inten    --      0.4649                 0.2911                 1.1388

                     10                     11                     12
                      A                      A                      A
 Frequencies --    215.1925               242.2233               251.4870
 Red. masses --      2.4089                 1.6571                 1.1962
 Frc consts  --      0.0657                 0.0573                 0.0446
 IR Inten    --      2.4757                 1.8413                 0.2754

                     13                     14                     15
                      A                      A                      A
 Frequencies --    315.8126               374.4839               395.5495
 Red. masses --      2.7370                 2.8226                 3.6913
 Frc consts  --      0.1608                 0.2332                 0.3403
 IR Inten    --      2.1747                 1.1947                 1.9343

                     16                     17                     18
                      A                      A                      A
 Frequencies --    418.1461               500.6486               552.3699
 Red. masses --      2.3958                 2.9746                 3.4230
 Frc consts  --      0.2468                 0.4393                 0.6153
 IR Inten    --      2.1641                 3.7064                 1.1196

                     19                     20                     21
                      A                      A                      A
 Frequencies --    609.4638               643.5436               692.4714
 Red. masses --      2.6015                 4.1223                 1.5880
 Frc consts  --      0.5693                 1.0059                 0.4487
 IR Inten    --      5.3923                 2.6209                 4.1202

                     22                     23                     24
                      A                      A                      A
 Frequencies --    752.3141               803.7479               867.2551
 Red. masses --      1.1317                 2.8956                 1.3633
 Frc consts  --      0.3774                 1.1021                 0.6041
 IR Inten    --      1.7466                24.9212                 2.0875

                     25                     26                     27
                      A                      A                      A
 Frequencies --    887.8190               896.6927               898.7625
 Red. masses --      1.3895                 2.2010                 1.4536
 Frc consts  --      0.6453                 1.0427                 0.6918
 IR Inten    --      3.6993                15.7852                40.1036

                     28                     29                     30
                      A                      A                      A
 Frequencies --    920.5164               967.0487              1016.1308
 Red. masses --      2.1450                 1.5409                 1.6238
 Frc consts  --      1.0709                 0.8490                 0.9879
 IR Inten    --      1.2951                 7.5585                 1.9570

                     31                     32                     33
                      A                      A                      A
 Frequencies --   1040.3251              1044.3365              1055.2958
 Red. masses --      1.3748                 1.2259                 2.3312
 Frc consts  --      0.8767                 0.7877                 1.5296
 IR Inten    --      4.0000                 8.1974                 0.4040

                     34                     35                     36
                      A                      A                      A
 Frequencies --   1061.9575              1079.3211              1125.6380
 Red. masses --      1.6055                 1.5112                 1.9836
 Frc consts  --      1.0668                 1.0372                 1.4808
 IR Inten    --      9.6649                 5.1942                17.1904

                     37                     38                     39
                      A                      A                      A
 Frequencies --   1130.5830              1176.6696              1246.5769
 Red. masses --      2.0415                 2.3508                 2.0607
 Frc consts  --      1.5374                 1.9176                 1.8867
 IR Inten    --      5.7239                12.2479                20.4978

                     40                     41                     42
                      A                      A                      A
 Frequencies --   1249.1914              1298.3582              1328.2398
 Red. masses --      1.9253                 1.4627                 1.5028
 Frc consts  --      1.7701                 1.4528                 1.5621
 IR Inten    --      8.1341                15.7368                 8.8643

                     43                     44                     45
                      A                      A                      A
 Frequencies --   1333.6221              1345.7877              1381.1050
 Red. masses --      1.3230                 1.1175                 1.7509
 Frc consts  --      1.3863                 1.1924                 1.9677
 IR Inten    --      3.1318                 5.1928                37.5138

                     46                     47                     48
                      A                      A                      A
 Frequencies --   1398.4674              1429.0520              1435.1798
 Red. masses --      1.4480                 1.3190                 1.2782
 Frc consts  --      1.6685                 1.5870                 1.5512
 IR Inten    --      9.1607                16.8137                 2.9429

                     49                     50                     51
                      A                      A                      A
 Frequencies --   1441.3835              1474.6963              1500.4752
 Red. masses --      1.2442                 1.2907                 1.0471
 Frc consts  --      1.5231                 1.6538                 1.3890
 IR Inten    --      2.0632                13.1845                 5.6153

                     52                     53                     54
                      A                      A                      A
 Frequencies --   1501.9976              1508.8205              1514.5323
 Red. masses --      1.0616                 1.0513                 1.0819
 Frc consts  --      1.4110                 1.4101                 1.4622
 IR Inten    --     10.3590                 5.9820                 4.3502

                     55                     56                     57
                      A                      A                      A
 Frequencies --   1521.0414              1524.3096              1528.6391
 Red. masses --      1.0793                 1.0602                 1.0411
 Frc consts  --      1.4712                 1.4514                 1.4333
 IR Inten    --      0.0683                 2.1087                 6.6732

                     58                     59                     60
                      A                      A                      A
 Frequencies --   1539.3404              1668.6527              1713.5862
 Red. masses --      1.0823                 4.9607                 4.7726
 Frc consts  --      1.5111                 8.1381                 8.2569
 IR Inten    --      6.8497                13.9055                76.7790

                     61                     62                     63
                      A                      A                      A
 Frequencies --   1750.1383              3038.5653              3041.0129
 Red. masses --      9.2231                 1.0409                 1.0503
 Frc consts  --     16.6446                 5.6621                 5.7229
 IR Inten    --    178.5930                24.9521                10.8830

                     64                     65                     66
                      A                      A                      A
 Frequencies --   3045.0237              3045.8548              3052.7287
 Red. masses --      1.0458                 1.0391                 1.0689
 Frc consts  --      5.7133                 5.6796                 5.8690
 IR Inten    --     22.5255                28.8719                26.2323

                     67                     68                     69
                      A                      A                      A
 Frequencies --   3076.7476              3090.8113              3094.6585
 Red. masses --      1.0977                 1.0975                 1.0989
 Frc consts  --      6.1221                 6.1775                 6.2006
 IR Inten    --     20.3588                19.6602                16.6521

                     70                     71                     72
                      A                      A                      A
 Frequencies --   3112.9987              3117.4386              3132.0142
 Red. masses --      1.1021                 1.1023                 1.0967
 Frc consts  --      6.2923                 6.3116                 6.3386
 IR Inten    --     35.9928                36.2236                25.0539

                     73                     74                     75
                      A                      A                      A
 Frequencies --   3139.6566              3157.7646              3162.7205
 Red. masses --      1.1011                 1.0621                 1.1002
 Frc consts  --      6.3950                 6.2399                 6.4843
 IR Inten    --     17.5556                 5.7303                11.8461

                     76                     77                     78
                      A                      A                      A
 Frequencies --   3166.0310              3172.7078              3243.3552
 Red. masses --      1.0858                 1.0889                 1.1153
 Frc consts  --      6.4125                 6.4578                 6.9124
 IR Inten    --      5.4883                24.2623                19.4761

 - Thermochemistry -
 -------------------
 Temperature   298.150 Kelvin.  Pressure   1.00000 Atm.
 Atom     1 has atomic number  6 and mass  12.00000

 Molecular mass:   151.13610 amu.
 Principal axes and moments of inertia in atomic units:
                           1         2         3
     Eigenvalues --  1552.435542757.522642882.68370
           X            0.99999   0.00341   0.00342
           Y           -0.00343   0.99997   0.00662
           Z           -0.00340  -0.00663   0.99997
 This molecule is an asymmetric top.
 Rotational symmetry number  1.
 Warning -- assumption of classical behavior for rotation
           may cause significant error
 Rotational temperatures (Kelvin)      0.05579     0.03141     0.03005
 Rotational constants (GHZ):           1.16252     0.65448     0.62606
 Zero-point vibrational energy     655195.1 (Joules/Mol)
                                  156.59540 (Kcal/Mol)
 Warning -- explicit consideration of  19 degrees of freedom as
           vibrations may cause significant error
 Vibrational temperatures:     39.39    73.72   101.74   129.73   179.41
          (Kelvin)            231.68   244.94   270.71   283.97   309.61
                              348.51   361.83   454.38   538.80   569.11
                              601.62   720.32   794.74   876.88   925.92
                              996.31  1082.41  1156.41  1247.79  1277.37
                             1290.14  1293.12  1324.42  1391.37  1461.99
                             1496.80  1502.57  1518.34  1527.92  1552.90
                             1619.54  1626.66  1692.97  1793.55  1797.31
                             1868.05  1911.04  1918.78  1936.29  1987.10
                             2012.08  2056.09  2064.90  2073.83  2121.76
                             2158.85  2161.04  2170.86  2179.07  2188.44
                             2193.14  2199.37  2214.77  2400.82  2465.47
                             2518.06  4371.82  4375.34  4381.11  4382.31
                             4392.20  4426.75  4446.99  4452.52  4478.91
                             4485.30  4506.27  4517.27  4543.32  4550.45
                             4555.21  4564.82  4666.46

 Zero-point correction=                           0.249551 (Hartree/Particle)
 Thermal correction to Energy=                    0.263277
 Thermal correction to Enthalpy=                  0.264221
 Thermal correction to Gibbs Free Energy=         0.208550
 Sum of electronic and zero-point Energies=           -445.814245
 Sum of electronic and thermal Energies=              -445.800518
 Sum of electronic and thermal Enthalpies=            -445.799574
 Sum of electronic and thermal Free Energies=         -445.855246

                     E (Thermal)             CV                S
                      KCal/Mol        Cal/Mol-Kelvin    Cal/Mol-Kelvin
 Total                  165.209             49.033            117.170
 Electronic               0.000              0.000              0.000
 Translational            0.889              2.981             40.949
 Rotational               0.889              2.981             30.890
 Vibrational            163.431             43.071             45.331
 Vibration     1          0.593              1.984              6.011
 Vibration     2          0.596              1.977              4.769
 Vibration     3          0.598              1.968              4.133
 Vibration     4          0.602              1.956              3.656
 Vibration     5          0.610              1.928              3.026
 Vibration     6          0.622              1.890              2.538
 Vibration     7          0.625              1.879              2.433
 Vibration     8          0.633              1.856              2.246
 Vibration     9          0.637              1.844              2.158
 Vibration    10          0.645              1.818              1.999
 Vibration    11          0.658              1.776              1.786
 Vibration    12          0.663              1.760              1.720
 Vibration    13          0.703              1.643              1.332
 Vibration    14          0.746              1.524              1.061
 Vibration    15          0.762              1.480              0.979
 Vibration    16          0.781              1.431              0.898
 Vibration    17          0.856              1.249              0.657
 Vibration    18          0.908              1.135              0.539
 Vibration    19          0.968              1.012              0.434

 Optimization completed.
    -- Stationary point found.
 Normal termination of Gaussian 16 at Tue Dec  8 22:02:22 2020.

 ----------------------------------------------------------------------
 # B3LYP/6-311++G(d,p) empiricaldispersion=gd3bj scf=xqc pop=npa geom=c
 heck
 ----------------------------------------------------------------------

 ---------------------------------------
 CID_134525835_JID_1983_Energie_neutraal
 ---------------------------------------
 Structure from the checkpoint file:  "JID_1983.chk"
 Charge =  0 Multiplicity = 1

 SCF Done:  E(RB3LYP) =  -446.188585959     A.U. after   15 cycles
 Normal termination of Gaussian 16 at Tue Dec  8 22:05:21 2020.

 ----------------------------------------------------------------------
 # B3LYP/6-311++G(d,p) empiricaldispersion=gd3bj scf=xqc pop=npa geom=c
 heck
 ----------------------------------------------------------------------

 -------------------------------------
 CID_134525835_JID_1983_Energie_kation
 -------------------------------------
 Structure from the checkpoint file:  "JID_1983.chk"
 Charge =  1 Multiplicity = 2

 SCF Done:  E(UB3LYP) =  -445.917441452     A.U. after   19 cycles
 Normal termination of Gaussian 16 at Tue Dec  8 22:10:31 2020.
 Gaussian 16:  ES64L-G16RevA.03 25-Dec-2016

 ----------------------------------------------------------------------
 # B3LYP/6-311++G(d,p) empiricaldispersion=gd3bj scf=xqc pop=npa geom=c
 heck
 ----------------------------------------------------------------------

 ------------------------------------
 CID_134525835_JID_1983_Energie_anion
 ------------------------------------
 Structure from the checkpoint file:  "JID_1983.chk"
 Charge = -1 Multiplicity = 2

                         Standard orientation:
 ---------------------------------------------------------------------
 Center     Atomic      Atomic             Coordinates (Angstroms)
 Number     Number       Type             X           Y           Z
 ---------------------------------------------------------------------
      1          6           0       -2.943711   -1.871908    0.851626
      2          6           0       -2.378374   -0.497305    0.489741
      3          6           0       -1.188857   -0.597062   -0.486036
      4          6           0       -0.660182    0.773291   -0.865686
      5          7           0        0.296154    1.386981   -0.279811
      6          6           0        1.040055    0.838749    0.775494
      7          6           0        1.999725   -0.102205    0.611428
      8          6           0        2.338430   -0.748624   -0.641843
      9          6           0        3.240957   -1.734262   -0.771997
     10          6           0        0.780672    1.507148    2.099177
     11          6           0       -1.363793    1.472629   -2.000754
     12          1           0       -3.306820   -2.396153   -0.040424
     13          1           0       -3.780136   -1.785385    1.553837
     14          1           0       -2.176606   -2.501457    1.317503
     15          1           0       -3.169095    0.124599    0.050376
     16          1           0       -2.048203    0.019684    1.399261
     17          1           0       -0.395346   -1.190935   -0.026120
     18          1           0       -1.512575   -1.123517   -1.393114
     19          1           0        2.583432   -0.383845    1.485525
     20          1           0        1.818466   -0.391051   -1.529185
     21          1           0        3.464223   -2.179420   -1.736593
     22          1           0        3.786333   -2.124182    0.084722
     23          1           0        0.932482    2.589971    2.014542
     24          1           0       -0.260046    1.357680    2.416053
     25          1           0        1.441022    1.115658    2.877619
     26          1           0       -1.211035    0.921493   -2.937887
     27          1           0       -2.446915    1.506675   -1.828396
     28          1           0       -0.981784    2.488626   -2.115930
 ---------------------------------------------------------------------

 SCF Done:  E(UB3LYP) =  -446.173161807     A.U. after   33 cycles
 SCF Done:  E(UB3LYP) =  -446.173161807     a.u. after    1 cycles

 The electronic state is 2-A.
 Alpha  occ. eigenvalues --  -14.20420 -10.12357 -10.10175 -10.06943 -10.06798
 Alpha  occ. eigenvalues --  -10.06777 -10.06620 -10.06248 -10.05595 -10.05554
 Alpha  occ. eigenvalues --  -10.05534  -0.83461  -0.70987  -0.68597  -0.66197
 Alpha  occ. eigenvalues --   -0.62324  -0.58732  -0.58101  -0.50461  -0.49026
 Alpha  occ. eigenvalues --   -0.46346  -0.40268  -0.38787  -0.36980  -0.35608
 Alpha  occ. eigenvalues --   -0.33378  -0.32918  -0.31694  -0.30934  -0.30859
 Alpha  occ. eigenvalues --   -0.29784  -0.28615  -0.28285  -0.27039  -0.25682
 Alpha  occ. eigenvalues --   -0.24967  -0.24374  -0.23058  -0.21507  -0.18813
 Alpha  occ. eigenvalues --   -0.17060  -0.10312   0.04728
 Alpha virt. eigenvalues --    0.06672   0.07148   0.07577   0.07823   0.08907
 Alpha virt. eigenvalues --    0.09423   0.09623   0.10155   0.10563   0.10993
 Alpha virt. eigenvalues --    0.11853   0.12044   0.12749   0.13150   0.13773

  Beta  occ. eigenvalues --  -14.20429 -10.12333 -10.10104 -10.06910 -10.06780
  Beta  occ. eigenvalues --  -10.06756 -10.06598 -10.06208 -10.05537 -10.05528
  Beta  occ. eigenvalues --  -10.05516  -0.83418  -0.70908  -0.68536  -0.66103
  Beta  occ. eigenvalues --   -0.62264  -0.58670  -0.58027  -0.50360  -0.48924
  Beta  occ. eigenvalues --   -0.46241  -0.40204  -0.38744  -0.36932  -0.35540
  Beta  occ. eigenvalues --   -0.33298  -0.32861  -0.31611  -0.30887  -0.30805
  Beta  occ. eigenvalues --   -0.29736  -0.28558  -0.28238  -0.26993  -0.25635
  Beta  occ. eigenvalues --   -0.24916  -0.24310  -0.23014  -0.21310  -0.18743
  Beta  occ. eigenvalues --   -0.16941  -0.10071
  Beta virt. eigenvalues --    0.06988   0.07310   0.07747   0.08020   0.08411
  Beta virt. eigenvalues --    0.09029   0.09676   0.10112   0.10731   0.10968
  Beta virt. eigenvalues --    0.11376   0.12173   0.12299   0.13183   0.13481

 Mulliken charges and spin densities:
               1          2
     1  C    1.579956  -2.202177
     2  C   -0.853204   0.717969
     3  C    0.331052  -0.477730
     4  C   -2.094148   2.098656
     5  N    0.143163   0.024881
     6  C   -1.214530   1.174677
     7  C    0.688549  -1.021940
     8  C   -0.003672   0.285424
     9  C   -0.613161  -0.027443
    10  C    0.959995  -1.447736
    11  C    1.982329  -2.438851
    12  H   -0.257012   0.389712
    13  H   -0.499028   0.643387
    14  H   -0.189450   0.320010
    15  H   -0.190732   0.328430
    16  H    0.000276   0.121272
    17  H    0.351503  -0.198051
    18  H   -0.072209   0.236221
    19  H    0.066904   0.077218
    20  H   -0.002275   0.147308
    21  H    0.075186   0.040858
    22  H    0.026370   0.065131
    23  H   -0.123553   0.294799
    24  H   -0.054386   0.197902
    25  H   -0.211474   0.348069
    26  H   -0.099183   0.254387
    27  H   -0.518150   0.681295
    28  H   -0.209116   0.366325
 Sum of Mulliken charges =  -1.00000   1.00000

 Dipole moment (field-independent basis, Debye):
    X=              5.2466    Y=             -0.6468    Z=              0.1355  Tot=              5.2881
 Quadrupole moment (field-independent basis, Debye-Ang):
   XX=           -135.2227   YY=           -112.2067   ZZ=           -108.3444
   XY=             -5.4751   XZ=             -1.3264   YZ=              3.1268

 Summary of Natural Population Analysis:

                                       Natural Population
                Natural  -----------------------------------------------
    Atom  No    Charge         Core      Valence    Rydberg      Total
 -----------------------------------------------------------------------
      C    1   -0.28323      0.99967     2.27840    0.00516     3.28323
      C    2   -0.18444      0.99963     2.17717    0.00764     3.18444
      C    3   -0.22691      0.99957     2.21853    0.00881     3.22691
      C    4    0.17665      0.99957     1.80843    0.01535     2.82335
      N    5   -0.24735      0.99959     2.73470    0.01306     3.74735
      C    6    0.10943      0.99946     1.87711    0.01399     2.89057
      C    7   -0.15121      0.99945     2.14245    0.00932     3.15121
      C    8   -0.09389      0.99956     2.08527    0.00906     3.09389
      C    9   -0.19495      0.99959     2.18772    0.00763     3.19495
      C   10   -0.29605      0.99962     2.29094    0.00550     3.29605
      C   11   -0.30761      0.99962     2.30161    0.00638     3.30761
      H   12    0.09709      0.00000     0.40152    0.00139     0.40291
      H   13    0.10117      0.00000     0.39736    0.00147     0.39883
      H   14    0.09538      0.00000     0.40352    0.00110     0.40462
      H   15    0.09709      0.00000     0.40075    0.00216     0.40291
      H   16    0.09406      0.00000     0.40432    0.00162     0.40594
      H   17    0.11108      0.00000     0.38705    0.00187     0.38892
      H   18    0.10271      0.00000     0.39583    0.00145     0.39729
      H   19    0.09491      0.00000     0.40365    0.00144     0.40509
      H   20    0.09606      0.00000     0.40237    0.00156     0.40394
      H   21    0.08927      0.00000     0.40980    0.00094     0.41073
      H   22    0.08529      0.00000     0.41361    0.00109     0.41471
      H   23    0.10789      0.00000     0.39072    0.00140     0.39211
      H   24    0.10298      0.00000     0.39550    0.00152     0.39702
      H   25    0.10093      0.00000     0.39811    0.00095     0.39907
      H   26    0.10492      0.00000     0.39395    0.00113     0.39508
      H   27    0.10981      0.00000     0.38789    0.00230     0.39019
      H   28    0.10892      0.00000     0.38953    0.00156     0.39108
 =======================================================================
   * Total *    0.00000     10.99533    30.87782    0.12685    42.00000

 Normal termination of Gaussian 16 at Tue Dec  8 22:19:36 2020.
