 Gaussian 16, Revision A.03,

 -----------------------------------------------------------
 # opt freq B3LYP/6-31G(d) empiricaldispersion=gd3bj scf=xqc
 -----------------------------------------------------------

 ------------------------------
 CID_81419151_JID_5618_neutraal
 ------------------------------
 Symbolic Z-matrix:
 Charge =  0 Multiplicity = 1

 SCF Done:  E(RB3LYP) =  -658.905943595     A.U. after   13 cycles
 SCF Done:  E(RB3LYP) =  -658.909161506     A.U. after   11 cycles
 SCF Done:  E(RB3LYP) =  -658.906619019     A.U. after   12 cycles
 SCF Done:  E(RB3LYP) =  -658.909131731     A.U. after   11 cycles
 SCF Done:  E(RB3LYP) =  -658.910255166     A.U. after    8 cycles
 SCF Done:  E(RB3LYP) =  -658.910647412     A.U. after   10 cycles
 SCF Done:  E(RB3LYP) =  -658.910958977     A.U. after   10 cycles
 SCF Done:  E(RB3LYP) =  -658.910903571     A.U. after   10 cycles
 SCF Done:  E(RB3LYP) =  -658.910949604     A.U. after   10 cycles
 SCF Done:  E(RB3LYP) =  -658.911040197     A.U. after   10 cycles
 SCF Done:  E(RB3LYP) =  -658.911129644     A.U. after    9 cycles
 SCF Done:  E(RB3LYP) =  -658.911134513     A.U. after    8 cycles
 SCF Done:  E(RB3LYP) =  -658.911135320     A.U. after    8 cycles
 SCF Done:  E(RB3LYP) =  -658.911135711     A.U. after    7 cycles
 SCF Done:  E(RB3LYP) =  -658.911135942     A.U. after    7 cycles
 SCF Done:  E(RB3LYP) =  -658.911136037     A.U. after    6 cycles
 Optimization completed.
    -- Stationary point found.
 Normal termination of Gaussian 16 at Thu Dec 10 16:42:02 2020.

 --------------------------------------------------------------------
 #N Geom=AllCheck Guess=TCheck SCRF=Check GenChk RB3LYP/6-31G(d) Freq
 --------------------------------------------------------------------

 Structure from the checkpoint file:  "JID_5618.chk"
 ------------------------------
 CID_81419151_JID_5618_neutraal
 ------------------------------
 Charge =  0 Multiplicity = 1

 SCF Done:  E(RB3LYP) =  -658.911136037     A.U. after    1 cycles

  Exact polarizability: 166.745  -1.852 140.870   0.313   2.732 129.807
 Approx polarizability: 202.600  -0.015 197.661   0.286   3.569 193.859

                      1                      2                      3
                      A                      A                      A
 Frequencies --     24.7953                39.2387                49.6058
 Red. masses --      3.3882                 3.2897                 2.4360
 Frc consts  --      0.0012                 0.0030                 0.0035
 IR Inten    --      0.6387                 0.0899                 0.4107

                      4                      5                      6
                      A                      A                      A
 Frequencies --     61.1130                97.7354               122.1222
 Red. masses --      2.7179                 3.0320                 2.4896
 Frc consts  --      0.0060                 0.0171                 0.0219
 IR Inten    --      0.6318                 0.1479                 0.0847

                      7                      8                      9
                      A                      A                      A
 Frequencies --    155.1461               176.0990               186.9662
 Red. masses --      2.9855                 2.6574                 2.1813
 Frc consts  --      0.0423                 0.0486                 0.0449
 IR Inten    --      1.9509                 2.1685                 1.2181

                     10                     11                     12
                      A                      A                      A
 Frequencies --    199.1556               214.6426               218.4412
 Red. masses --      1.6242                 1.2142                 1.3508
 Frc consts  --      0.0380                 0.0330                 0.0380
 IR Inten    --      0.7461                 0.4643                 0.4105

                     13                     14                     15
                      A                      A                      A
 Frequencies --    221.9358               243.9806               250.1372
 Red. masses --      1.3425                 2.1018                 1.1593
 Frc consts  --      0.0390                 0.0737                 0.0427
 IR Inten    --      0.2946                 0.9408                 0.2142

                     16                     17                     18
                      A                      A                      A
 Frequencies --    271.1447               279.5584               286.9795
 Red. masses --      2.1154                 2.1512                 1.4774
 Frc consts  --      0.0916                 0.0991                 0.0717
 IR Inten    --      0.7073                 1.2884                 1.0488

                     19                     20                     21
                      A                      A                      A
 Frequencies --    314.4967               341.2580               352.4553
 Red. masses --      2.6471                 2.1763                 2.1514
 Frc consts  --      0.1543                 0.1493                 0.1575
 IR Inten    --      1.6359                 0.6804                 0.2877

                     22                     23                     24
                      A                      A                      A
 Frequencies --    368.8465               389.2276               398.5230
 Red. masses --      2.7094                 2.0813                 2.5182
 Frc consts  --      0.2172                 0.1858                 0.2356
 IR Inten    --      1.6468                 2.6656                 1.1262

                     25                     26                     27
                      A                      A                      A
 Frequencies --    435.3389               462.8444               508.8705
 Red. masses --      2.5529                 2.2071                 2.5723
 Frc consts  --      0.2851                 0.2786                 0.3925
 IR Inten    --      0.1067                 5.8431                 3.9751

                     28                     29                     30
                      A                      A                      A
 Frequencies --    534.2152               550.5204               572.3772
 Red. masses --      2.7101                 2.5480                 2.7664
 Frc consts  --      0.4557                 0.4550                 0.5340
 IR Inten    --      0.3394                 3.1045                 1.2003

                     31                     32                     33
                      A                      A                      A
 Frequencies --    703.1053               727.3937               747.6384
 Red. masses --      2.2461                 1.5288                 2.2427
 Frc consts  --      0.6542                 0.4766                 0.7386
 IR Inten    --     41.7745               103.4072                41.4055

                     34                     35                     36
                      A                      A                      A
 Frequencies --    792.3598               854.2055               876.7100
 Red. masses --      1.2697                 1.5924                 1.6537
 Frc consts  --      0.4697                 0.6846                 0.7489
 IR Inten    --      6.3478                19.6017                 9.0877

                     37                     38                     39
                      A                      A                      A
 Frequencies --    897.1243               912.3913               922.2274
 Red. masses --      2.0614                 1.9504                 2.2885
 Frc consts  --      0.9775                 0.9566                 1.1468
 IR Inten    --     13.6043                 7.6441                 5.3763

                     40                     41                     42
                      A                      A                      A
 Frequencies --    928.8044               952.5260               957.8540
 Red. masses --      1.2726                 1.5341                 1.5522
 Frc consts  --      0.6468                 0.8201                 0.8391
 IR Inten    --      0.3328                 1.2042                 2.8634

                     43                     44                     45
                      A                      A                      A
 Frequencies --    975.6999              1001.0405              1026.5002
 Red. masses --      1.6023                 1.5091                 1.7097
 Frc consts  --      0.8987                 0.8910                 1.0614
 IR Inten    --      6.5910                 3.9408                 2.5356

                     46                     47                     48
                      A                      A                      A
 Frequencies --   1035.8017              1063.0316              1079.9479
 Red. masses --      1.9719                 2.0230                 2.5207
 Frc consts  --      1.2465                 1.3469                 1.7322
 IR Inten    --     20.5467                 9.5254                 3.7269

                     49                     50                     51
                      A                      A                      A
 Frequencies --   1086.0267              1099.7693              1111.8152
 Red. masses --      1.8221                 3.0449                 2.7388
 Frc consts  --      1.2662                 2.1699                 1.9947
 IR Inten    --      8.5977                51.2404                40.6897

                     52                     53                     54
                      A                      A                      A
 Frequencies --   1117.4792              1139.0737              1148.2509
 Red. masses --      2.1228                 2.1161                 2.1160
 Frc consts  --      1.5618                 1.6177                 1.6438
 IR Inten    --     30.2249                33.2729                16.4103

                     55                     56                     57
                      A                      A                      A
 Frequencies --   1169.0675              1183.5090              1200.4507
 Red. masses --      1.6028                 2.2248                 1.9503
 Frc consts  --      1.2906                 1.8361                 1.6559
 IR Inten    --     11.5566                10.8523                 8.8314

                     58                     59                     60
                      A                      A                      A
 Frequencies --   1210.5533              1225.0701              1234.2225
 Red. masses --      1.6931                 2.1842                 1.6186
 Frc consts  --      1.4619                 1.9314                 1.4527
 IR Inten    --      8.2876                18.7665                 7.1289

                     61                     62                     63
                      A                      A                      A
 Frequencies --   1276.6756              1281.2555              1305.4347
 Red. masses --      2.2930                 1.6613                 1.4133
 Frc consts  --      2.2020                 1.6069                 1.4191
 IR Inten    --     20.8560                 6.5729                 5.3480

                     64                     65                     66
                      A                      A                      A
 Frequencies --   1332.4837              1353.8595              1371.4586
 Red. masses --      1.3012                 1.2698                 1.2730
 Frc consts  --      1.3611                 1.3713                 1.4107
 IR Inten    --      3.7478                 2.9759                 4.4776

                     67                     68                     69
                      A                      A                      A
 Frequencies --   1374.3087              1393.9050              1397.2876
 Red. masses --      1.2922                 1.2679                 1.2794
 Frc consts  --      1.4380                 1.4514                 1.4718
 IR Inten    --      6.1525                 7.6061                 9.7797

                     70                     71                     72
                      A                      A                      A
 Frequencies --   1404.7507              1423.9863              1428.0127
 Red. masses --      1.3697                 1.2541                 1.2437
 Frc consts  --      1.5925                 1.4983                 1.4943
 IR Inten    --      3.8737                 5.9347                 9.6664

                     73                     74                     75
                      A                      A                      A
 Frequencies --   1430.2040              1438.6859              1441.6978
 Red. masses --      1.3769                 1.2666                 1.2494
 Frc consts  --      1.6594                 1.5446                 1.5300
 IR Inten    --      2.0946                 7.7824                10.6301

                     76                     77                     78
                      A                      A                      A
 Frequencies --   1445.7430              1448.3612              1493.9625
 Red. masses --      1.2396                 1.2667                 1.1688
 Frc consts  --      1.5266                 1.5656                 1.5369
 IR Inten    --      3.2794                12.6276                 0.1868

                     79                     80                     81
                      A                      A                      A
 Frequencies --   1499.5596              1505.9789              1507.3555
 Red. masses --      1.1249                 1.0906                 1.1055
 Frc consts  --      1.4903                 1.4573                 1.4800
 IR Inten    --     30.6457                 7.9396                22.6359

                     82                     83                     84
                      A                      A                      A
 Frequencies --   1513.4241              1516.8444              1521.3969
 Red. masses --      1.1199                 1.0581                 1.0619
 Frc consts  --      1.5113                 1.4343                 1.4482
 IR Inten    --     41.4078                13.6689                 3.2888

                     85                     86                     87
                      A                      A                      A
 Frequencies --   1522.6222              1525.8116              1527.7813
 Red. masses --      1.0625                 1.0590                 1.0624
 Frc consts  --      1.4514                 1.4526                 1.4610
 IR Inten    --      2.9021                10.7416                 3.2338

                     88                     89                     90
                      A                      A                      A
 Frequencies --   1529.5711              1534.4029              1536.1159
 Red. masses --      1.0789                 1.0688                 1.0622
 Frc consts  --      1.4871                 1.4826                 1.4768
 IR Inten    --     13.7843                13.1633                 7.6294

                     91                     92                     93
                      A                      A                      A
 Frequencies --   1538.6449              1542.1044              1544.0126
 Red. masses --      1.0825                 1.0517                 1.0570
 Frc consts  --      1.5099                 1.4736                 1.4846
 IR Inten    --      8.8180                 2.2713                 5.3767

                     94                     95                     96
                      A                      A                      A
 Frequencies --   1546.9694              1551.1528              2938.8795
 Red. masses --      1.0768                 1.0778                 1.0624
 Frc consts  --      1.5183                 1.5279                 5.4062
 IR Inten    --     18.4288                 2.8684                76.5842

                     97                     98                     99
                      A                      A                      A
 Frequencies --   2952.0459              2954.7834              2968.0921
 Red. masses --      1.0714                 1.0739                 1.0713
 Frc consts  --      5.5011                 5.5239                 5.5607
 IR Inten    --     44.6775                64.3581                85.2355

                    100                    101                    102
                      A                      A                      A
 Frequencies --   3021.9114              3044.4178              3046.1468
 Red. masses --      1.0677                 1.0384                 1.0844
 Frc consts  --      5.7447                 5.6705                 5.9283
 IR Inten    --     45.7873                24.0164                13.6717

                    103                    104                    105
                      A                      A                      A
 Frequencies --   3054.1100              3056.4986              3057.1861
 Red. masses --      1.0719                 1.0421                 1.0373
 Frc consts  --      5.8907                 5.7360                 5.7120
 IR Inten    --      4.3315                29.3453                22.9579

                    106                    107                    108
                      A                      A                      A
 Frequencies --   3059.4160              3063.4352              3072.1334
 Red. masses --      1.0808                 1.0399                 1.0784
 Frc consts  --      5.9602                 5.7499                 5.9964
 IR Inten    --     24.6252                19.6011                24.6927

                    109                    110                    111
                      A                      A                      A
 Frequencies --   3078.0292              3080.4503              3083.6155
 Red. masses --      1.0716                 1.0892                 1.0927
 Frc consts  --      5.9817                 6.0895                 6.1218
 IR Inten    --     90.2512                36.7328                31.7598

                    112                    113                    114
                      A                      A                      A
 Frequencies --   3103.6259              3109.0487              3115.9757
 Red. masses --      1.1018                 1.1022                 1.1014
 Frc consts  --      6.2530                 6.2775                 6.3006
 IR Inten    --     35.0886                26.6668                35.2505

                    115                    116                    117
                      A                      A                      A
 Frequencies --   3119.7336              3120.9222              3126.9838
 Red. masses --      1.1021                 1.1032                 1.0993
 Frc consts  --      6.3196                 6.3310                 6.3333
 IR Inten    --     16.6270                37.7157                45.4312

                    118                    119                    120
                      A                      A                      A
 Frequencies --   3127.4118              3133.5078              3134.2047
 Red. masses --      1.0985                 1.0996                 1.1020
 Frc consts  --      6.3302                 6.3616                 6.3780
 IR Inten    --     17.0295                52.7678                29.0644

                    121                    122                    123
                      A                      A                      A
 Frequencies --   3146.5856              3501.6446              3545.5116
 Red. masses --      1.1002                 1.0658                 1.0721
 Frc consts  --      6.4181                 7.6996                 7.9401
 IR Inten    --     51.7270               367.0925                 1.1351

 - Thermochemistry -
 -------------------
 Temperature   298.150 Kelvin.  Pressure   1.00000 Atm.
 Atom     1 has atomic number  6 and mass  12.00000

 Molecular mass:   216.22016 amu.
 Principal axes and moments of inertia in atomic units:
                           1         2         3
     Eigenvalues --  1903.138436316.145286567.73571
           X            0.99997  -0.00294   0.00682
           Y            0.00252   0.99818   0.06023
           Z           -0.00698  -0.06021   0.99816
 This molecule is an asymmetric top.
 Rotational symmetry number  1.
 Warning -- assumption of classical behavior for rotation
           may cause significant error
 Rotational temperatures (Kelvin)      0.04551     0.01371     0.01319
 Rotational constants (GHZ):           0.94830     0.28573     0.27479
 Zero-point vibrational energy    1055881.2 (Joules/Mol)
                                  252.36166 (Kcal/Mol)
 Warning -- explicit consideration of  30 degrees of freedom as
           vibrations may cause significant error
 Vibrational temperatures:     35.67    56.46    71.37    87.93   140.62
          (Kelvin)            175.71   223.22   253.37   269.00   286.54
                              308.82   314.29   319.32   351.03   359.89
                              390.12   402.22   412.90   452.49   490.99
                              507.10   530.69   560.01   573.39   626.36
                              665.93   732.15   768.62   792.08   823.52
                             1011.61  1046.56  1075.68  1140.03  1229.01
                             1261.39  1290.76  1312.73  1326.88  1336.34
                             1370.47  1378.14  1403.81  1440.27  1476.90
                             1490.29  1529.47  1553.80  1562.55  1582.32
                             1599.65  1607.80  1638.87  1652.08  1682.03
                             1702.81  1727.18  1741.72  1762.60  1775.77
                             1836.85  1843.44  1878.23  1917.15  1947.90
                             1973.22  1977.32  2005.52  2010.39  2021.12
                             2048.80  2054.59  2057.74  2069.95  2074.28
                             2080.10  2083.87  2149.48  2157.53  2166.77
                             2168.75  2177.48  2182.40  2188.95  2190.71
                             2195.30  2198.14  2200.71  2207.66  2210.13
                             2213.77  2218.74  2221.49  2225.74  2231.76
                             4228.39  4247.34  4251.27  4270.42  4347.86
                             4380.24  4382.73  4394.18  4397.62  4398.61
                             4401.82  4407.60  4420.11  4428.60  4432.08
                             4436.63  4465.43  4473.23  4483.19  4488.60
                             4490.31  4499.03  4499.65  4508.42  4509.42
                             4527.23  5038.09  5101.20

 Zero-point correction=                           0.402164 (Hartree/Particle)
 Thermal correction to Energy=                    0.420995
 Thermal correction to Enthalpy=                  0.421939
 Thermal correction to Gibbs Free Energy=         0.355496
 Sum of electronic and zero-point Energies=           -658.508972
 Sum of electronic and thermal Energies=              -658.490141
 Sum of electronic and thermal Enthalpies=            -658.489197
 Sum of electronic and thermal Free Energies=         -658.555640

                     E (Thermal)             CV                S
                      KCal/Mol        Cal/Mol-Kelvin    Cal/Mol-Kelvin
 Total                  264.178             70.948            139.841
 Electronic               0.000              0.000              0.000
 Translational            0.889              2.981             42.017
 Rotational               0.889              2.981             32.734
 Vibrational            262.401             64.986             65.090
 Vibration     1          0.593              1.985              6.208
 Vibration     2          0.594              1.981              5.297
 Vibration     3          0.595              1.978              4.833
 Vibration     4          0.597              1.973              4.421
 Vibration     5          0.603              1.951              3.499
 Vibration     6          0.610              1.931              3.067
 Vibration     7          0.620              1.897              2.608
 Vibration     8          0.628              1.872              2.369
 Vibration     9          0.632              1.858              2.258
 Vibration    10          0.637              1.841              2.141
 Vibration    11          0.645              1.819              2.004
 Vibration    12          0.646              1.813              1.972
 Vibration    13          0.648              1.808              1.943
 Vibration    14          0.659              1.773              1.774
 Vibration    15          0.663              1.763              1.730
 Vibration    16          0.675              1.726              1.589
 Vibration    17          0.680              1.711              1.536
 Vibration    18          0.684              1.698              1.492
 Vibration    19          0.702              1.646              1.339
 Vibration    20          0.721              1.593              1.206
 Vibration    21          0.729              1.570              1.155
 Vibration    22          0.741              1.536              1.085
 Vibration    23          0.757              1.493              1.003
 Vibration    24          0.765              1.473              0.968
 Vibration    25          0.796              1.393              0.841
 Vibration    26          0.820              1.332              0.758
 Vibration    27          0.864              1.230              0.636
 Vibration    28          0.889              1.174              0.578
 Vibration    29          0.906              1.139              0.543
 Vibration    30          0.929              1.091              0.500

 Optimization completed.
    -- Stationary point found.
 Normal termination of Gaussian 16 at Thu Dec 10 16:58:46 2020.

 ----------------------------------------------------------------------
 # B3LYP/6-311++G(d,p) empiricaldispersion=gd3bj scf=xqc pop=npa geom=c
 heck
 ----------------------------------------------------------------------

 --------------------------------------
 CID_81419151_JID_5618_Energie_neutraal
 --------------------------------------
 Structure from the checkpoint file:  "JID_5618.chk"
 Charge =  0 Multiplicity = 1

 SCF Done:  E(RB3LYP) =  -659.110307512     A.U. after   13 cycles
 Normal termination of Gaussian 16 at Thu Dec 10 17:08:20 2020.

 ----------------------------------------------------------------------
 # B3LYP/6-311++G(d,p) empiricaldispersion=gd3bj scf=xqc pop=npa geom=c
 heck
 ----------------------------------------------------------------------

 ------------------------------------
 CID_81419151_JID_5618_Energie_kation
 ------------------------------------
 Structure from the checkpoint file:  "JID_5618.chk"
 Charge =  1 Multiplicity = 2

 SCF Done:  E(UB3LYP) =  -658.826141331     A.U. after   25 cycles
 Normal termination of Gaussian 16 at Thu Dec 10 17:35:19 2020.
 Gaussian 16:  ES64L-G16RevA.03 25-Dec-2016

 ----------------------------------------------------------------------
 # B3LYP/6-311++G(d,p) empiricaldispersion=gd3bj scf=xqc pop=npa geom=c
 heck
 ----------------------------------------------------------------------

 -----------------------------------
 CID_81419151_JID_5618_Energie_anion
 -----------------------------------
 Structure from the checkpoint file:  "JID_5618.chk"
 Charge = -1 Multiplicity = 2

                         Standard orientation:
 ---------------------------------------------------------------------
 Center     Atomic      Atomic             Coordinates (Angstroms)
 Number     Number       Type             X           Y           Z
 ---------------------------------------------------------------------
      1          6           0       -3.538364    2.014560   -0.255327
      2          6           0       -2.228867    1.226146   -0.346162
      3          6           0       -2.373206   -0.308156   -0.480022
      4          6           0       -3.140514   -0.682080   -1.757627
      5          6           0       -0.970336   -0.949087   -0.584654
      6          7           0       -0.151025   -0.736540    0.617652
      7          6           0        1.080273   -1.532587    0.673095
      8          6           0        2.172210   -1.266718   -0.384580
      9          7           0        3.247168   -0.349783    0.011110
     10          6           0        4.377879   -0.500882   -0.899280
     11          6           0        2.907235    1.077583    0.208890
     12          6           0        2.003956    1.690823   -0.875913
     13          6           0        2.401035    1.363775    1.629504
     14          6           0       -3.118648   -0.902185    0.737459
     15          8           0       -2.570684   -0.518742    1.982520
     16          1           0       -4.173493    1.868523   -1.135407
     17          1           0       -3.329881    3.087194   -0.175898
     18          1           0       -4.109742    1.724677    0.631929
     19          1           0       -1.639732    1.591900   -1.200101
     20          1           0       -1.651707    1.445900    0.558595
     21          1           0       -2.646632   -0.276007   -2.648529
     22          1           0       -3.199425   -1.771102   -1.874348
     23          1           0       -4.164881   -0.298036   -1.738096
     24          1           0       -1.087126   -2.034184   -0.702409
     25          1           0       -0.477940   -0.584329   -1.503399
     26          1           0        0.073414    0.250824    0.691593
     27          1           0        1.524717   -1.421938    1.667255
     28          1           0        0.765590   -2.578902    0.583181
     29          1           0        2.666239   -2.225689   -0.577164
     30          1           0        1.702193   -0.979455   -1.343412
     31          1           0        4.161156   -0.201361   -1.943174
     32          1           0        5.221963    0.098949   -0.544417
     33          1           0        4.696146   -1.548750   -0.917273
     34          1           0        3.869737    1.597970    0.137928
     35          1           0        0.981348    1.302707   -0.839839
     36          1           0        1.944718    2.777121   -0.748414
     37          1           0        2.398081    1.492523   -1.878738
     38          1           0        3.091096    0.932696    2.360538
     39          1           0        2.345294    2.445795    1.795886
     40          1           0        1.407786    0.956026    1.835253
     41          1           0       -4.161670   -0.566718    0.732829
     42          1           0       -3.138448   -2.001961    0.625980
     43          1           0       -1.612253   -0.717330    1.895854
 ---------------------------------------------------------------------

 SCF Done:  E(UB3LYP) =  -659.097946897     A.U. after   27 cycles

 The electronic state is 2-A.
 Alpha  occ. eigenvalues --  -19.00889 -14.21911 -14.20748 -10.11497 -10.10650
 Alpha  occ. eigenvalues --  -10.10409 -10.10281 -10.09592 -10.09083 -10.08783
 Alpha  occ. eigenvalues --  -10.07380 -10.06962 -10.06837 -10.06787 -10.06327
 Alpha  occ. eigenvalues --   -0.91656  -0.83355  -0.81639  -0.72782  -0.68385
 Alpha  occ. eigenvalues --   -0.65250  -0.63913  -0.59681  -0.58577  -0.57596
 Alpha  occ. eigenvalues --   -0.55617  -0.54053  -0.52789  -0.46190  -0.45413
 Alpha  occ. eigenvalues --   -0.41893  -0.40188  -0.39255  -0.37787  -0.37352
 Alpha  occ. eigenvalues --   -0.36333  -0.35762  -0.34282  -0.33951  -0.32741
 Alpha  occ. eigenvalues --   -0.32422  -0.31925  -0.31197  -0.30085  -0.29720
 Alpha  occ. eigenvalues --   -0.29308  -0.29142  -0.28817  -0.27662  -0.27388
 Alpha  occ. eigenvalues --   -0.26940  -0.25917  -0.25616  -0.24678  -0.23678
 Alpha  occ. eigenvalues --   -0.23106  -0.23029  -0.22322  -0.17087  -0.14773
 Alpha  occ. eigenvalues --   -0.11908   0.04127
 Alpha virt. eigenvalues --    0.06005   0.06402   0.07436   0.07753   0.07928
 Alpha virt. eigenvalues --    0.08804   0.09465   0.09708   0.09825   0.10124
 Alpha virt. eigenvalues --    0.10802   0.11243   0.11327   0.12378   0.12602

  Beta  occ. eigenvalues --  -19.00888 -14.21909 -14.20743 -10.11486 -10.10638
  Beta  occ. eigenvalues --  -10.10399 -10.10264 -10.09572 -10.09082 -10.08749
  Beta  occ. eigenvalues --  -10.07369 -10.06935 -10.06821 -10.06776 -10.06293
  Beta  occ. eigenvalues --   -0.91653  -0.83338  -0.81624  -0.72767  -0.68353
  Beta  occ. eigenvalues --   -0.65225  -0.63883  -0.59631  -0.58528  -0.57562
  Beta  occ. eigenvalues --   -0.55556  -0.54011  -0.52750  -0.46147  -0.45373
  Beta  occ. eigenvalues --   -0.41868  -0.40167  -0.39224  -0.37758  -0.37310
  Beta  occ. eigenvalues --   -0.36311  -0.35732  -0.34251  -0.33914  -0.32712
  Beta  occ. eigenvalues --   -0.32400  -0.31897  -0.31174  -0.30060  -0.29691
  Beta  occ. eigenvalues --   -0.29279  -0.29112  -0.28794  -0.27635  -0.27354
  Beta  occ. eigenvalues --   -0.26905  -0.25885  -0.25595  -0.24646  -0.23643
  Beta  occ. eigenvalues --   -0.23088  -0.23005  -0.22301  -0.17080  -0.14761
  Beta  occ. eigenvalues --   -0.11875
  Beta virt. eigenvalues --    0.06150   0.06726   0.07069   0.07801   0.08179
  Beta virt. eigenvalues --    0.08447   0.09044   0.09782   0.10009   0.10179
  Beta virt. eigenvalues --    0.10545   0.11056   0.11455   0.11501   0.12652

 Mulliken charges and spin densities:
               1          2
     1  C   -0.081038  -0.576428
     2  C   -0.582719   0.215617
     3  C    0.018877   0.742062
     4  C    0.897564  -1.406311
     5  C   -0.671443  -0.144176
     6  N   -0.118704   0.032822
     7  C   -0.190644  -0.320563
     8  C    0.104545  -0.369094
     9  N    0.221068   0.024112
    10  C    0.921616  -1.146331
    11  C   -1.901279   1.711836
    12  C    1.024667  -1.605365
    13  C    0.066176  -0.553291
    14  C    0.006854  -0.477539
    15  O   -0.215537   0.018564
    16  H   -0.047466   0.185256
    17  H   -0.040472   0.180845
    18  H    0.068040   0.096398
    19  H   -0.121003   0.280441
    20  H    0.222272  -0.087593
    21  H   -0.247952   0.413495
    22  H   -0.091259   0.234816
    23  H   -0.003332   0.137509
    24  H   -0.044303   0.206165
    25  H    0.086009   0.070344
    26  H   -0.132233   0.264283
    27  H    0.180067  -0.006688
    28  H   -0.134646   0.285330
    29  H   -0.239008   0.375715
    30  H    0.053770   0.098379
    31  H   -0.171041   0.292679
    32  H   -0.334776   0.460519
    33  H   -0.121032   0.258522
    34  H   -0.140889   0.329099
    35  H    0.867439  -0.683773
    36  H   -0.289118   0.441750
    37  H   -0.388265   0.536773
    38  H   -0.011182   0.166650
    39  H   -0.034903   0.160874
    40  H    0.191355  -0.034793
    41  H    0.074411   0.091411
    42  H    0.038978   0.094941
    43  H    0.310535   0.004739
 Sum of Mulliken charges =  -1.00000   1.00000

 Dipole moment (field-independent basis, Debye):
    X=             -2.9643    Y=             -0.8681    Z=              3.0377  Tot=              4.3323
 Quadrupole moment (field-independent basis, Debye-Ang):
   XX=           -185.5480   YY=           -146.1440   ZZ=           -145.9902
   XY=             -2.2556   XZ=              6.7597   YZ=              1.4853

 Summary of Natural Population Analysis:

                                       Natural Population
                Natural  -----------------------------------------------
    Atom  No    Charge         Core      Valence    Rydberg      Total
 -----------------------------------------------------------------------
      C    1   -0.28661      0.99966     2.28170    0.00525     3.28661
      C    2   -0.19323      0.99959     2.18322    0.01042     3.19323
      C    3   -0.05835      0.99956     2.04554    0.01325     3.05835
      C    4   -0.28744      0.99962     2.28024    0.00757     3.28744
      C    5   -0.08618      0.99956     2.07386    0.01275     3.08618
      N    6   -0.36119      0.99974     2.85028    0.01117     3.86119
      C    7   -0.09109      0.99961     2.07990    0.01157     3.09109
      C    8   -0.09743      0.99959     2.08612    0.01171     3.09743
      N    9   -0.28414      0.99972     2.77085    0.01357     3.78414
      C   10   -0.17361      0.99964     2.16542    0.00855     3.17361
      C   11   -0.00896      0.99959     1.99546    0.01390     3.00896
      C   12   -0.29714      0.99963     2.29115    0.00635     3.29714
      C   13   -0.28459      0.99963     2.27867    0.00629     3.28459
      C   14   -0.00764      0.99953     1.99325    0.01485     3.00764
      O   15   -0.38623      0.99990     3.37954    0.00678     4.38623
      H   16    0.09577      0.00000     0.40339    0.00084     0.40423
      H   17    0.09972      0.00000     0.39960    0.00068     0.40028
      H   18    0.09902      0.00000     0.40016    0.00082     0.40098
      H   19    0.09781      0.00000     0.40065    0.00154     0.40219
      H   20    0.09932      0.00000     0.39896    0.00172     0.40068
      H   21    0.10441      0.00000     0.39448    0.00111     0.39559
      H   22    0.10108      0.00000     0.39785    0.00107     0.39892
      H   23    0.10107      0.00000     0.39798    0.00094     0.39893
      H   24    0.09569      0.00000     0.40283    0.00149     0.40431
      H   25    0.08863      0.00000     0.40948    0.00189     0.41137
      H   26    0.18000      0.00000     0.31604    0.00396     0.32000
      H   27    0.09929      0.00000     0.39936    0.00135     0.40071
      H   28    0.09511      0.00000     0.40390    0.00099     0.40489
      H   29    0.09878      0.00000     0.39967    0.00155     0.40122
      H   30    0.08600      0.00000     0.41228    0.00172     0.41400
      H   31    0.08197      0.00000     0.41642    0.00162     0.41803
      H   32    0.09489      0.00000     0.40372    0.00139     0.40511
      H   33    0.09425      0.00000     0.40446    0.00129     0.40575
      H   34    0.09499      0.00000     0.40319    0.00182     0.40501
      H   35    0.09302      0.00000     0.40523    0.00174     0.40698
      H   36    0.10370      0.00000     0.39515    0.00115     0.39630
      H   37    0.10466      0.00000     0.39399    0.00135     0.39534
      H   38    0.10339      0.00000     0.39537    0.00125     0.39661
      H   39    0.09933      0.00000     0.39995    0.00072     0.40067
      H   40    0.08987      0.00000     0.40879    0.00134     0.41013
      H   41    0.08451      0.00000     0.41427    0.00122     0.41549
      H   42    0.07509      0.00000     0.42375    0.00116     0.42491
      H   43    0.24243      0.00000     0.25432    0.00324     0.25757
 =======================================================================
   * Total *    0.00000     14.99458    45.81047    0.19495    61.00000

 Normal termination of Gaussian 16 at Thu Dec 10 18:04:53 2020.
