 Gaussian 16, Revision A.03,

 -----------------------------------------------------------
 # opt freq B3LYP/6-31G(d) empiricaldispersion=gd3bj scf=xqc
 -----------------------------------------------------------

 ------------------------------
 CID_72391014_JID_1305_neutraal
 ------------------------------
 Symbolic Z-matrix:
 Charge =  0 Multiplicity = 1

 SCF Done:  E(RB3LYP) =  -854.232391505     A.U. after   15 cycles
 SCF Done:  E(RB3LYP) =  -854.237995992     A.U. after   13 cycles
 SCF Done:  E(RB3LYP) =  -854.238021011     A.U. after   14 cycles
 SCF Done:  E(RB3LYP) =  -854.241042170     A.U. after   14 cycles
 SCF Done:  E(RB3LYP) =  -854.242845026     A.U. after   12 cycles
 SCF Done:  E(RB3LYP) =  -854.243297388     A.U. after   12 cycles
 SCF Done:  E(RB3LYP) =  -854.243329958     A.U. after   11 cycles
 SCF Done:  E(RB3LYP) =  -854.243507100     A.U. after   11 cycles
 SCF Done:  E(RB3LYP) =  -854.243579244     A.U. after   11 cycles
 SCF Done:  E(RB3LYP) =  -854.243609480     A.U. after   11 cycles
 SCF Done:  E(RB3LYP) =  -854.244619754     A.U. after   11 cycles
 SCF Done:  E(RB3LYP) =  -854.244626105     A.U. after    9 cycles
 SCF Done:  E(RB3LYP) =  -854.244627636     A.U. after    8 cycles
 SCF Done:  E(RB3LYP) =  -854.244628125     A.U. after    9 cycles
 SCF Done:  E(RB3LYP) =  -854.244628234     A.U. after    8 cycles
 SCF Done:  E(RB3LYP) =  -854.244628303     A.U. after    7 cycles
 Optimization completed.
    -- Stationary point found.
 Normal termination of Gaussian 16 at Tue Dec  8 19:48:46 2020.

 --------------------------------------------------------------------
 #N Geom=AllCheck Guess=TCheck SCRF=Check GenChk RB3LYP/6-31G(d) Freq
 --------------------------------------------------------------------

 Structure from the checkpoint file:  "JID_1305.chk"
 ------------------------------
 CID_72391014_JID_1305_neutraal
 ------------------------------
 Charge =  0 Multiplicity = 1

 SCF Done:  E(RB3LYP) =  -854.244628303     A.U. after    1 cycles

  Exact polarizability: 129.571  -7.724 112.705   8.127  -0.210  91.410
 Approx polarizability: 172.545 -21.212 185.884  12.916  -0.462 134.017

                      1                      2                      3
                      A                      A                      A
 Frequencies --     34.7704                55.1071                69.9669
 Red. masses --      3.7702                 3.7008                 2.5077
 Frc consts  --      0.0027                 0.0066                 0.0072
 IR Inten    --      1.4675                 0.7637                 5.9939

                      4                      5                      6
                      A                      A                      A
 Frequencies --    100.5638               113.0110               129.0185
 Red. masses --      1.7204                 2.9855                 1.6873
 Frc consts  --      0.0103                 0.0225                 0.0165
 IR Inten    --      2.8491                11.4721                 6.6431

                      7                      8                      9
                      A                      A                      A
 Frequencies --    158.8214               170.2238               195.1373
 Red. masses --      2.2254                 2.1323                 1.7133
 Frc consts  --      0.0331                 0.0364                 0.0384
 IR Inten    --      2.7876                 7.3202                 6.7337

                     10                     11                     12
                      A                      A                      A
 Frequencies --    234.9917               254.7179               282.5371
 Red. masses --      1.4320                 1.9534                 4.8549
 Frc consts  --      0.0466                 0.0747                 0.2283
 IR Inten    --     39.1916                18.3305                 0.2837

                     13                     14                     15
                      A                      A                      A
 Frequencies --    315.0154               372.6824               394.2421
 Red. masses --      4.1332                 2.8810                 3.4697
 Frc consts  --      0.2417                 0.2358                 0.3177
 IR Inten    --      9.9969                 4.9033                 3.1678

                     16                     17                     18
                      A                      A                      A
 Frequencies --    459.9142               502.0062               555.1125
 Red. masses --      2.6662                 3.1486                 4.2103
 Frc consts  --      0.3323                 0.4675                 0.7644
 IR Inten    --     25.1545                 7.7528                 5.5195

                     19                     20                     21
                      A                      A                      A
 Frequencies --    623.2968               639.5252               688.8681
 Red. masses --      2.2192                 2.9809                 3.9446
 Frc consts  --      0.5080                 0.7183                 1.1029
 IR Inten    --     40.4397                48.9381                27.3344

                     22                     23                     24
                      A                      A                      A
 Frequencies --    725.7625               809.6387               864.5943
 Red. masses --      3.0892                 1.8147                 1.3371
 Frc consts  --      0.9587                 0.7009                 0.5889
 IR Inten    --      8.5689                 0.6437               114.6557

                     25                     26                     27
                      A                      A                      A
 Frequencies --    907.5983               933.3031               966.0494
 Red. masses --      1.5817                 1.7698                 2.5334
 Frc consts  --      0.7676                 0.9083                 1.3930
 IR Inten    --     11.8477                17.0026                17.8283

                     28                     29                     30
                      A                      A                      A
 Frequencies --   1046.3261              1051.4236              1080.7754
 Red. masses --      2.0954                 4.0366                 2.1143
 Frc consts  --      1.3516                 2.6292                 1.4551
 IR Inten    --     10.3559                11.7081                69.7409

                     31                     32                     33
                      A                      A                      A
 Frequencies --   1104.0746              1125.6691              1150.4260
 Red. masses --      2.3900                 2.4569                 1.3859
 Frc consts  --      1.7165                 1.8342                 1.0807
 IR Inten    --     27.1537                 5.8608                13.1214

                     34                     35                     36
                      A                      A                      A
 Frequencies --   1164.7029              1180.9708              1185.3008
 Red. masses --      1.3280                 1.9281                 1.2898
 Frc consts  --      1.0614                 1.5843                 1.0676
 IR Inten    --      2.8021                16.7863                 3.2080

                     37                     38                     39
                      A                      A                      A
 Frequencies --   1232.1426              1260.0302              1293.7745
 Red. masses --      2.1467                 1.3280                 2.5478
 Frc consts  --      1.9202                 1.2422                 2.5127
 IR Inten    --     50.4558                27.0969               178.2779

                     40                     41                     42
                      A                      A                      A
 Frequencies --   1355.7263              1366.7576              1383.8868
 Red. masses --      1.3883                 1.1431                 3.0658
 Frc consts  --      1.5034                 1.2581                 3.4593
 IR Inten    --      2.0076                 3.5839               232.8814

                     43                     44                     45
                      A                      A                      A
 Frequencies --   1414.9849              1437.5769              1470.3248
 Red. masses --      1.3394                 1.3658                 1.1618
 Frc consts  --      1.5800                 1.6631                 1.4799
 IR Inten    --      9.8665                24.1782                15.0929

                     46                     47                     48
                      A                      A                      A
 Frequencies --   1475.3807              1494.6110              1511.5106
 Red. masses --      1.1054                 1.3018                 1.0810
 Frc consts  --      1.4177                 1.7134                 1.4552
 IR Inten    --      3.2584                42.2051                13.2149

                     49                     50                     51
                      A                      A                      A
 Frequencies --   1530.2849              1532.9017              1535.5328
 Red. masses --      1.1228                 1.2928                 1.0886
 Frc consts  --      1.5492                 1.7898                 1.5123
 IR Inten    --     24.9127                86.5876                 8.0204

                     52                     53                     54
                      A                      A                      A
 Frequencies --   1536.2928              1558.3059              1706.1608
 Red. masses --      1.0879                 1.1299                 1.0937
 Frc consts  --      1.5128                 1.6166                 1.8758
 IR Inten    --     41.3667                57.5674                35.0673

                     55                     56                     57
                      A                      A                      A
 Frequencies --   1724.5229              2968.0424              3050.1624
 Red. masses --      8.0904                 1.0736                 1.0350
 Frc consts  --     14.1761                 5.5723                 5.6734
 IR Inten    --     26.3845                74.7271                36.2865

                     58                     59                     60
                      A                      A                      A
 Frequencies --   3063.0649              3064.2040              3089.6817
 Red. masses --      1.0378                 1.0626                 1.0894
 Frc consts  --      5.7371                 5.8781                 6.1271
 IR Inten    --     75.0528                 4.5346                30.9607

                     61                     62                     63
                      A                      A                      A
 Frequencies --   3109.9729              3118.1406              3134.6323
 Red. masses --      1.1022                 1.0988                 1.0987
 Frc consts  --      6.2812                 6.2945                 6.3605
 IR Inten    --     25.3795                 7.7508                15.0959

                     64                     65                     66
                      A                      A                      A
 Frequencies --   3141.3279              3157.9068              3173.2329
 Red. masses --      1.1048                 1.0875                 1.1053
 Frc consts  --      6.4235                 6.3896                 6.5572
 IR Inten    --     19.2352                19.8998                 6.0640

                     67                     68                     69
                      A                      A                      A
 Frequencies --   3481.7692              3562.7740              3614.7919
 Red. masses --      1.0503                 1.0924                 1.0767
 Frc consts  --      7.5014                 8.1697                 8.2894
 IR Inten    --      0.7139                 0.2854                39.3477

 - Thermochemistry -
 -------------------
 Temperature   298.150 Kelvin.  Pressure   1.00000 Atm.
 Atom     1 has atomic number  6 and mass  12.00000

 Molecular mass:   174.09392 amu.
 Principal axes and moments of inertia in atomic units:
                           1         2         3
     Eigenvalues --  1338.160393320.467653580.08148
           X            0.99980  -0.01984   0.00220
           Y            0.01982   0.99979   0.00597
           Z           -0.00232  -0.00593   0.99998
 This molecule is an asymmetric top.
 Rotational symmetry number  1.
 Warning -- assumption of classical behavior for rotation
           may cause significant error
 Rotational temperatures (Kelvin)      0.06473     0.02608     0.02419
 Rotational constants (GHZ):           1.34867     0.54352     0.50411
 Zero-point vibrational energy     563420.5 (Joules/Mol)
                                  134.66074 (Kcal/Mol)
 Warning -- explicit consideration of  18 degrees of freedom as
           vibrations may cause significant error
 Vibrational temperatures:     50.03    79.29   100.67   144.69   162.60
          (Kelvin)            185.63   228.51   244.91   280.76   338.10
                              366.48   406.51   453.24   536.21   567.23
                              661.71   722.27   798.68   896.79   920.13
                              991.13  1044.21  1164.89  1243.96  1305.83
                             1342.81  1389.93  1505.43  1512.76  1554.99
                             1588.52  1619.59  1655.21  1675.75  1699.15
                             1705.38  1772.78  1812.90  1861.45  1950.59
                             1966.46  1991.10  2035.85  2068.35  2115.47
                             2122.74  2150.41  2174.73  2201.74  2205.50
                             2209.29  2210.38  2242.05  2454.78  2481.20
                             4270.35  4388.50  4407.07  4408.71  4445.36
                             4474.56  4486.31  4510.04  4519.67  4543.52
                             4565.57  5009.49  5126.04  5200.88

 Zero-point correction=                           0.214596 (Hartree/Particle)
 Thermal correction to Energy=                    0.228112
 Thermal correction to Enthalpy=                  0.229056
 Thermal correction to Gibbs Free Energy=         0.173481
 Sum of electronic and zero-point Energies=           -854.030033
 Sum of electronic and thermal Energies=              -854.016517
 Sum of electronic and thermal Enthalpies=            -854.015572
 Sum of electronic and thermal Free Energies=         -854.071148

                     E (Thermal)             CV                S
                      KCal/Mol        Cal/Mol-Kelvin    Cal/Mol-Kelvin
 Total                  143.142             47.194            116.968
 Electronic               0.000              0.000              0.000
 Translational            0.889              2.981             41.371
 Rotational               0.889              2.981             31.143
 Vibrational            141.365             41.233             44.455
 Vibration     1          0.594              1.983              5.537
 Vibration     2          0.596              1.976              4.625
 Vibration     3          0.598              1.968              4.154
 Vibration     4          0.604              1.949              3.443
 Vibration     5          0.607              1.939              3.217
 Vibration     6          0.612              1.924              2.961
 Vibration     7          0.621              1.893              2.564
 Vibration     8          0.625              1.879              2.433
 Vibration     9          0.636              1.847              2.178
 Vibration    10          0.655              1.787              1.840
 Vibration    11          0.665              1.755              1.698
 Vibration    12          0.682              1.706              1.518
 Vibration    13          0.702              1.645              1.336
 Vibration    14          0.744              1.528              1.069
 Vibration    15          0.761              1.482              0.984
 Vibration    16          0.818              1.339              0.766
 Vibration    17          0.857              1.246              0.653
 Vibration    18          0.911              1.129              0.534

 Optimization completed.
    -- Stationary point found.
 Normal termination of Gaussian 16 at Tue Dec  8 19:54:06 2020.

 ----------------------------------------------------------------------
 # B3LYP/6-311++G(d,p) empiricaldispersion=gd3bj scf=xqc pop=npa geom=c
 heck
 ----------------------------------------------------------------------

 --------------------------------------
 CID_72391014_JID_1305_Energie_neutraal
 --------------------------------------
 Structure from the checkpoint file:  "JID_1305.chk"
 Charge =  0 Multiplicity = 1

 SCF Done:  E(RB3LYP) =  -854.411141595     A.U. after   15 cycles
 Normal termination of Gaussian 16 at Tue Dec  8 19:56:26 2020.

 ----------------------------------------------------------------------
 # B3LYP/6-311++G(d,p) empiricaldispersion=gd3bj scf=xqc pop=npa geom=c
 heck
 ----------------------------------------------------------------------

 ------------------------------------
 CID_72391014_JID_1305_Energie_kation
 ------------------------------------
 Structure from the checkpoint file:  "JID_1305.chk"
 Charge =  1 Multiplicity = 2

 SCF Done:  E(UB3LYP) =  -854.128057889     A.U. after   31 cycles
 Normal termination of Gaussian 16 at Tue Dec  8 20:03:56 2020.
 Gaussian 16:  ES64L-G16RevA.03 25-Dec-2016

 ----------------------------------------------------------------------
 # B3LYP/6-311++G(d,p) empiricaldispersion=gd3bj scf=xqc pop=npa geom=c
 heck
 ----------------------------------------------------------------------

 -----------------------------------
 CID_72391014_JID_1305_Energie_anion
 -----------------------------------
 Structure from the checkpoint file:  "JID_1305.chk"
 Charge = -1 Multiplicity = 2

                         Standard orientation:
 ---------------------------------------------------------------------
 Center     Atomic      Atomic             Coordinates (Angstroms)
 Number     Number       Type             X           Y           Z
 ---------------------------------------------------------------------
      1          6           0       -2.513102    0.995686   -1.642824
      2          7           0       -2.451920   -0.182358   -0.780345
      3          6           0       -1.404902   -0.478066    0.057200
      4         16           0       -0.946798   -2.070455    0.317215
      5          7           0       -0.838321    0.634085    0.649408
      6          6           0       -1.697765    1.723188    1.131386
      7          7           0        0.309466    0.531911    1.461603
      8          6           0        1.395436    0.150072    0.901161
      9          6           0        1.696716   -0.185584   -0.524992
     10          6           0        3.008630    0.452275   -1.015484
     11          7           0        4.156823    0.015499   -0.212656
     12          1           0       -1.516502    1.433098   -1.757437
     13          1           0       -3.185612    1.768318   -1.253064
     14          1           0       -2.875997    0.692506   -2.628692
     15          1           0       -2.873672   -1.025332   -1.145885
     16          1           0       -1.453303    1.880017    2.184291
     17          1           0       -1.513995    2.652687    0.581936
     18          1           0       -2.747819    1.443794    1.035782
     19          1           0        2.225165    0.069304    1.604219
     20          1           0        1.775539   -1.277111   -0.603190
     21          1           0        0.870300    0.125363   -1.170919
     22          1           0        3.174416    0.116073   -2.044604
     23          1           0        2.885402    1.548666   -1.057694
     24          1           0        5.019436    0.190323   -0.723225
     25          1           0        4.222996    0.570179    0.638289
 ---------------------------------------------------------------------

 SCF Done:  E(UB3LYP) =  -854.404810193     A.U. after   31 cycles

 The electronic state is 2-A.
 Alpha  occ. eigenvalues --  -88.68163 -14.27359 -14.24099 -14.23348 -14.19423
 Alpha  occ. eigenvalues --  -10.17517 -10.10717 -10.10695 -10.10575 -10.09246
 Alpha  occ. eigenvalues --  -10.06670  -7.76954  -5.73364  -5.72808  -5.72462
 Alpha  occ. eigenvalues --   -0.92087  -0.84662  -0.78542  -0.75105  -0.66618
 Alpha  occ. eigenvalues --   -0.64734  -0.59594  -0.56988  -0.55043  -0.50855
 Alpha  occ. eigenvalues --   -0.44063  -0.41916  -0.39303  -0.38787  -0.38288
 Alpha  occ. eigenvalues --   -0.37083  -0.35815  -0.35377  -0.32907  -0.31200
 Alpha  occ. eigenvalues --   -0.29452  -0.29160  -0.27521  -0.26889  -0.26275
 Alpha  occ. eigenvalues --   -0.25121  -0.21972  -0.19005  -0.14837  -0.13728
 Alpha  occ. eigenvalues --   -0.11359  -0.10408   0.03983
 Alpha virt. eigenvalues --    0.05869   0.06850   0.07857   0.08416   0.08998
 Alpha virt. eigenvalues --    0.09201   0.09871   0.10740   0.11222   0.11749
 Alpha virt. eigenvalues --    0.12610   0.12995   0.13326   0.14348   0.14793

  Beta  occ. eigenvalues --  -88.68158 -14.27365 -14.24085 -14.23275 -14.19382
  Beta  occ. eigenvalues --  -10.17430 -10.10698 -10.10632 -10.10507 -10.09206
  Beta  occ. eigenvalues --  -10.06668  -7.76949  -5.73364  -5.72791  -5.72458
  Beta  occ. eigenvalues --   -0.92001  -0.84574  -0.78466  -0.75021  -0.66512
  Beta  occ. eigenvalues --   -0.64650  -0.59520  -0.56922  -0.54927  -0.50772
  Beta  occ. eigenvalues --   -0.43974  -0.41845  -0.39244  -0.38693  -0.38210
  Beta  occ. eigenvalues --   -0.36989  -0.35743  -0.35310  -0.32843  -0.31129
  Beta  occ. eigenvalues --   -0.29390  -0.29049  -0.27439  -0.26806  -0.26192
  Beta  occ. eigenvalues --   -0.25018  -0.21695  -0.18832  -0.14777  -0.13641
  Beta  occ. eigenvalues --   -0.11283  -0.10369
  Beta virt. eigenvalues --    0.06577   0.06933   0.07455   0.08489   0.08950
  Beta virt. eigenvalues --    0.09425   0.09816   0.10444   0.11059   0.11503
  Beta virt. eigenvalues --    0.11980   0.12960   0.13258   0.13672   0.14540

 Mulliken charges and spin densities:
               1          2
     1  C    1.204086  -1.556824
     2  N   -0.164265   0.125647
     3  C   -0.631646   0.350188
     4  S   -0.714582   0.006138
     5  N    0.516970   0.016841
     6  C    0.262945  -0.623353
     7  N   -0.167536   0.004495
     8  C   -0.354015   0.152419
     9  C   -0.612601   0.634234
    10  C    1.279580  -1.927609
    11  N   -0.441583   0.103825
    12  H   -0.331386   0.489367
    13  H   -0.315959   0.469953
    14  H   -0.750952   0.914303
    15  H    0.233813   0.050709
    16  H    0.185846  -0.017698
    17  H   -0.105298   0.291109
    18  H    0.082962   0.076882
    19  H    0.138579   0.027429
    20  H    0.165601   0.002869
    21  H    0.413164  -0.249758
    22  H   -0.395027   0.568219
    23  H   -0.352939   0.494973
    24  H   -0.111907   0.351051
    25  H   -0.033851   0.244592
 Sum of Mulliken charges =  -1.00000   1.00000

 Dipole moment (field-independent basis, Debye):
    X=             -2.1516    Y=             -0.5051    Z=              3.6450  Tot=              4.2627
 Quadrupole moment (field-independent basis, Debye-Ang):
   XX=           -139.3969   YY=           -114.2269   ZZ=           -112.9929
   XY=             -0.5090   XZ=             -3.5992   YZ=             10.5577

 Summary of Natural Population Analysis:

                                       Natural Population
                Natural  -----------------------------------------------
    Atom  No    Charge         Core      Valence    Rydberg      Total
 -----------------------------------------------------------------------
      C    1   -0.18176      0.99964     2.17355    0.00858     3.18176
      N    2   -0.32217      0.99965     2.80921    0.01332     3.82217
      C    3    0.15599      0.99960     1.82093    0.02347     2.84401
      S    4   -0.13477      4.99956     3.12248    0.01274     8.13477
      N    5   -0.18417      0.99959     2.66951    0.01507     3.68417
      C    6   -0.17397      0.99963     2.16618    0.00816     3.17397
      N    7   -0.14021      0.99968     2.62782    0.01270     3.64021
      C    8    0.09229      0.99963     1.89213    0.01595     2.90771
      C    9   -0.23546      0.99960     2.22564    0.01022     3.23546
      C   10   -0.08498      0.99964     2.07362    0.01173     3.08498
      N   11   -0.42656      0.99977     2.91573    0.01106     3.92656
      H   12    0.10135      0.00000     0.39593    0.00272     0.39865
      H   13    0.09219      0.00000     0.40623    0.00158     0.40781
      H   14    0.10292      0.00000     0.39472    0.00236     0.39708
      H   15    0.19779      0.00000     0.30010    0.00210     0.30221
      H   16    0.10532      0.00000     0.39343    0.00125     0.39468
      H   17    0.09617      0.00000     0.40258    0.00124     0.40383
      H   18    0.09956      0.00000     0.39932    0.00113     0.40044
      H   19    0.08808      0.00000     0.41056    0.00137     0.41192
      H   20    0.12022      0.00000     0.37843    0.00135     0.37978
      H   21    0.10638      0.00000     0.39149    0.00213     0.39362
      H   22    0.09338      0.00000     0.40523    0.00139     0.40662
      H   23    0.08174      0.00000     0.41545    0.00280     0.41826
      H   24    0.17811      0.00000     0.31957    0.00232     0.32189
      H   25    0.17256      0.00000     0.32559    0.00185     0.32744
 =======================================================================
   * Total *    0.00000     14.99599    31.83544    0.16858    47.00000

 Normal termination of Gaussian 16 at Tue Dec  8 20:10:50 2020.
