 Gaussian 16, Revision A.03,

 -----------------------------------------------------------
 # opt freq B3LYP/6-31G(d) empiricaldispersion=gd3bj scf=xqc
 -----------------------------------------------------------

 -------------------------------
 CID_114143791_JID_8058_neutraal
 -------------------------------
 Symbolic Z-matrix:
 Charge =  0 Multiplicity = 1

 SCF Done:  E(RB3LYP) =  -838.835384339     A.U. after   14 cycles
 SCF Done:  E(RB3LYP) =  -838.845100125     A.U. after   12 cycles
 SCF Done:  E(RB3LYP) =  -838.846710851     A.U. after   12 cycles
 SCF Done:  E(RB3LYP) =  -838.847363038     A.U. after   12 cycles
 SCF Done:  E(RB3LYP) =  -838.847703517     A.U. after   11 cycles
 SCF Done:  E(RB3LYP) =  -838.848158252     A.U. after   11 cycles
 SCF Done:  E(RB3LYP) =  -838.848262502     A.U. after   11 cycles
 SCF Done:  E(RB3LYP) =  -838.848302762     A.U. after   10 cycles
 SCF Done:  E(RB3LYP) =  -838.848332697     A.U. after   10 cycles
 SCF Done:  E(RB3LYP) =  -838.848365087     A.U. after   10 cycles
 SCF Done:  E(RB3LYP) =  -838.849035942     A.U. after   11 cycles
 SCF Done:  E(RB3LYP) =  -838.849048551     A.U. after   10 cycles
 SCF Done:  E(RB3LYP) =  -838.849053824     A.U. after   10 cycles
 SCF Done:  E(RB3LYP) =  -838.849053906     A.U. after    9 cycles
 SCF Done:  E(RB3LYP) =  -838.849053953     A.U. after    9 cycles
 SCF Done:  E(RB3LYP) =  -838.849053978     A.U. after    7 cycles
 Optimization completed on the basis of negligible forces.
    -- Stationary point found.
 Normal termination of Gaussian 16 at Sat Feb 27 19:06:51 2021.

 --------------------------------------------------------------------
 #N Geom=AllCheck Guess=TCheck SCRF=Check GenChk RB3LYP/6-31G(d) Freq
 --------------------------------------------------------------------

 Structure from the checkpoint file:  "JID_8058.chk"
 -------------------------------
 CID_114143791_JID_8058_neutraal
 -------------------------------
 Charge =  0 Multiplicity = 1

 SCF Done:  E(RB3LYP) =  -838.849053978     A.U. after    1 cycles

  Exact polarizability: 208.967   5.089 173.819   1.678   2.286 109.184
 Approx polarizability: 272.696   3.746 250.266   3.048   0.568 161.827

                      1                      2                      3
                      A                      A                      A
 Frequencies --     23.6130                29.9579                38.3661
 Red. masses --      3.3653                 3.4002                 3.0647
 Frc consts  --      0.0011                 0.0018                 0.0027
 IR Inten    --      0.1208                 0.9340                 0.4355

                      4                      5                      6
                      A                      A                      A
 Frequencies --     47.4206                64.6417                72.4297
 Red. masses --      4.6998                 1.0576                 3.6432
 Frc consts  --      0.0062                 0.0026                 0.0113
 IR Inten    --      0.9673                 0.7149                 1.7991

                      7                      8                      9
                      A                      A                      A
 Frequencies --     80.6374               125.3232               131.1676
 Red. masses --      2.5307                 4.0411                 3.1640
 Frc consts  --      0.0097                 0.0374                 0.0321
 IR Inten    --      8.4694                 6.3348                 0.3032

                     10                     11                     12
                      A                      A                      A
 Frequencies --    177.2939               186.7690               207.7329
 Red. masses --      4.3890                 3.7661                 3.3587
 Frc consts  --      0.0813                 0.0774                 0.0854
 IR Inten    --      1.6654                 1.3714                 5.2467

                     13                     14                     15
                      A                      A                      A
 Frequencies --    210.6712               241.7288               249.4643
 Red. masses --      2.4321                 6.4066                 2.5799
 Frc consts  --      0.0636                 0.2206                 0.0946
 IR Inten    --      3.5185                 4.7169                 1.3286

                     16                     17                     18
                      A                      A                      A
 Frequencies --    273.2532               317.8814               346.6174
 Red. masses --      1.4781                 2.9644                 2.2724
 Frc consts  --      0.0650                 0.1765                 0.1609
 IR Inten    --      1.9137                 1.2438                14.7409

                     19                     20                     21
                      A                      A                      A
 Frequencies --    347.5853               377.2750               409.3824
 Red. masses --      1.4666                 2.1064                 2.7319
 Frc consts  --      0.1044                 0.1766                 0.2698
 IR Inten    --     44.7281                72.4706                 0.7972

                     22                     23                     24
                      A                      A                      A
 Frequencies --    435.5012               468.3240               507.0200
 Red. masses --      2.4755                 2.7968                 1.2696
 Frc consts  --      0.2766                 0.3614                 0.1923
 IR Inten    --     14.5335                43.1276                85.0221

                     25                     26                     27
                      A                      A                      A
 Frequencies --    550.3859               557.4260               593.4451
 Red. masses --      5.4429                 2.9426                 4.4608
 Frc consts  --      0.9714                 0.5387                 0.9256
 IR Inten    --      4.5394                32.7821                 2.0377

                     28                     29                     30
                      A                      A                      A
 Frequencies --    599.5423               637.8604               657.0939
 Red. masses --      3.7476                 1.6335                 2.2277
 Frc consts  --      0.7937                 0.3916                 0.5667
 IR Inten    --      1.7182                96.3688                69.4945

                     31                     32                     33
                      A                      A                      A
 Frequencies --    706.6868               714.9912               776.6177
 Red. masses --      4.2323                 3.3022                 3.0256
 Frc consts  --      1.2453                 0.9946                 1.0752
 IR Inten    --      4.6417                13.7985                 4.1565

                     34                     35                     36
                      A                      A                      A
 Frequencies --    786.7201               800.9921               804.9397
 Red. masses --      1.6779                 3.7526                 4.1759
 Frc consts  --      0.6119                 1.4185                 1.5941
 IR Inten    --      1.9879                18.5268                28.7346

                     37                     38                     39
                      A                      A                      A
 Frequencies --    816.2264               879.3580               924.9192
 Red. masses --      1.1815                 2.1737                 2.5329
 Frc consts  --      0.4638                 0.9903                 1.2767
 IR Inten    --      0.6958                 9.3805                24.8012

                     40                     41                     42
                      A                      A                      A
 Frequencies --    927.4818               944.3719               977.7747
 Red. masses --      2.1958                 2.6128                 2.1376
 Frc consts  --      1.1129                 1.3729                 1.2041
 IR Inten    --      9.9831                13.9289                10.7143

                     43                     44                     45
                      A                      A                      A
 Frequencies --    985.5633               990.5609              1014.0457
 Red. masses --      4.1302                 1.8867                 2.6521
 Frc consts  --      2.3637                 1.0907                 1.6068
 IR Inten    --      1.9405                20.7055                 4.8277

                     46                     47                     48
                      A                      A                      A
 Frequencies --   1026.5036              1039.8727              1062.2414
 Red. masses --      2.7072                 1.6006                 2.2859
 Frc consts  --      1.6807                 1.0197                 1.5197
 IR Inten    --     10.5239                11.3326                 4.0985

                     49                     50                     51
                      A                      A                      A
 Frequencies --   1072.4020              1086.5533              1117.4543
 Red. masses --      1.5992                 3.4825                 3.0266
 Frc consts  --      1.0836                 2.4224                 2.2267
 IR Inten    --      5.0938                51.5247                33.7324

                     52                     53                     54
                      A                      A                      A
 Frequencies --   1122.9480              1159.6004              1169.6801
 Red. masses --      2.1772                 2.7144                 1.5992
 Frc consts  --      1.6176                 2.1505                 1.2891
 IR Inten    --     14.2855                62.2508                16.7675

                     55                     56                     57
                      A                      A                      A
 Frequencies --   1191.6711              1198.8613              1203.4741
 Red. masses --      2.0924                 2.2251                 2.1256
 Frc consts  --      1.7507                 1.8842                 1.8139
 IR Inten    --      9.4113                22.3842                29.2794

                     58                     59                     60
                      A                      A                      A
 Frequencies --   1218.9386              1237.3798              1249.7772
 Red. masses --      1.4319                 1.6119                 1.2038
 Frc consts  --      1.2535                 1.4541                 1.1078
 IR Inten    --      3.1639                 6.4487                75.0912

                     61                     62                     63
                      A                      A                      A
 Frequencies --   1262.7854              1294.1483              1297.9119
 Red. masses --      1.3243                 1.8470                 1.3650
 Frc consts  --      1.2442                 1.8225                 1.3548
 IR Inten    --     18.3638                15.3033                 4.9791

                     64                     65                     66
                      A                      A                      A
 Frequencies --   1306.3014              1337.7298              1357.2145
 Red. masses --      2.1431                 1.3501                 1.5233
 Frc consts  --      2.1547                 1.4234                 1.6532
 IR Inten    --     97.6575                 4.2664                85.9315

                     67                     68                     69
                      A                      A                      A
 Frequencies --   1373.9076              1387.0473              1393.4221
 Red. masses --      1.6176                 1.4464                 1.5464
 Frc consts  --      1.7990                 1.6395                 1.7690
 IR Inten    --      9.0704                52.4554                 5.0283

                     70                     71                     72
                      A                      A                      A
 Frequencies --   1420.7001              1432.8855              1436.9800
 Red. masses --      1.5049                 1.3786                 1.4933
 Frc consts  --      1.7897                 1.6676                 1.8168
 IR Inten    --     33.4940                 2.9665                 8.6602

                     73                     74                     75
                      A                      A                      A
 Frequencies --   1444.6986              1459.3617              1464.5590
 Red. masses --      1.3715                 1.8962                 3.1131
 Frc consts  --      1.6866                 2.3793                 3.9342
 IR Inten    --     25.5962                30.9208               218.3254

                     76                     77                     78
                      A                      A                      A
 Frequencies --   1502.9343              1504.7343              1515.7966
 Red. masses --      1.1125                 1.0455                 1.1771
 Frc consts  --      1.4806                 1.3948                 1.5935
 IR Inten    --      3.2948                 5.0765                97.3975

                     79                     80                     81
                      A                      A                      A
 Frequencies --   1523.6133              1530.6349              1537.2891
 Red. masses --      1.0505                 1.0470                 1.0875
 Frc consts  --      1.4368                 1.4453                 1.5143
 IR Inten    --     18.0404                23.3882                17.0038

                     82                     83                     84
                      A                      A                      A
 Frequencies --   1542.8241              1553.2404              1553.7966
 Red. masses --      1.1045                 1.0991                 1.1058
 Frc consts  --      1.5489                 1.5623                 1.5729
 IR Inten    --     65.5064                 0.7723                 7.7122

                     85                     86                     87
                      A                      A                      A
 Frequencies --   1567.7522              1592.0947              1632.5173
 Red. masses --      2.5080                 4.4384                 5.8874
 Frc consts  --      3.6319                 6.6285                 9.2446
 IR Inten    --    340.3478                81.7162               676.9325

                     88                     89                     90
                      A                      A                      A
 Frequencies --   1642.0015              2947.5874              2998.7300
 Red. masses --      5.2018                 1.0738                 1.0751
 Frc consts  --      8.2633                 5.4966                 5.6959
 IR Inten    --    628.1657                63.5805                57.7928

                     91                     92                     93
                      A                      A                      A
 Frequencies --   3011.3866              3036.6092              3047.7007
 Red. masses --      1.0602                 1.0690                 1.0386
 Frc consts  --      5.6649                 5.8075                 5.6836
 IR Inten    --     78.1882                52.8005                30.6745

                     94                     95                     96
                      A                      A                      A
 Frequencies --   3048.4191              3057.3495              3072.3761
 Red. masses --      1.1046                 1.0357                 1.0862
 Frc consts  --      6.0482                 5.7040                 6.0412
 IR Inten    --     34.4349                18.0883                21.9303

                     97                     98                     99
                      A                      A                      A
 Frequencies --   3086.1449              3103.3273              3117.2348
 Red. masses --      1.0666                 1.0926                 1.0972
 Frc consts  --      5.9852                 6.1995                 6.2818
 IR Inten    --     20.8092                 4.6468                41.0004

                    100                    101                    102
                      A                      A                      A
 Frequencies --   3118.1536              3123.8567              3132.5060
 Red. masses --      1.1005                 1.0943                 1.1032
 Frc consts  --      6.3043                 6.2917                 6.3780
 IR Inten    --     13.3527                39.2200                31.1462

                    103                    104                    105
                      A                      A                      A
 Frequencies --   3139.2058              3152.3427              3231.9967
 Red. masses --      1.1034                 1.1025                 1.0911
 Frc consts  --      6.4067                 6.4548                 6.7150
 IR Inten    --     20.5529                13.7902                10.4394

                    106                    107                    108
                      A                      A                      A
 Frequencies --   3584.7587              3620.1916              3725.9202
 Red. masses --      1.0751                 1.0761                 1.0660
 Frc consts  --      8.1398                 8.3093                 8.7190
 IR Inten    --     60.2371                34.8120                12.9449

 - Thermochemistry -
 -------------------
 Temperature   298.150 Kelvin.  Pressure   1.00000 Atm.
 Atom     1 has atomic number  8 and mass  15.99491

 Molecular mass:   252.15863 amu.
 Principal axes and moments of inertia in atomic units:
                           1         2         3
     Eigenvalues --  2607.41388********************
           X            0.99993   0.01147  -0.00095
           Y           -0.01147   0.99992   0.00522
           Z            0.00101  -0.00521   0.99999
 This molecule is an asymmetric top.
 Rotational symmetry number  1.
 Warning -- assumption of classical behavior for rotation
           may cause significant error
 Rotational temperatures (Kelvin)      0.03322     0.00842     0.00702
 Rotational constants (GHZ):           0.69216     0.17536     0.14629
 Zero-point vibrational energy     857717.1 (Joules/Mol)
                                  204.99930 (Kcal/Mol)
 Warning -- explicit consideration of  28 degrees of freedom as
           vibrations may cause significant error
 Vibrational temperatures:     33.97    43.10    55.20    68.23    93.01
          (Kelvin)            104.21   116.02   180.31   188.72   255.09
                              268.72   298.88   303.11   347.79   358.92
                              393.15   457.36   498.71   500.10   542.81
                              589.01   626.59   673.81   729.49   791.88
                              802.01   853.84   862.61   917.74   945.41
                             1016.76  1028.71  1117.38  1131.91  1152.45
                             1158.13  1174.37  1265.20  1330.75  1334.44
                             1358.74  1406.80  1418.01  1425.20  1458.99
                             1476.91  1496.14  1528.33  1542.95  1563.31
                             1607.77  1615.67  1668.41  1682.91  1714.55
                             1724.89  1731.53  1753.78  1780.31  1798.15
                             1816.87  1861.99  1867.41  1879.48  1924.69
                             1952.73  1976.75  1995.65  2004.82  2044.07
                             2061.60  2067.49  2078.60  2099.70  2107.17
                             2162.39  2164.98  2180.89  2192.14  2202.24
                             2211.82  2219.78  2234.77  2235.57  2255.65
                             2290.67  2348.83  2362.47  4240.92  4314.50
                             4332.71  4369.00  4384.96  4386.00  4398.84
                             4420.46  4440.27  4465.00  4485.01  4486.33
                             4494.53  4506.98  4516.62  4535.52  4650.12
                             5157.67  5208.65  5360.77

 Zero-point correction=                           0.326687 (Hartree/Particle)
 Thermal correction to Energy=                    0.345376
 Thermal correction to Enthalpy=                  0.346320
 Thermal correction to Gibbs Free Energy=         0.277200
 Sum of electronic and zero-point Energies=           -838.522367
 Sum of electronic and thermal Energies=              -838.503678
 Sum of electronic and thermal Enthalpies=            -838.502734
 Sum of electronic and thermal Free Energies=         -838.571854

                     E (Thermal)             CV                S
                      KCal/Mol        Cal/Mol-Kelvin    Cal/Mol-Kelvin
 Total                  216.727             68.865            145.475
 Electronic               0.000              0.000              0.000
 Translational            0.889              2.981             42.475
 Rotational               0.889              2.981             34.159
 Vibrational            214.949             62.903             68.841
 Vibration     1          0.593              1.985              6.304
 Vibration     2          0.594              1.984              5.832
 Vibration     3          0.594              1.982              5.342
 Vibration     4          0.595              1.979              4.922
 Vibration     5          0.597              1.971              4.310
 Vibration     6          0.599              1.967              4.086
 Vibration     7          0.600              1.962              3.875
 Vibration     8          0.610              1.928              3.017
 Vibration     9          0.612              1.922              2.929
 Vibration    10          0.628              1.870              2.357
 Vibration    11          0.632              1.858              2.260
 Vibration    12          0.641              1.829              2.064
 Vibration    13          0.643              1.825              2.038
 Vibration    14          0.658              1.776              1.790
 Vibration    15          0.662              1.764              1.734
 Vibration    16          0.676              1.723              1.576
 Vibration    17          0.704              1.639              1.321
 Vibration    18          0.725              1.582              1.182
 Vibration    19          0.725              1.580              1.177
 Vibration    20          0.748              1.519              1.050
 Vibration    21          0.774              1.450              0.929
 Vibration    22          0.796              1.393              0.841
 Vibration    23          0.826              1.320              0.742
 Vibration    24          0.862              1.234              0.641
 Vibration    25          0.906              1.139              0.543
 Vibration    26          0.913              1.123              0.529
 Vibration    27          0.951              1.046              0.461
 Vibration    28          0.958              1.033              0.450

 Optimization completed on the basis of negligible forces.
    -- Stationary point found.
 Normal termination of Gaussian 16 at Sat Feb 27 19:21:36 2021.

 ----------------------------------------------------------------------
 # B3LYP/6-311++G(d,p) empiricaldispersion=gd3bj scf=xqc pop=npa geom=c
 heck
 ----------------------------------------------------------------------

 ---------------------------------------
 CID_114143791_JID_8058_Energie_neutraal
 ---------------------------------------
 Structure from the checkpoint file:  "JID_8058.chk"
 Charge =  0 Multiplicity = 1

 SCF Done:  E(RB3LYP) =  -839.096492273     A.U. after   15 cycles
 Normal termination of Gaussian 16 at Sat Feb 27 19:27:53 2021.

 ----------------------------------------------------------------------
 # B3LYP/6-311++G(d,p) empiricaldispersion=gd3bj scf=xqc pop=npa geom=c
 heck
 ----------------------------------------------------------------------

 -------------------------------------
 CID_114143791_JID_8058_Energie_kation
 -------------------------------------
 Structure from the checkpoint file:  "JID_8058.chk"
 Charge =  1 Multiplicity = 2

 SCF Done:  E(UB3LYP) =  -838.821940200     A.U. after   29 cycles
 Normal termination of Gaussian 16 at Sat Feb 27 19:44:13 2021.
 Gaussian 16:  ES64L-G16RevA.03 25-Dec-2016

 ----------------------------------------------------------------------
 # B3LYP/6-311++G(d,p) empiricaldispersion=gd3bj scf=xqc pop=npa geom=c
 heck
 ----------------------------------------------------------------------

 ------------------------------------
 CID_114143791_JID_8058_Energie_anion
 ------------------------------------
 Structure from the checkpoint file:  "JID_8058.chk"
 Charge = -1 Multiplicity = 2

                         Standard orientation:
 ---------------------------------------------------------------------
 Center     Atomic      Atomic             Coordinates (Angstroms)
 Number     Number       Type             X           Y           Z
 ---------------------------------------------------------------------
      1          8           0        5.368746   -0.003959   -0.124650
      2          8           0        2.800057   -1.420747    1.066370
      3          7           0        0.609751   -0.077757    0.041660
      4          7           0       -1.652951   -0.437016    0.004168
      5          7           0       -3.239947    1.374121   -0.101663
      6          7           0       -3.935119   -0.813053   -0.026230
      7          6           0        3.019311   -0.232823    0.287605
      8          6           0        3.370026   -0.726914   -1.120559
      9          6           0        4.321799    0.480489    0.707437
     10          6           0        1.794408    0.678475    0.373206
     11          6           0        4.855310   -1.045308   -0.962909
     12          6           0       -0.649867    0.456429    0.017314
     13          6           0       -0.889705    1.843254   -0.016645
     14          6           0       -2.222267    2.244882   -0.082287
     15          6           0       -2.893834    0.069870   -0.048994
     16          6           0       -2.596690    3.702625   -0.134385
     17          6           0       -3.777979   -2.244217   -0.214056
     18          6           0       -5.065923   -2.973259    0.155438
     19          1           0        3.221054    0.080409   -1.845047
     20          1           0        2.759831   -1.583842   -1.412742
     21          1           0        4.244333    1.569174    0.580046
     22          1           0        4.545160    0.278917    1.765855
     23          1           0        1.920356    1.511587   -0.327780
     24          1           0        1.731537    1.119993    1.385643
     25          1           0        4.992044   -2.025511   -0.485618
     26          1           0        5.416997   -1.024399   -1.900938
     27          1           0        0.643486   -1.060065    0.288626
     28          1           0        2.785075   -1.165990    2.003334
     29          1           0       -0.086733    2.569010   -0.003434
     30          1           0       -4.830473   -0.394259   -0.237474
     31          1           0       -3.236878    3.957037    0.717521
     32          1           0       -1.715586    4.350543   -0.121102
     33          1           0       -3.175057    3.909480   -1.041513
     34          1           0       -3.490485   -2.479884   -1.251316
     35          1           0       -2.949941   -2.574551    0.418348
     36          1           0       -5.333984   -2.785496    1.200519
     37          1           0       -5.902884   -2.646965   -0.474847
     38          1           0       -4.947944   -4.052612    0.015617
 ---------------------------------------------------------------------

 SCF Done:  E(UB3LYP) =  -839.088225010     A.U. after   32 cycles

 The electronic state is 2-A.
 Alpha  occ. eigenvalues --  -19.03574 -19.03164 -14.23570 -14.23391 -14.20065
 Alpha  occ. eigenvalues --  -14.19815 -10.17259 -10.15684 -10.14726 -10.12784
 Alpha  occ. eigenvalues --  -10.12600 -10.12310 -10.11697 -10.11488 -10.08725
 Alpha  occ. eigenvalues --  -10.08206 -10.08009 -10.06847  -0.95739  -0.93304
 Alpha  occ. eigenvalues --   -0.90792  -0.85795  -0.81842  -0.77849  -0.70511
 Alpha  occ. eigenvalues --   -0.69235  -0.66024  -0.65779  -0.62848  -0.60306
 Alpha  occ. eigenvalues --   -0.55753  -0.53275  -0.52097  -0.50799  -0.49451
 Alpha  occ. eigenvalues --   -0.46091  -0.44357  -0.42067  -0.41130  -0.39129
 Alpha  occ. eigenvalues --   -0.38886  -0.37657  -0.37252  -0.36911  -0.36695
 Alpha  occ. eigenvalues --   -0.34979  -0.34675  -0.34137  -0.32750  -0.32037
 Alpha  occ. eigenvalues --   -0.31591  -0.29894  -0.29736  -0.29594  -0.28779
 Alpha  occ. eigenvalues --   -0.28316  -0.27753  -0.27087  -0.25974  -0.24275
 Alpha  occ. eigenvalues --   -0.22988  -0.21400  -0.20271  -0.19538  -0.16645
 Alpha  occ. eigenvalues --   -0.15911  -0.14705  -0.12189   0.03851
 Alpha virt. eigenvalues --    0.05188   0.06478   0.06907   0.07238   0.07803
 Alpha virt. eigenvalues --    0.07893   0.08333   0.08928   0.09592   0.09822
 Alpha virt. eigenvalues --    0.09908   0.10180   0.10697   0.11001   0.11088

  Beta  occ. eigenvalues --  -19.03520 -19.03162 -14.23566 -14.23386 -14.20063
  Beta  occ. eigenvalues --  -14.19813 -10.17256 -10.15684 -10.14725 -10.12782
  Beta  occ. eigenvalues --  -10.12590 -10.12271 -10.11689 -10.11450 -10.08703
  Beta  occ. eigenvalues --  -10.08187 -10.07996 -10.06832  -0.95696  -0.93223
  Beta  occ. eigenvalues --   -0.90783  -0.85779  -0.81832  -0.77838  -0.70480
  Beta  occ. eigenvalues --   -0.69210  -0.65991  -0.65749  -0.62827  -0.60255
  Beta  occ. eigenvalues --   -0.55716  -0.53246  -0.52047  -0.50765  -0.49374
  Beta  occ. eigenvalues --   -0.46070  -0.44318  -0.42027  -0.41095  -0.39103
  Beta  occ. eigenvalues --   -0.38863  -0.37620  -0.37223  -0.36875  -0.36664
  Beta  occ. eigenvalues --   -0.34962  -0.34649  -0.34085  -0.32718  -0.32014
  Beta  occ. eigenvalues --   -0.31565  -0.29870  -0.29711  -0.29569  -0.28752
  Beta  occ. eigenvalues --   -0.28286  -0.27727  -0.27044  -0.25940  -0.24254
  Beta  occ. eigenvalues --   -0.22941  -0.21391  -0.20256  -0.19492  -0.16620
  Beta  occ. eigenvalues --   -0.15905  -0.14695  -0.12175
  Beta virt. eigenvalues --    0.05493   0.06346   0.06870   0.07119   0.07859
  Beta virt. eigenvalues --    0.08078   0.08354   0.08418   0.09085   0.09727
  Beta virt. eigenvalues --    0.10024   0.10165   0.10450   0.10858   0.11086

 Mulliken charges and spin densities:
               1          2
     1  O   -0.223743   0.061161
     2  O   -0.167178   0.000071
     3  N    0.002099   0.152731
     4  N   -0.188184  -0.001768
     5  N   -0.147661   0.032084
     6  N   -0.150262   0.037133
     7  C   -1.551409   1.521704
     8  C    0.567258  -0.756921
     9  C    1.189803  -1.611606
    10  C    1.002362  -1.726096
    11  C   -0.486459   0.158462
    12  C    1.046563  -1.306907
    13  C   -0.053707   0.731168
    14  C   -0.868488   0.507454
    15  C   -0.597768   0.431303
    16  C    0.527382  -1.195034
    17  C   -0.342403   0.183969
    18  C    0.224634  -0.749344
    19  H   -0.146586   0.335023
    20  H    0.122293   0.029471
    21  H   -0.321157   0.510291
    22  H   -0.248518   0.431772
    23  H    0.109813   0.101906
    24  H   -0.308265   0.532069
    25  H    0.105139   0.049612
    26  H   -0.014381   0.177622
    27  H    0.343814   0.020792
    28  H   -0.183746   0.470495
    29  H   -0.477636   0.618534
    30  H    0.255395   0.029911
    31  H    0.096222   0.058375
    32  H   -0.135993   0.276175
    33  H    0.079436   0.077507
    34  H    0.012946   0.153761
    35  H    0.113824   0.053772
    36  H   -0.011430   0.158772
    37  H   -0.106005   0.231407
    38  H   -0.068005   0.213172
 Sum of Mulliken charges =  -1.00000   1.00000

 Dipole moment (field-independent basis, Debye):
    X=             -3.4816    Y=             -1.2768    Z=             -2.9788  Tot=              4.7566
 Quadrupole moment (field-independent basis, Debye-Ang):
   XX=           -203.3617   YY=           -155.1264   ZZ=           -144.1619
   XY=            -10.5189   XZ=             -9.5556   YZ=              2.0307

 Summary of Natural Population Analysis:

                                       Natural Population
                Natural  -----------------------------------------------
    Atom  No    Charge         Core      Valence    Rydberg      Total
 -----------------------------------------------------------------------
      O    1   -0.30233      0.99990     3.29381    0.00862     4.30233
      O    2   -0.38193      0.99989     3.37501    0.00703     4.38193
      N    3   -0.30610      0.99965     2.79608    0.01036     3.80610
      N    4   -0.29880      0.99964     2.79017    0.00899     3.79880
      N    5   -0.30047      0.99965     2.78987    0.01095     3.80047
      N    6   -0.30875      0.99966     2.79928    0.00981     3.80875
      C    7    0.11482      0.99952     1.86811    0.01755     2.88518
      C    8   -0.20879      0.99958     2.20085    0.00836     3.20879
      C    9   -0.01413      0.99952     2.00073    0.01387     3.01413
      C   10   -0.09734      0.99955     2.08488    0.01291     3.09734
      C   11   -0.00765      0.99960     1.99719    0.01086     3.00765
      C   12    0.23018      0.99955     1.75566    0.01461     2.76982
      C   13   -0.19463      0.99946     2.18714    0.00802     3.19463
      C   14    0.13503      0.99957     1.85280    0.01261     2.86497
      C   15    0.31086      0.99961     1.67252    0.01701     2.68914
      C   16   -0.29812      0.99963     2.29281    0.00568     3.29812
      C   17   -0.08673      0.99964     2.07832    0.00877     3.08673
      C   18   -0.28789      0.99967     2.28400    0.00422     3.28789
      H   19    0.10433      0.00000     0.39450    0.00118     0.39567
      H   20    0.11131      0.00000     0.38756    0.00114     0.38869
      H   21    0.09079      0.00000     0.40700    0.00222     0.40921
      H   22    0.08953      0.00000     0.40831    0.00215     0.41047
      H   23    0.10324      0.00000     0.39454    0.00222     0.39676
      H   24    0.09607      0.00000     0.40093    0.00300     0.40393
      H   25    0.08271      0.00000     0.41572    0.00157     0.41729
      H   26    0.08737      0.00000     0.41125    0.00138     0.41263
      H   27    0.20036      0.00000     0.29574    0.00390     0.29964
      H   28    0.23700      0.00000     0.25584    0.00717     0.26300
      H   29    0.11002      0.00000     0.38863    0.00135     0.38998
      H   30    0.19034      0.00000     0.30656    0.00310     0.30966
      H   31    0.10677      0.00000     0.39187    0.00137     0.39323
      H   32    0.10168      0.00000     0.39743    0.00088     0.39832
      H   33    0.10641      0.00000     0.39217    0.00142     0.39359
      H   34    0.08586      0.00000     0.41241    0.00173     0.41414
      H   35    0.10493      0.00000     0.39301    0.00206     0.39507
      H   36    0.09923      0.00000     0.39941    0.00135     0.40077
      H   37    0.09371      0.00000     0.40480    0.00148     0.40629
      H   38    0.10111      0.00000     0.39781    0.00109     0.39889
 =======================================================================
   * Total *    0.00000     17.99326    49.77475    0.23198    68.00000

 Normal termination of Gaussian 16 at Sat Feb 27 20:02:11 2021.
