 Gaussian 16, Revision A.03,

 -----------------------------------------------------------
 # opt freq B3LYP/6-31G(d) empiricaldispersion=gd3bj scf=xqc
 -----------------------------------------------------------

 -------------------------------
 CID_115652869_JID_4602_neutraal
 -------------------------------
 Symbolic Z-matrix:
 Charge =  0 Multiplicity = 1

 SCF Done:  E(RB3LYP) =  -582.477526138     A.U. after   13 cycles
 SCF Done:  E(RB3LYP) =  -582.482322898     A.U. after   11 cycles
 SCF Done:  E(RB3LYP) =  -582.483165856     A.U. after   10 cycles
 SCF Done:  E(RB3LYP) =  -582.483797505     A.U. after   10 cycles
 SCF Done:  E(RB3LYP) =  -582.484059397     A.U. after   10 cycles
 SCF Done:  E(RB3LYP) =  -582.484254603     A.U. after   10 cycles
 SCF Done:  E(RB3LYP) =  -582.484359143     A.U. after   10 cycles
 SCF Done:  E(RB3LYP) =  -582.484575080     A.U. after   10 cycles
 SCF Done:  E(RB3LYP) =  -582.484716535     A.U. after   10 cycles
 SCF Done:  E(RB3LYP) =  -582.484644398     A.U. after    9 cycles
 SCF Done:  E(RB3LYP) =  -582.485195510     A.U. after    9 cycles
 SCF Done:  E(RB3LYP) =  -582.485196271     A.U. after    8 cycles
 SCF Done:  E(RB3LYP) =  -582.485196129     A.U. after    8 cycles
 SCF Done:  E(RB3LYP) =  -582.485196293     A.U. after    7 cycles
 SCF Done:  E(RB3LYP) =  -582.485196383     A.U. after    8 cycles
 SCF Done:  E(RB3LYP) =  -582.485196395     A.U. after    6 cycles
 Optimization completed.
    -- Stationary point found.
 Normal termination of Gaussian 16 at Thu Dec 10 10:29:00 2020.

 --------------------------------------------------------------------
 #N Geom=AllCheck Guess=TCheck SCRF=Check GenChk RB3LYP/6-31G(d) Freq
 --------------------------------------------------------------------

 Structure from the checkpoint file:  "JID_4602.chk"
 -------------------------------
 CID_115652869_JID_4602_neutraal
 -------------------------------
 Charge =  0 Multiplicity = 1

 SCF Done:  E(RB3LYP) =  -582.485196395     A.U. after    1 cycles

  Exact polarizability: 153.099   1.829 140.186   0.377   0.385 122.133
 Approx polarizability: 188.422   0.343 188.327   2.006  -0.918 186.791

                      1                      2                      3
                      A                      A                      A
 Frequencies --     17.4230                26.3538                42.6299
 Red. masses --      2.9123                 3.4981                 2.6077
 Frc consts  --      0.0005                 0.0014                 0.0028
 IR Inten    --      0.0128                 0.0309                 0.3582

                      4                      5                      6
                      A                      A                      A
 Frequencies --     69.3083               102.1875               119.2495
 Red. masses --      2.5596                 2.5098                 2.4685
 Frc consts  --      0.0072                 0.0154                 0.0207
 IR Inten    --      0.2094                 0.0246                 0.2049

                      7                      8                      9
                      A                      A                      A
 Frequencies --    169.2265               177.8807               204.2123
 Red. masses --      2.4194                 2.1920                 2.2767
 Frc consts  --      0.0408                 0.0409                 0.0559
 IR Inten    --      0.4224                 0.5907                 0.4201

                     10                     11                     12
                      A                      A                      A
 Frequencies --    236.7212               247.6136               260.7637
 Red. masses --      1.1906                 1.4627                 1.1101
 Frc consts  --      0.0393                 0.0528                 0.0445
 IR Inten    --      0.7303                 1.1527                 0.9689

                     13                     14                     15
                      A                      A                      A
 Frequencies --    264.8139               270.8716               298.8982
 Red. masses --      1.1484                 2.0067                 1.8562
 Frc consts  --      0.0474                 0.0867                 0.0977
 IR Inten    --      0.3990                 0.3020                 4.5958

                     16                     17                     18
                      A                      A                      A
 Frequencies --    333.6952               345.5606               371.6244
 Red. masses --      2.5143                 2.6851                 2.4323
 Frc consts  --      0.1650                 0.1889                 0.1979
 IR Inten    --      0.7547                 0.7342                 1.3694

                     19                     20                     21
                      A                      A                      A
 Frequencies --    389.9681               395.7841               457.5727
 Red. masses --      2.1094                 2.1734                 3.0667
 Frc consts  --      0.1890                 0.2006                 0.3783
 IR Inten    --      0.4941                 3.4930                 7.3426

                     22                     23                     24
                      A                      A                      A
 Frequencies --    488.9480               496.6845               563.4524
 Red. masses --      2.2411                 1.9871                 3.9024
 Frc consts  --      0.3157                 0.2888                 0.7299
 IR Inten    --      2.2527                 2.7789                 2.2889

                     25                     26                     27
                      A                      A                      A
 Frequencies --    638.9068               688.1706               743.0580
 Red. masses --      2.4304                 2.4850                 1.4612
 Frc consts  --      0.5845                 0.6934                 0.4753
 IR Inten    --      0.7577                 0.6455                71.3067

                     28                     29                     30
                      A                      A                      A
 Frequencies --    770.5262               791.9281               822.8886
 Red. masses --      2.3345                 2.1976                 2.0578
 Frc consts  --      0.8166                 0.8120                 0.8210
 IR Inten    --      8.2421                 3.5873                 3.0565

                     31                     32                     33
                      A                      A                      A
 Frequencies --    838.7181               872.6001               896.4185
 Red. masses --      1.6751                 2.1681                 2.1321
 Frc consts  --      0.6943                 0.9727                 1.0094
 IR Inten    --      0.5483                 3.4305                 9.4459

                     34                     35                     36
                      A                      A                      A
 Frequencies --    913.6758               939.0427               942.3911
 Red. masses --      1.4672                 1.9075                 1.8699
 Frc consts  --      0.7216                 0.9910                 0.9784
 IR Inten    --      1.6861                 1.4851                 7.0319

                     37                     38                     39
                      A                      A                      A
 Frequencies --    987.9903              1006.7957              1011.7272
 Red. masses --      1.6773                 1.9363                 1.9906
 Frc consts  --      0.9646                 1.1564                 1.2005
 IR Inten    --      3.6980                 1.3536                13.1430

                     40                     41                     42
                      A                      A                      A
 Frequencies --   1020.0472              1041.2635              1049.2326
 Red. masses --      1.9290                 1.2569                 1.6702
 Frc consts  --      1.1826                 0.8029                 1.0834
 IR Inten    --      2.6741                 1.6711                10.8315

                     43                     44                     45
                      A                      A                      A
 Frequencies --   1061.0785              1081.3180              1091.9940
 Red. masses --      2.3465                 1.7217                 1.6972
 Frc consts  --      1.5565                 1.1861                 1.1924
 IR Inten    --      4.3305                19.1215                26.0531

                     46                     47                     48
                      A                      A                      A
 Frequencies --   1111.8975              1131.7862              1138.6090
 Red. masses --      2.3425                 1.4769                 1.8605
 Frc consts  --      1.7063                 1.1146                 1.4211
 IR Inten    --      6.2012                 7.9542                21.8352

                     49                     50                     51
                      A                      A                      A
 Frequencies --   1147.8368              1174.2041              1184.0026
 Red. masses --      1.7779                 2.0544                 2.2947
 Frc consts  --      1.3801                 1.6689                 1.8953
 IR Inten    --      2.0193                 2.0191                31.2736

                     52                     53                     54
                      A                      A                      A
 Frequencies --   1198.5238              1220.2972              1235.2350
 Red. masses --      1.4733                 1.6637                 1.5571
 Frc consts  --      1.2469                 1.4597                 1.3998
 IR Inten    --     10.7609                17.9212                 8.0301

                     55                     56                     57
                      A                      A                      A
 Frequencies --   1246.5343              1257.8216              1283.2873
 Red. masses --      2.4335                 1.4416                 1.2850
 Frc consts  --      2.2279                 1.3438                 1.2468
 IR Inten    --      9.8942                 3.8069                 8.7583

                     58                     59                     60
                      A                      A                      A
 Frequencies --   1301.6120              1302.6301              1325.7999
 Red. masses --      1.2562                 1.3180                 2.1221
 Frc consts  --      1.2540                 1.3176                 2.1977
 IR Inten    --      1.2524                 3.4138                18.6374

                     61                     62                     63
                      A                      A                      A
 Frequencies --   1328.0716              1341.4733              1357.4099
 Red. masses --      1.3033                 1.3584                 1.4400
 Frc consts  --      1.3544                 1.4402                 1.5633
 IR Inten    --      1.0763                 1.2720                 7.9871

                     64                     65                     66
                      A                      A                      A
 Frequencies --   1358.8784              1369.5186              1381.6435
 Red. masses --      1.2827                 1.3708                 1.4241
 Frc consts  --      1.3956                 1.5148                 1.6018
 IR Inten    --      2.8328                 4.3865                 1.5963

                     67                     68                     69
                      A                      A                      A
 Frequencies --   1386.1264              1417.0116              1425.3860
 Red. masses --      1.4231                 1.3126                 1.4100
 Frc consts  --      1.6109                 1.5528                 1.6879
 IR Inten    --      7.2836                 4.9896                19.6934

                     70                     71                     72
                      A                      A                      A
 Frequencies --   1435.7594              1440.7643              1444.1434
 Red. masses --      1.3452                 1.2878                 1.2401
 Frc consts  --      1.6338                 1.5750                 1.5238
 IR Inten    --     12.4741                 7.7039                 2.2211

                     73                     74                     75
                      A                      A                      A
 Frequencies --   1471.9559              1501.0888              1507.2957
 Red. masses --      1.1521                 1.1369                 1.0960
 Frc consts  --      1.4707                 1.5093                 1.4671
 IR Inten    --      0.5580                 5.1998                 6.6125

                     76                     77                     78
                      A                      A                      A
 Frequencies --   1510.2288              1516.8695              1518.7571
 Red. masses --      1.1373                 1.0910                 1.0769
 Frc consts  --      1.5284                 1.4790                 1.4636
 IR Inten    --      1.7446                 0.9316                 0.4018

                     79                     80                     81
                      A                      A                      A
 Frequencies --   1522.1136              1528.4752              1528.9433
 Red. masses --      1.0697                 1.0525                 1.0683
 Frc consts  --      1.4602                 1.4487                 1.4713
 IR Inten    --     13.7151                 2.9961                 3.4084

                     82                     83                     84
                      A                      A                      A
 Frequencies --   1530.2680              1532.5140              1533.9916
 Red. masses --      1.0579                 1.0536                 1.0666
 Frc consts  --      1.4596                 1.4580                 1.4787
 IR Inten    --      1.1601                 5.0110                 1.6881

                     85                     86                     87
                      A                      A                      A
 Frequencies --   1537.2480              1541.2937              1545.1331
 Red. masses --      1.1040                 1.0816                 1.0862
 Frc consts  --      1.5371                 1.5139                 1.5279
 IR Inten    --      1.4309                11.0132                11.7220

                     88                     89                     90
                      A                      A                      A
 Frequencies --   1552.1312              2927.4438              2955.6716
 Red. masses --      1.0651                 1.0626                 1.0746
 Frc consts  --      1.5119                 5.3655                 5.5309
 IR Inten    --      6.8797                89.1366                55.4387

                     91                     92                     93
                      A                      A                      A
 Frequencies --   3001.8132              3013.6863              3027.9300
 Red. masses --      1.0501                 1.0832                 1.0850
 Frc consts  --      5.5748                 5.7966                 5.8610
 IR Inten    --     78.8049                26.6338                20.8011

                     94                     95                     96
                      A                      A                      A
 Frequencies --   3035.4459              3040.7207              3043.6222
 Red. masses --      1.0394                 1.0671                 1.0367
 Frc consts  --      5.6428                 5.8132                 5.6581
 IR Inten    --     23.9683                15.3435                28.5860

                     97                     98                     99
                      A                      A                      A
 Frequencies --   3051.7917              3056.3424              3058.9890
 Red. masses --      1.0601                 1.0773                 1.0621
 Frc consts  --      5.8173                 5.9294                 5.8554
 IR Inten    --     36.8301                54.5307                12.3296

                    100                    101                    102
                      A                      A                      A
 Frequencies --   3062.4655              3063.9952              3065.7599
 Red. masses --      1.0696                 1.0737                 1.0819
 Frc consts  --      5.9103                 5.9390                 5.9913
 IR Inten    --     36.8753                73.7711                37.3494

                    103                    104                    105
                      A                      A                      A
 Frequencies --   3087.7517              3088.2940              3095.4800
 Red. masses --      1.1017                 1.0989                 1.0868
 Frc consts  --      6.1889                 6.1749                 6.1354
 IR Inten    --      0.8432                24.3902                11.1225

                    106                    107                    108
                      A                      A                      A
 Frequencies --   3097.8377              3100.9311              3107.6554
 Red. masses --      1.1027                 1.1020                 1.1021
 Frc consts  --      6.2349                 6.2431                 6.2711
 IR Inten    --     74.9211                31.2323                43.6805

                    109                    110                    111
                      A                      A                      A
 Frequencies --   3108.7274              3111.3073              3112.0304
 Red. masses --      1.1033                 1.1013                 1.1029
 Frc consts  --      6.2822                 6.2813                 6.2935
 IR Inten    --     40.4925                69.1978                72.7516

                    112                    113                    114
                      A                      A                      A
 Frequencies --   3114.6566              3148.8237              3511.6195
 Red. masses --      1.1013                 1.0945                 1.0739
 Frc consts  --      6.2949                 6.3937                 7.8023
 IR Inten    --     39.6487                30.2092                 0.9006

 - Thermochemistry -
 -------------------
 Temperature   298.150 Kelvin.  Pressure   1.00000 Atm.
 Atom     1 has atomic number  6 and mass  12.00000

 Molecular mass:   198.20960 amu.
 Principal axes and moments of inertia in atomic units:
                           1         2         3
     Eigenvalues --  1807.116344845.101225793.89479
           X            0.99993   0.01113  -0.00372
           Y           -0.01112   0.99994   0.00142
           Z            0.00373  -0.00138   0.99999
 This molecule is an asymmetric top.
 Rotational symmetry number  1.
 Warning -- assumption of classical behavior for rotation
           may cause significant error
 Rotational temperatures (Kelvin)      0.04793     0.01788     0.01495
 Rotational constants (GHZ):           0.99869     0.37249     0.31149
 Zero-point vibrational energy     986779.1 (Joules/Mol)
                                  235.84586 (Kcal/Mol)
 Warning -- explicit consideration of  24 degrees of freedom as
           vibrations may cause significant error
 Vibrational temperatures:     25.07    37.92    61.33    99.72   147.03
          (Kelvin)            171.57   243.48   255.93   293.82   340.59
                              356.26   375.18   381.01   389.72   430.05
                              480.11   497.18   534.68   561.08   569.45
                              658.35   703.49   714.62   810.68   919.24
                              990.12  1069.09  1108.62  1139.41  1183.95
                             1206.73  1255.48  1289.75  1314.58  1351.07
                             1355.89  1421.50  1448.55  1455.65  1467.62
                             1498.15  1509.61  1526.66  1555.78  1571.14
                             1599.77  1628.39  1638.20  1651.48  1689.42
                             1703.52  1724.41  1755.74  1777.23  1793.48
                             1809.72  1846.36  1872.73  1874.19  1907.53
                             1910.80  1930.08  1953.01  1955.12  1970.43
                             1987.88  1994.33  2038.76  2050.81  2065.74
                             2072.94  2077.80  2117.82  2159.73  2168.66
                             2172.88  2182.44  2185.15  2189.98  2199.13
                             2199.81  2201.71  2204.95  2207.07  2211.76
                             2217.58  2223.10  2233.17  4211.94  4252.55
                             4318.94  4336.02  4356.52  4367.33  4374.92
                             4379.09  4390.85  4397.39  4401.20  4406.20
                             4408.41  4410.94  4442.59  4443.37  4453.71
                             4457.10  4461.55  4471.22  4472.77  4476.48
                             4477.52  4481.30  4530.46  5052.44

 Zero-point correction=                           0.375844 (Hartree/Particle)
 Thermal correction to Energy=                    0.392345
 Thermal correction to Enthalpy=                  0.393289
 Thermal correction to Gibbs Free Energy=         0.330602
 Sum of electronic and zero-point Energies=           -582.109352
 Sum of electronic and thermal Energies=              -582.092852
 Sum of electronic and thermal Enthalpies=            -582.091908
 Sum of electronic and thermal Free Energies=         -582.154594

                     E (Thermal)             CV                S
                      KCal/Mol        Cal/Mol-Kelvin    Cal/Mol-Kelvin
 Total                  246.200             62.436            131.935
 Electronic               0.000              0.000              0.000
 Translational            0.889              2.981             41.757
 Rotational               0.889              2.981             32.295
 Vibrational            244.423             56.474             57.883
 Vibration     1          0.593              1.986              6.908
 Vibration     2          0.593              1.985              6.087
 Vibration     3          0.595              1.980              5.133
 Vibration     4          0.598              1.969              4.173
 Vibration     5          0.604              1.947              3.412
 Vibration     6          0.609              1.933              3.112
 Vibration     7          0.625              1.880              2.444
 Vibration     8          0.628              1.870              2.351
 Vibration     9          0.640              1.834              2.095
 Vibration    10          0.656              1.785              1.827
 Vibration    11          0.661              1.767              1.748
 Vibration    12          0.669              1.745              1.657
 Vibration    13          0.671              1.737              1.630
 Vibration    14          0.675              1.727              1.591
 Vibration    15          0.692              1.676              1.423
 Vibration    16          0.715              1.608              1.242
 Vibration    17          0.724              1.584              1.186
 Vibration    18          0.743              1.530              1.073
 Vibration    19          0.758              1.492              1.000
 Vibration    20          0.763              1.479              0.978
 Vibration    21          0.816              1.344              0.773
 Vibration    22          0.845              1.275              0.686
 Vibration    23          0.852              1.257              0.666
 Vibration    24          0.919              1.110              0.517

 Optimization completed.
    -- Stationary point found.
 Normal termination of Gaussian 16 at Thu Dec 10 10:42:01 2020.

 ----------------------------------------------------------------------
 # B3LYP/6-311++G(d,p) empiricaldispersion=gd3bj scf=xqc pop=npa geom=c
 heck
 ----------------------------------------------------------------------

 ---------------------------------------
 CID_115652869_JID_4602_Energie_neutraal
 ---------------------------------------
 Structure from the checkpoint file:  "JID_4602.chk"
 Charge =  0 Multiplicity = 1

 SCF Done:  E(RB3LYP) =  -582.649127579     A.U. after   15 cycles
 Normal termination of Gaussian 16 at Thu Dec 10 10:48:34 2020.

 ----------------------------------------------------------------------
 # B3LYP/6-311++G(d,p) empiricaldispersion=gd3bj scf=xqc pop=npa geom=c
 heck
 ----------------------------------------------------------------------

 -------------------------------------
 CID_115652869_JID_4602_Energie_kation
 -------------------------------------
 Structure from the checkpoint file:  "JID_4602.chk"
 Charge =  1 Multiplicity = 2

 SCF Done:  E(UB3LYP) =  -582.384122889     A.U. after   20 cycles
 Normal termination of Gaussian 16 at Thu Dec 10 11:01:41 2020.
 Gaussian 16:  ES64L-G16RevA.03 25-Dec-2016

 ----------------------------------------------------------------------
 # B3LYP/6-311++G(d,p) empiricaldispersion=gd3bj scf=xqc pop=npa geom=c
 heck
 ----------------------------------------------------------------------

 ------------------------------------
 CID_115652869_JID_4602_Energie_anion
 ------------------------------------
 Structure from the checkpoint file:  "JID_4602.chk"
 Charge = -1 Multiplicity = 2

                         Standard orientation:
 ---------------------------------------------------------------------
 Center     Atomic      Atomic             Coordinates (Angstroms)
 Number     Number       Type             X           Y           Z
 ---------------------------------------------------------------------
      1          6           0        3.020955    2.424541    0.498447
      2          6           0        3.048681    1.050746   -0.179564
      3          6           0        2.190391   -0.004912    0.535575
      4          6           0        0.696855    0.390494    0.612180
      5          7           0        0.142837    0.749028   -0.691025
      6          6           0       -1.315859    0.785986   -0.791677
      7          6           0       -2.120816    1.530362    0.296885
      8          6           0       -3.552729    1.049682    0.038517
      9          6           0       -3.405615   -0.466591   -0.271557
     10          6           0       -1.959670   -0.621427   -0.825574
     11          6           0       -3.632335   -1.327255    0.975959
     12          7           0        2.470043   -1.347510    0.005843
     13          6           0        2.031608   -2.414558    0.885836
     14          6           0        2.067783   -1.611112   -1.370944
     15          1           0        2.021036    2.874548    0.479651
     16          1           0        3.702136    3.120839   -0.002592
     17          1           0        3.328327    2.355594    1.548945
     18          1           0        2.725821    1.154372   -1.221980
     19          1           0        4.075266    0.669133   -0.209960
     20          1           0        2.540333   -0.037633    1.578048
     21          1           0        0.133720   -0.463696    1.000985
     22          1           0        0.583307    1.190331    1.365448
     23          1           0        0.517194    1.650216   -0.975509
     24          1           0       -1.534073    1.277618   -1.749365
     25          1           0       -2.005673    2.619058    0.241510
     26          1           0       -1.788536    1.214438    1.293606
     27          1           0       -3.961711    1.573557   -0.835031
     28          1           0       -4.233949    1.238588    0.875741
     29          1           0       -4.139703   -0.764580   -1.029109
     30          1           0       -1.384672   -1.308662   -0.194670
     31          1           0       -1.933918   -1.038331   -1.836912
     32          1           0       -4.656348   -1.222186    1.353469
     33          1           0       -3.457356   -2.388358    0.762376
     34          1           0       -2.946883   -1.036052    1.782306
     35          1           0        0.931738   -2.543171    0.934027
     36          1           0        2.452660   -3.365885    0.539672
     37          1           0        2.394919   -2.233098    1.903706
     38          1           0        0.978661   -1.706573   -1.505934
     39          1           0        2.410592   -0.810639   -2.029107
     40          1           0        2.541454   -2.545785   -1.697539
 ---------------------------------------------------------------------

 SCF Done:  E(UB3LYP) =  -582.634524333     A.U. after   27 cycles

 The electronic state is 2-A.
 Alpha  occ. eigenvalues --  -14.20293 -14.19281 -10.09760 -10.09293 -10.09034
 Alpha  occ. eigenvalues --  -10.08671 -10.08115 -10.07218 -10.06562 -10.06276
 Alpha  occ. eigenvalues --  -10.06254 -10.06090 -10.05817 -10.05762  -0.82721
 Alpha  occ. eigenvalues --   -0.80170  -0.72971  -0.68602  -0.63956  -0.61864
 Alpha  occ. eigenvalues --   -0.60577  -0.59857  -0.56050  -0.54200  -0.51585
 Alpha  occ. eigenvalues --   -0.47056  -0.45320  -0.44314  -0.40753  -0.39085
 Alpha  occ. eigenvalues --   -0.38689  -0.36222  -0.35946  -0.35213  -0.34131
 Alpha  occ. eigenvalues --   -0.33086  -0.32019  -0.30833  -0.29778  -0.29508
 Alpha  occ. eigenvalues --   -0.29255  -0.28713  -0.28388  -0.27258  -0.26802
 Alpha  occ. eigenvalues --   -0.25995  -0.24773  -0.24212  -0.23758  -0.22933
 Alpha  occ. eigenvalues --   -0.22828  -0.22098  -0.21663  -0.20970  -0.13041
 Alpha  occ. eigenvalues --   -0.10496   0.04315
 Alpha virt. eigenvalues --    0.06230   0.06515   0.07239   0.07992   0.08492
 Alpha virt. eigenvalues --    0.08728   0.09290   0.09449   0.10260   0.10626
 Alpha virt. eigenvalues --    0.10869   0.11178   0.11514   0.12252   0.12699

  Beta  occ. eigenvalues --  -14.20291 -14.19268 -10.09752 -10.09282 -10.09017
  Beta  occ. eigenvalues --  -10.08660 -10.08106 -10.07209 -10.06552 -10.06239
  Beta  occ. eigenvalues --  -10.06237 -10.06067 -10.05805 -10.05742  -0.82707
  Beta  occ. eigenvalues --   -0.80148  -0.72944  -0.68576  -0.63922  -0.61830
  Beta  occ. eigenvalues --   -0.60552  -0.59819  -0.56011  -0.54148  -0.51528
  Beta  occ. eigenvalues --   -0.47014  -0.45274  -0.44271  -0.40717  -0.39057
  Beta  occ. eigenvalues --   -0.38640  -0.36193  -0.35924  -0.35189  -0.34107
  Beta  occ. eigenvalues --   -0.33059  -0.31992  -0.30799  -0.29750  -0.29480
  Beta  occ. eigenvalues --   -0.29233  -0.28689  -0.28358  -0.27223  -0.26784
  Beta  occ. eigenvalues --   -0.25961  -0.24742  -0.24181  -0.23729  -0.22911
  Beta  occ. eigenvalues --   -0.22802  -0.22067  -0.21625  -0.20938  -0.13025
  Beta  occ. eigenvalues --   -0.10481
  Beta virt. eigenvalues --    0.06249   0.06959   0.07149   0.07595   0.08547
  Beta virt. eigenvalues --    0.08892   0.09061   0.09556   0.09739   0.10628
  Beta virt. eigenvalues --    0.10937   0.11224   0.11417   0.11694   0.12578

 Mulliken charges and spin densities:
               1          2
     1  C    0.939021  -1.587323
     2  C   -0.902649   0.810946
     3  C   -0.425813  -0.268763
     4  C    0.010827  -0.400034
     5  N   -0.015977   0.178140
     6  C   -0.607429   0.092032
     7  C    0.619660  -0.738071
     8  C    0.202832  -0.790603
     9  C   -0.831009   1.287332
    10  C    0.496040  -0.799570
    11  C    0.605373  -1.374297
    12  N    0.158904   0.037493
    13  C    0.245975  -0.476295
    14  C   -0.098916  -0.229587
    15  H   -0.193720   0.345557
    16  H   -0.375143   0.521307
    17  H   -0.199117   0.331491
    18  H    0.136307  -0.015079
    19  H    0.041478   0.135004
    20  H   -0.048693   0.229431
    21  H    0.288466  -0.169651
    22  H    0.007231   0.130998
    23  H    0.141783   0.123926
    24  H   -0.285659   0.451807
    25  H   -0.187378   0.344353
    26  H    0.029801   0.106004
    27  H   -0.116794   0.254522
    28  H   -0.056943   0.219772
    29  H   -0.256334   0.464631
    30  H    0.045994   0.046398
    31  H    0.040837   0.123934
    32  H   -0.193201   0.319837
    33  H   -0.063285   0.196012
    34  H   -0.091120   0.243392
    35  H   -0.058887   0.175641
    36  H   -0.003144   0.133062
    37  H   -0.118808   0.245438
    38  H    0.095935   0.051630
    39  H    0.011304   0.134769
    40  H    0.012250   0.114414
 Sum of Mulliken charges =  -1.00000   1.00000

 Dipole moment (field-independent basis, Debye):
    X=              1.1988    Y=             -2.4973    Z=             -0.3393  Tot=              2.7909
 Quadrupole moment (field-independent basis, Debye-Ang):
   XX=           -171.5561   YY=           -146.1039   ZZ=           -127.8640
   XY=             -6.6056   XZ=             -3.9437   YZ=              1.1071

 Summary of Natural Population Analysis:

                                       Natural Population
                Natural  -----------------------------------------------
    Atom  No    Charge         Core      Valence    Rydberg      Total
 -----------------------------------------------------------------------
      C    1   -0.28629      0.99967     2.28147    0.00516     3.28629
      C    2   -0.19809      0.99961     2.18843    0.01005     3.19809
      C    3   -0.00011      0.99956     1.98538    0.01516     3.00011
      C    4   -0.10232      0.99958     2.09123    0.01151     3.10232
      N    5   -0.34490      0.99972     2.83237    0.01281     3.84490
      C    6   -0.00461      0.99958     1.99184    0.01319     3.00461
      C    7   -0.20143      0.99961     2.19293    0.00889     3.20143
      C    8   -0.18821      0.99962     2.18016    0.00843     3.18821
      C    9   -0.11431      0.99962     2.10417    0.01052     3.11431
      C   10   -0.19341      0.99960     2.18343    0.01037     3.19341
      C   11   -0.28043      0.99965     2.27580    0.00498     3.28043
      N   12   -0.28109      0.99972     2.76833    0.01304     3.78109
      C   13   -0.17375      0.99964     2.16708    0.00703     3.17375
      C   14   -0.17472      0.99964     2.16803    0.00705     3.17472
      H   15    0.09666      0.00000     0.40186    0.00147     0.40334
      H   16    0.09999      0.00000     0.39899    0.00102     0.40001
      H   17    0.09627      0.00000     0.40259    0.00114     0.40373
      H   18    0.09617      0.00000     0.40240    0.00143     0.40383
      H   19    0.10106      0.00000     0.39736    0.00159     0.39894
      H   20    0.09336      0.00000     0.40514    0.00150     0.40664
      H   21    0.09594      0.00000     0.40215    0.00191     0.40406
      H   22    0.08538      0.00000     0.41306    0.00156     0.41462
      H   23    0.17502      0.00000     0.32181    0.00317     0.32498
      H   24    0.09271      0.00000     0.40582    0.00147     0.40729
      H   25    0.10158      0.00000     0.39706    0.00136     0.39842
      H   26    0.09458      0.00000     0.40378    0.00164     0.40542
      H   27    0.09694      0.00000     0.40153    0.00153     0.40306
      H   28    0.09762      0.00000     0.40138    0.00100     0.40238
      H   29    0.09565      0.00000     0.40313    0.00122     0.40435
      H   30    0.09591      0.00000     0.40205    0.00203     0.40409
      H   31    0.10221      0.00000     0.39657    0.00122     0.39779
      H   32    0.09664      0.00000     0.40222    0.00113     0.40336
      H   33    0.09801      0.00000     0.40083    0.00116     0.40199
      H   34    0.09534      0.00000     0.40336    0.00130     0.40466
      H   35    0.07887      0.00000     0.41936    0.00176     0.42113
      H   36    0.09226      0.00000     0.40666    0.00108     0.40774
      H   37    0.09393      0.00000     0.40493    0.00114     0.40607
      H   38    0.08833      0.00000     0.41017    0.00150     0.41167
      H   39    0.09679      0.00000     0.40210    0.00112     0.40321
      H   40    0.08644      0.00000     0.41256    0.00100     0.41356
 =======================================================================
   * Total *   -0.00000     13.99483    41.82953    0.17564    56.00000

 Normal termination of Gaussian 16 at Thu Dec 10 11:19:17 2020.
