 Gaussian 16, Revision A.03,

 -----------------------------------------------------------
 # opt freq B3LYP/6-31G(d) empiricaldispersion=gd3bj scf=xqc
 -----------------------------------------------------------

 ------------------------------
 CID_82282269_JID_3012_neutraal
 ------------------------------
 Symbolic Z-matrix:
 Charge =  0 Multiplicity = 1

 SCF Done:  E(RB3LYP) =  -970.155554926     A.U. after   15 cycles
 SCF Done:  E(RB3LYP) =  -970.161303151     A.U. after   12 cycles
 SCF Done:  E(RB3LYP) =  -970.164126400     A.U. after   13 cycles
 SCF Done:  E(RB3LYP) =  -970.166333840     A.U. after   12 cycles
 SCF Done:  E(RB3LYP) =  -970.167389240     A.U. after   12 cycles
 SCF Done:  E(RB3LYP) =  -970.167623800     A.U. after   11 cycles
 SCF Done:  E(RB3LYP) =  -970.167648126     A.U. after   10 cycles
 SCF Done:  E(RB3LYP) =  -970.167658329     A.U. after    9 cycles
 SCF Done:  E(RB3LYP) =  -970.167664428     A.U. after    9 cycles
 SCF Done:  E(RB3LYP) =  -970.167667214     A.U. after    9 cycles
 SCF Done:  E(RB3LYP) =  -970.167669477     A.U. after    9 cycles
 SCF Done:  E(RB3LYP) =  -970.167669911     A.U. after    8 cycles
 SCF Done:  E(RB3LYP) =  -970.167669995     A.U. after    7 cycles
 Optimization completed.
    -- Stationary point found.
 Normal termination of Gaussian 16 at Wed Dec  9 22:22:34 2020.

 --------------------------------------------------------------------
 #N Geom=AllCheck Guess=TCheck SCRF=Check GenChk RB3LYP/6-31G(d) Freq
 --------------------------------------------------------------------

 Structure from the checkpoint file:  "JID_3012.chk"
 ------------------------------
 CID_82282269_JID_3012_neutraal
 ------------------------------
 Charge =  0 Multiplicity = 1

 SCF Done:  E(RB3LYP) =  -970.167669995     A.U. after    1 cycles

  Exact polarizability: 146.742   1.629 120.996  10.368   0.283  78.885
 Approx polarizability: 207.716   8.474 201.943  24.242   2.172 127.715

                      1                      2                      3
                      A                      A                      A
 Frequencies --     33.6706                73.9366                97.8539
 Red. masses --      5.1403                 4.6819                 4.6483
 Frc consts  --      0.0034                 0.0151                 0.0262
 IR Inten    --      3.0408                 0.5751                 3.5054

                      4                      5                      6
                      A                      A                      A
 Frequencies --    129.7416               154.5843               188.9800
 Red. masses --      1.0343                 3.7062                 3.0786
 Frc consts  --      0.0103                 0.0522                 0.0648
 IR Inten    --      0.0506                 7.7808                 2.5404

                      7                      8                      9
                      A                      A                      A
 Frequencies --    211.4493               219.9161               239.5152
 Red. masses --      1.2084                 3.3759                 2.9317
 Frc consts  --      0.0318                 0.0962                 0.0991
 IR Inten    --      0.4992                 3.3385                 0.6498

                     10                     11                     12
                      A                      A                      A
 Frequencies --    268.9067               307.5803               339.3876
 Red. masses --      4.4019                 3.3580                 3.7008
 Frc consts  --      0.1875                 0.1872                 0.2512
 IR Inten    --      0.5560                 3.0338                 5.6099

                     13                     14                     15
                      A                      A                      A
 Frequencies --    353.0477               384.1551               434.9980
 Red. masses --      2.6856                 1.4960                 5.5396
 Frc consts  --      0.1972                 0.1301                 0.6176
 IR Inten    --      2.4626                18.2187                 3.9178

                     16                     17                     18
                      A                      A                      A
 Frequencies --    472.4911               476.4724               494.2906
 Red. masses --      4.3168                 3.4000                 5.6318
 Frc consts  --      0.5678                 0.4548                 0.8107
 IR Inten    --     25.7783                 9.2344                38.6502

                     19                     20                     21
                      A                      A                      A
 Frequencies --    528.1860               567.2728               587.0511
 Red. masses --      6.2532                 5.1055                 4.6048
 Frc consts  --      1.0278                 0.9680                 0.9350
 IR Inten    --     46.0283                20.0980                 0.2853

                     22                     23                     24
                      A                      A                      A
 Frequencies --    675.0459               735.6081               750.2227
 Red. masses --      5.6416                 2.7762                 3.1024
 Frc consts  --      1.5147                 0.8851                 1.0288
 IR Inten    --      4.4326                 7.1447                51.1728

                     25                     26                     27
                      A                      A                      A
 Frequencies --    781.9870               804.5261               854.4834
 Red. masses --      2.1725                 3.1472                 2.1887
 Frc consts  --      0.7827                 1.2002                 0.9416
 IR Inten    --     57.6377                42.8029               129.6699

                     28                     29                     30
                      A                      A                      A
 Frequencies --    884.8065               951.3182               980.5377
 Red. masses --      1.3535                 1.3546                 4.2866
 Frc consts  --      0.6243                 0.7223                 2.4283
 IR Inten    --     13.7642                 1.3708                15.0152

                     31                     32                     33
                      A                      A                      A
 Frequencies --    987.7621               999.3838              1003.6550
 Red. masses --      1.2723                 1.4329                 1.3635
 Frc consts  --      0.7314                 0.8432                 0.8092
 IR Inten    --      0.2904                35.0458                21.4067

                     34                     35                     36
                      A                      A                      A
 Frequencies --   1022.5928              1066.4036              1079.1665
 Red. masses --      1.6121                 1.5410                 2.0803
 Frc consts  --      0.9932                 1.0325                 1.4274
 IR Inten    --      0.2020                 5.7993                 2.2328

                     37                     38                     39
                      A                      A                      A
 Frequencies --   1134.5638              1144.6785              1192.4031
 Red. masses --      8.3613                 1.8089                 1.7078
 Frc consts  --      6.3414                 1.3965                 1.4307
 IR Inten    --    131.1721                10.0871                22.0904

                     40                     41                     42
                      A                      A                      A
 Frequencies --   1196.0252              1227.5941              1264.6120
 Red. masses --      1.4242                 2.6945                 3.5814
 Frc consts  --      1.2003                 2.3925                 3.3746
 IR Inten    --     20.0365                17.5784                20.9666

                     43                     44                     45
                      A                      A                      A
 Frequencies --   1314.8459              1328.9294              1335.3125
 Red. masses --      1.4880                 1.8115                 2.5974
 Frc consts  --      1.5157                 1.8849                 2.7287
 IR Inten    --      0.7455                64.8079               120.8447

                     46                     47                     48
                      A                      A                      A
 Frequencies --   1347.2014              1370.5185              1447.2688
 Red. masses --      7.2886                 1.2175                 1.2105
 Frc consts  --      7.7940                 1.3474                 1.4939
 IR Inten    --      3.5601                13.4248                 2.8417

                     49                     50                     51
                      A                      A                      A
 Frequencies --   1481.5427              1489.4948              1493.6098
 Red. masses --      1.0523                 1.7570                 1.0626
 Frc consts  --      1.3608                 2.2967                 1.3967
 IR Inten    --      4.7984                 0.4241                 5.7748

                     52                     53                     54
                      A                      A                      A
 Frequencies --   1514.5835              1519.8964              1538.4761
 Red. masses --      1.1284                 1.3601                 1.9782
 Frc consts  --      1.5252                 1.8511                 2.7586
 IR Inten    --     11.3010                11.0866                34.6049

                     55                     56                     57
                      A                      A                      A
 Frequencies --   1635.1105              1663.6826              1708.9615
 Red. masses --      5.6001                 5.8228                 1.0845
 Frc consts  --      8.8215                 9.4957                 1.8662
 IR Inten    --      0.8014                 0.4870                12.0492

                     58                     59                     60
                      A                      A                      A
 Frequencies --   3065.1058              3092.8222              3124.6154
 Red. masses --      1.0370                 1.0288                 1.0996
 Frc consts  --      5.7402                 5.7980                 6.3252
 IR Inten    --     12.2456                 0.8562                10.4319

                     61                     62                     63
                      A                      A                      A
 Frequencies --   3141.4413              3182.4640              3193.2532
 Red. masses --      1.1025                 1.0866                 1.1065
 Frc consts  --      6.4106                 6.4843                 6.6479
 IR Inten    --     19.6660                 6.0767                 0.6685

                     64                     65                     66
                      A                      A                      A
 Frequencies --   3194.5833              3204.7415              3205.1002
 Red. masses --      1.0886                 1.0929                 1.1081
 Frc consts  --      6.5458                 6.6130                 6.7068
 IR Inten    --      7.2804                25.5609                 0.6923

                     67                     68                     69
                      A                      A                      A
 Frequencies --   3216.2494              3440.2057              3549.1666
 Red. masses --      1.0974                 1.0491                 1.0943
 Frc consts  --      6.6886                 7.3151                 8.1212
 IR Inten    --     17.6811                 3.3804                 1.8706

 - Thermochemistry -
 -------------------
 Temperature   298.150 Kelvin.  Pressure   1.00000 Atm.
 Atom     1 has atomic number  6 and mass  12.00000

 Molecular mass:   200.06195 amu.
 Principal axes and moments of inertia in atomic units:
                           1         2         3
     Eigenvalues --  1312.574643481.639603817.40353
           X            0.99975  -0.02080   0.00796
           Y            0.02075   0.99976   0.00662
           Z           -0.00810  -0.00645   0.99995
 This molecule is an asymmetric top.
 Rotational symmetry number  1.
 Warning -- assumption of classical behavior for rotation
           may cause significant error
 Rotational temperatures (Kelvin)      0.06599     0.02488     0.02269
 Rotational constants (GHZ):           1.37496     0.51836     0.47277
 Zero-point vibrational energy     526955.3 (Joules/Mol)
                                  125.94534 (Kcal/Mol)
 Warning -- explicit consideration of  21 degrees of freedom as
           vibrations may cause significant error
 Vibrational temperatures:     48.44   106.38   140.79   186.67   222.41
          (Kelvin)            271.90   304.23   316.41   344.61   386.90
                              442.54   488.30   507.96   552.71   625.87
                              679.81   685.54   711.17   759.94   816.18
                              844.64   971.24  1058.38  1079.40  1125.10
                             1157.53  1229.41  1273.04  1368.73  1410.77
                             1421.17  1437.89  1444.04  1471.28  1534.32
                             1552.68  1632.38  1646.94  1715.60  1720.81
                             1766.23  1819.49  1891.77  1912.03  1921.22
                             1938.32  1971.87  2082.30  2131.61  2143.05
                             2148.97  2179.15  2186.79  2213.52  2352.56
                             2393.67  2458.81  4410.00  4449.88  4495.62
                             4519.83  4578.86  4594.38  4596.29  4610.91
                             4611.42  4627.47  4949.69  5106.46

 Zero-point correction=                           0.200707 (Hartree/Particle)
 Thermal correction to Energy=                    0.213950
 Thermal correction to Enthalpy=                  0.214894
 Thermal correction to Gibbs Free Energy=         0.160982
 Sum of electronic and zero-point Energies=           -969.966963
 Sum of electronic and thermal Energies=              -969.953720
 Sum of electronic and thermal Enthalpies=            -969.952776
 Sum of electronic and thermal Free Energies=         -970.006688

                     E (Thermal)             CV                S
                      KCal/Mol        Cal/Mol-Kelvin    Cal/Mol-Kelvin
 Total                  134.255             49.926            113.467
 Electronic               0.000              0.000              0.000
 Translational            0.889              2.981             41.785
 Rotational               0.889              2.981             31.234
 Vibrational            132.478             43.964             40.448
 Vibration     1          0.594              1.983              5.600
 Vibration     2          0.599              1.966              4.046
 Vibration     3          0.603              1.951              3.497
 Vibration     4          0.612              1.924              2.950
 Vibration     5          0.620              1.898              2.615
 Vibration     6          0.633              1.855              2.238
 Vibration     7          0.643              1.823              2.031
 Vibration     8          0.647              1.811              1.960
 Vibration     9          0.657              1.780              1.806
 Vibration    10          0.673              1.730              1.603
 Vibration    11          0.697              1.659              1.375
 Vibration    12          0.719              1.597              1.215
 Vibration    13          0.729              1.569              1.153
 Vibration    14          0.753              1.504              1.023
 Vibration    15          0.796              1.394              0.842
 Vibration    16          0.829              1.311              0.731
 Vibration    17          0.833              1.302              0.720
 Vibration    18          0.850              1.263              0.673
 Vibration    19          0.883              1.188              0.591
 Vibration    20          0.923              1.102              0.510
 Vibration    21          0.944              1.059              0.472

                           ! Non-Optimized Parameters !
 Normal termination of Gaussian 16 at Wed Dec  9 22:29:01 2020.

 ----------------------------------------------------------------------
 # B3LYP/6-311++G(d,p) empiricaldispersion=gd3bj scf=xqc pop=npa geom=c
 heck
 ----------------------------------------------------------------------

 --------------------------------------
 CID_82282269_JID_3012_Energie_neutraal
 --------------------------------------
 Structure from the checkpoint file:  "JID_3012.chk"
 Charge =  0 Multiplicity = 1

 SCF Done:  E(RB3LYP) =  -970.361015921     A.U. after   15 cycles
 Normal termination of Gaussian 16 at Wed Dec  9 22:31:24 2020.

 ----------------------------------------------------------------------
 # B3LYP/6-311++G(d,p) empiricaldispersion=gd3bj scf=xqc pop=npa geom=c
 heck
 ----------------------------------------------------------------------

 ------------------------------------
 CID_82282269_JID_3012_Energie_kation
 ------------------------------------
 Structure from the checkpoint file:  "JID_3012.chk"
 Charge =  1 Multiplicity = 2

 SCF Done:  E(UB3LYP) =  -970.037191942     A.U. after   32 cycles
 Normal termination of Gaussian 16 at Wed Dec  9 22:38:18 2020.
 Gaussian 16:  ES64L-G16RevA.03 25-Dec-2016

 ----------------------------------------------------------------------
 # B3LYP/6-311++G(d,p) empiricaldispersion=gd3bj scf=xqc pop=npa geom=c
 heck
 ----------------------------------------------------------------------

 -----------------------------------
 CID_82282269_JID_3012_Energie_anion
 -----------------------------------
 Structure from the checkpoint file:  "JID_3012.chk"
 Charge = -1 Multiplicity = 2

                         Standard orientation:
 ---------------------------------------------------------------------
 Center     Atomic      Atomic             Coordinates (Angstroms)
 Number     Number       Type             X           Y           Z
 ---------------------------------------------------------------------
      1          6           0       -0.688437    2.218933    0.195364
      2          6           0       -1.448385    0.920211    0.099703
      3          6           0       -2.817314    0.931698   -0.194382
      4          6           0       -3.545182   -0.247355   -0.347875
      5          6           0       -2.910679   -1.481662   -0.212333
      6          6           0       -1.550206   -1.516888    0.082270
      7          6           0       -0.826612   -0.333576    0.246505
      8          7           0        0.555771   -0.481764    0.632518
      9          7           0        0.921297   -0.291690    1.989493
     10         16           0        1.788662    0.037508   -0.427238
     11          8           0        1.221807   -0.089420   -1.771141
     12          8           0        2.375084    1.307251    0.014843
     13          6           0        3.012296   -1.247810   -0.142713
     14          1           0       -1.375881    3.053745    0.359531
     15          1           0        0.058463    2.225050    0.993891
     16          1           0       -0.136708    2.410218   -0.731491
     17          1           0       -3.316913    1.889918   -0.311561
     18          1           0       -4.606059   -0.200025   -0.576723
     19          1           0       -3.466630   -2.405934   -0.337673
     20          1           0       -1.023482   -2.460047    0.189793
     21          1           0        0.542642    0.590055    2.338768
     22          1           0        0.503701   -1.052382    2.520991
     23          1           0        3.221318   -1.275120    0.927233
     24          1           0        2.607103   -2.196426   -0.495899
     25          1           0        3.906354   -0.968965   -0.703977
 ---------------------------------------------------------------------

 SCF Done:  E(UB3LYP) =  -970.350878039     A.U. after   33 cycles
 SCF Done:  E(UB3LYP) =  -970.350878039     a.u. after    1 cycles

 The electronic state is 2-A.
 Alpha  occ. eigenvalues --  -88.95508 -19.01167 -19.00953 -14.26087 -14.23386
 Alpha  occ. eigenvalues --  -10.10571 -10.10095 -10.08356 -10.07253 -10.07198
 Alpha  occ. eigenvalues --  -10.07132 -10.06996 -10.06568  -8.01729  -5.98007
 Alpha  occ. eigenvalues --   -5.97964  -5.97811  -1.01388  -0.90277  -0.88810
 Alpha  occ. eigenvalues --   -0.76163  -0.70569  -0.67692  -0.66905  -0.62760
 Alpha  occ. eigenvalues --   -0.58793  -0.52882  -0.50110  -0.47447  -0.43039
 Alpha  occ. eigenvalues --   -0.42695  -0.40546  -0.38488  -0.37793  -0.36396
 Alpha  occ. eigenvalues --   -0.35825  -0.33752  -0.33000  -0.32436  -0.31772
 Alpha  occ. eigenvalues --   -0.31372  -0.29327  -0.26220  -0.25865  -0.25062
 Alpha  occ. eigenvalues --   -0.24621  -0.22157  -0.21413  -0.20409  -0.17911
 Alpha  occ. eigenvalues --   -0.15892  -0.15097  -0.14486   0.04468
 Alpha virt. eigenvalues --    0.06750   0.07435   0.07633   0.07881   0.08697
 Alpha virt. eigenvalues --    0.09259   0.09677   0.11173   0.11460   0.12195
 Alpha virt. eigenvalues --    0.12496   0.13103   0.14284   0.15033   0.15381

  Beta  occ. eigenvalues --  -88.95505 -19.01158 -19.00940 -14.26079 -14.23291
  Beta  occ. eigenvalues --  -10.10528 -10.10048 -10.08298 -10.07249 -10.07140
  Beta  occ. eigenvalues --  -10.07109 -10.06967 -10.06559  -8.01725  -5.98005
  Beta  occ. eigenvalues --   -5.97960  -5.97807  -1.01363  -0.90250  -0.88702
  Beta  occ. eigenvalues --   -0.76056  -0.70431  -0.67600  -0.66826  -0.62669
  Beta  occ. eigenvalues --   -0.58735  -0.52781  -0.50059  -0.47352  -0.42981
  Beta  occ. eigenvalues --   -0.42623  -0.40453  -0.38419  -0.37747  -0.36353
  Beta  occ. eigenvalues --   -0.35769  -0.33690  -0.32945  -0.32398  -0.31684
  Beta  occ. eigenvalues --   -0.31318  -0.29296  -0.26088  -0.25803  -0.24998
  Beta  occ. eigenvalues --   -0.24546  -0.22124  -0.21362  -0.20383  -0.17825
  Beta  occ. eigenvalues --   -0.15833  -0.14934  -0.14177
  Beta virt. eigenvalues --    0.06834   0.07412   0.08011   0.08209   0.08522
  Beta virt. eigenvalues --    0.08941   0.09897   0.10303   0.11686   0.11961
  Beta virt. eigenvalues --    0.12329   0.12967   0.13487   0.14302   0.15013

 Mulliken charges and spin densities:
               1          2
     1  C    0.743211  -1.372303
     2  C    0.118094   0.387599
     3  C   -0.755676   0.345376
     4  C    0.024740  -0.363469
     5  C    1.238005  -1.257661
     6  C   -0.208761   0.293038
     7  C   -0.703434   0.027826
     8  N    0.043282   0.056687
     9  N   -0.422161   0.047125
    10  S    0.567551  -0.094226
    11  O   -0.241209   0.034953
    12  O   -0.143324   0.009839
    13  C    0.192492  -0.837403
    14  H   -0.123484   0.264555
    15  H    0.064300   0.104141
    16  H    0.290318  -0.050314
    17  H   -0.060044   0.195094
    18  H   -0.252005   0.387552
    19  H   -0.243730   0.409191
    20  H   -0.452293   0.620324
    21  H    0.064400   0.168927
    22  H   -0.282175   0.554380
    23  H   -0.132014   0.353560
    24  H   -0.274711   0.472864
    25  H   -0.051372   0.242346
 Sum of Mulliken charges =  -1.00000   1.00000

 Dipole moment (field-independent basis, Debye):
    X=             -0.3058    Y=              2.9226    Z=             -1.8769  Tot=              3.4868
 Quadrupole moment (field-independent basis, Debye-Ang):
   XX=           -133.9396   YY=           -121.7330   ZZ=           -121.6519
   XY=             -2.8332   XZ=             -2.5869   YZ=              2.9574

 Summary of Natural Population Analysis:

                                       Natural Population
                Natural  -----------------------------------------------
    Atom  No    Charge         Core      Valence    Rydberg      Total
 -----------------------------------------------------------------------
      C    1   -0.30006      0.99963     2.29393    0.00649     3.30006
      C    2   -0.00501      0.99946     1.99602    0.00953     3.00501
      C    3   -0.10567      0.99952     2.09634    0.00981     3.10567
      C    4   -0.08383      0.99956     2.07484    0.00942     3.08383
      C    5   -0.10319      0.99956     2.09352    0.01011     3.10319
      C    6   -0.08413      0.99950     2.07421    0.01042     3.08413
      C    7    0.07038      0.99938     1.91569    0.01455     2.92962
      N    8   -0.29805      0.99969     2.77495    0.02341     3.79805
      N    9   -0.31021      0.99975     2.79757    0.01289     3.81021
      S   10    1.09496      4.99927     1.80600    0.09978     6.90504
      O   11   -0.46127      0.99991     3.45570    0.00566     4.46127
      O   12   -0.46374      0.99990     3.45808    0.00576     4.46374
      C   13   -0.38740      0.99961     2.38035    0.00744     3.38740
      H   14    0.10007      0.00000     0.39908    0.00085     0.39993
      H   15    0.10812      0.00000     0.39072    0.00116     0.39188
      H   16    0.11356      0.00000     0.38537    0.00107     0.38644
      H   17    0.09721      0.00000     0.40187    0.00092     0.40279
      H   18    0.09797      0.00000     0.40111    0.00092     0.40203
      H   19    0.10038      0.00000     0.39854    0.00108     0.39962
      H   20    0.10725      0.00000     0.39078    0.00197     0.39275
      H   21    0.17297      0.00000     0.32454    0.00249     0.32703
      H   22    0.18421      0.00000     0.30840    0.00739     0.31579
      H   23    0.12558      0.00000     0.37294    0.00148     0.37442
      H   24    0.11743      0.00000     0.38075    0.00182     0.38257
      H   25    0.11248      0.00000     0.38656    0.00096     0.38752
 =======================================================================
   * Total *    0.00000     16.99474    35.75787    0.24740    53.00000

 Normal termination of Gaussian 16 at Wed Dec  9 22:45:41 2020.
