 Gaussian 16, Revision A.03,

 -----------------------------------------------------------
 # opt freq B3LYP/6-31G(d) empiricaldispersion=gd3bj scf=xqc
 -----------------------------------------------------------

 -------------------------------
 CID_129999757_JID_1622_neutraal
 -------------------------------
 Symbolic Z-matrix:
 Charge =  0 Multiplicity = 1

 SCF Done:  E(RB3LYP) =  -474.493838486     A.U. after   15 cycles
 SCF Done:  E(RB3LYP) =  -474.497088291     A.U. after   13 cycles
 SCF Done:  E(RB3LYP) =  -474.497367107     A.U. after   12 cycles
 SCF Done:  E(RB3LYP) =  -474.497455288     A.U. after   11 cycles
 SCF Done:  E(RB3LYP) =  -474.497610587     A.U. after   12 cycles
 SCF Done:  E(RB3LYP) =  -474.497769616     A.U. after   12 cycles
 SCF Done:  E(RB3LYP) =  -474.497588367     A.U. after   12 cycles
 SCF Done:  E(RB3LYP) =  -474.498324552     A.U. after   15 cycles
 SCF Done:  E(RB3LYP) =  -474.495642192     A.U. after   13 cycles
 SCF Done:  E(RB3LYP) =  -474.498883077     A.U. after   12 cycles
 SCF Done:  E(RB3LYP) =  -474.499570405     A.U. after   12 cycles
 SCF Done:  E(RB3LYP) =  -474.499589255     A.U. after   10 cycles
 SCF Done:  E(RB3LYP) =  -474.499593061     A.U. after   10 cycles
 SCF Done:  E(RB3LYP) =  -474.499593774     A.U. after    8 cycles
 SCF Done:  E(RB3LYP) =  -474.499593918     A.U. after    8 cycles
 SCF Done:  E(RB3LYP) =  -474.499593977     A.U. after    7 cycles
 Optimization completed.
    -- Stationary point found.
 Normal termination of Gaussian 16 at Tue Dec  8 20:31:02 2020.

 --------------------------------------------------------------------
 #N Geom=AllCheck Guess=TCheck SCRF=Check GenChk RB3LYP/6-31G(d) Freq
 --------------------------------------------------------------------

 Structure from the checkpoint file:  "JID_1622.chk"
 -------------------------------
 CID_129999757_JID_1622_neutraal
 -------------------------------
 Charge =  0 Multiplicity = 1

 SCF Done:  E(RB3LYP) =  -474.499593977     A.U. after    1 cycles

  Exact polarizability: 104.325  17.722 117.863   3.292   5.327  58.836
 Approx polarizability: 155.156  41.584 199.872  13.180  15.979  88.845

                      1                      2                      3
                      A                      A                      A
 Frequencies --     41.4473                88.6311               118.7209
 Red. masses --      4.2695                 3.7413                 6.3661
 Frc consts  --      0.0043                 0.0173                 0.0529
 IR Inten    --      2.3323                 1.9197                 2.3472

                      4                      5                      6
                      A                      A                      A
 Frequencies --    148.2193               168.9701               225.6710
 Red. masses --      2.8645                 5.5755                 4.1168
 Frc consts  --      0.0371                 0.0938                 0.1235
 IR Inten    --      1.0865                 0.0448                 1.9728

                      7                      8                      9
                      A                      A                      A
 Frequencies --    278.7123               290.1242               364.9791
 Red. masses --      1.0980                 2.4236                 3.1332
 Frc consts  --      0.0503                 0.1202                 0.2459
 IR Inten    --     48.6034                 0.9100                 4.6504

                     10                     11                     12
                      A                      A                      A
 Frequencies --    389.2671               456.8199               481.7786
 Red. masses --      3.5401                 3.6758                 1.9135
 Frc consts  --      0.3161                 0.4519                 0.2617
 IR Inten    --     11.0457                 3.0241                54.4175

                     13                     14                     15
                      A                      A                      A
 Frequencies --    532.6488               565.5129               603.3159
 Red. masses --      3.4724                 5.5820                 5.5514
 Frc consts  --      0.5804                 1.0518                 1.1905
 IR Inten    --     64.0542                 6.0102                 2.9510

                     16                     17                     18
                      A                      A                      A
 Frequencies --    636.8463               667.1237               681.6725
 Red. masses --      2.3096                 1.9428                 2.0230
 Frc consts  --      0.5519                 0.5094                 0.5539
 IR Inten    --      4.6930                 3.3332                11.8304

                     19                     20                     21
                      A                      A                      A
 Frequencies --    738.4280               786.8520               797.5178
 Red. masses --      2.1781                 1.3075                 2.7026
 Frc consts  --      0.6997                 0.4769                 1.0128
 IR Inten    --      6.7379                24.7889                28.4280

                     22                     23                     24
                      A                      A                      A
 Frequencies --    908.1325               910.2027               948.5527
 Red. masses --      1.7445                 3.1305                 1.8468
 Frc consts  --      0.8477                 1.5281                 0.9790
 IR Inten    --     27.7097                93.3816                15.4488

                     25                     26                     27
                      A                      A                      A
 Frequencies --    951.5306              1020.9571              1069.0907
 Red. masses --      1.7179                 1.1110                 1.3444
 Frc consts  --      0.9164                 0.6823                 0.9053
 IR Inten    --    145.8740                18.7895                 6.6184

                     28                     29                     30
                      A                      A                      A
 Frequencies --   1089.5030              1103.1603              1138.6968
 Red. masses --      2.1834                 1.9927                 2.5123
 Frc consts  --      1.5270                 1.4288                 1.9193
 IR Inten    --     19.9530                21.0761                 2.3001

                     31                     32                     33
                      A                      A                      A
 Frequencies --   1194.6381              1253.2912              1260.1059
 Red. masses --      1.5516                 1.6916                 1.9023
 Frc consts  --      1.3047                 1.5655                 1.7796
 IR Inten    --      0.8416                 1.8389                 9.6335

                     34                     35                     36
                      A                      A                      A
 Frequencies --   1323.4140              1337.5539              1348.8987
 Red. masses --      1.6133                 1.2832                 3.3768
 Frc consts  --      1.6647                 1.3525                 3.6200
 IR Inten    --     15.9731                 2.7139                 0.0648

                     37                     38                     39
                      A                      A                      A
 Frequencies --   1381.2280              1416.2745              1480.1328
 Red. masses --      2.3841                 1.6776                 1.2137
 Frc consts  --      2.6799                 1.9826                 1.5667
 IR Inten    --      0.8939                 5.4697                 6.1991

                     40                     41                     42
                      A                      A                      A
 Frequencies --   1490.0609              1560.4085              1611.9276
 Red. masses --      2.6205                 4.3039                 4.6416
 Frc consts  --      3.4281                 6.1743                 7.1058
 IR Inten    --     26.3071                18.7798                 1.0770

                     43                     44                     45
                      A                      A                      A
 Frequencies --   1692.7777              1736.8559              2348.6553
 Red. masses --      1.0984                 4.4552                12.6592
 Frc consts  --      1.8544                 7.9185                41.1429
 IR Inten    --     16.4443                 4.0253                54.8019

                     46                     47                     48
                      A                      A                      A
 Frequencies --   3052.3965              3137.3917              3170.1530
 Red. masses --      1.0844                 1.0848                 1.0650
 Frc consts  --      5.9530                 6.2911                 6.3060
 IR Inten    --     12.0368                19.6280                 5.8121

                     49                     50                     51
                      A                      A                      A
 Frequencies --   3248.4844              3285.9593              3292.7470
 Red. masses --      1.1167                 1.0958                 1.0984
 Frc consts  --      6.9427                 6.9713                 7.0164
 IR Inten    --     14.3176                 0.4352                 0.2418

                     52                     53                     54
                      A                      A                      A
 Frequencies --   3453.1431              3542.8426              3667.6636
 Red. masses --      1.0488                 1.0925                 1.0810
 Frc consts  --      7.3682                 8.0796                 8.5675
 IR Inten    --      1.5249                 0.4424                87.3502

 - Thermochemistry -
 -------------------
 Temperature   298.150 Kelvin.  Pressure   1.00000 Atm.
 Atom     1 has atomic number  6 and mass  12.00000

 Molecular mass:   147.07965 amu.
 Principal axes and moments of inertia in atomic units:
                           1         2         3
     Eigenvalues --  1343.264721646.930152679.94758
           X            0.99883   0.04825  -0.00329
           Y           -0.04828   0.99878  -0.01039
           Z            0.00278   0.01053   0.99994
 This molecule is an asymmetric top.
 Rotational symmetry number  1.
 Warning -- assumption of classical behavior for rotation
           may cause significant error
 Rotational temperatures (Kelvin)      0.06448     0.05259     0.03232
 Rotational constants (GHZ):           1.34355     1.09582     0.67342
 Zero-point vibrational energy     421624.4 (Joules/Mol)
                                  100.77064 (Kcal/Mol)
 Warning -- explicit consideration of  15 degrees of freedom as
           vibrations may cause significant error
 Vibrational temperatures:     59.63   127.52   170.81   213.25   243.11
          (Kelvin)            324.69   401.00   417.42   525.12   560.07
                              657.26   693.17   766.36   813.65   868.04
                              916.28   959.84   980.77  1062.43  1132.10
                             1147.45  1306.60  1309.58  1364.76  1369.04
                             1468.93  1538.18  1567.55  1587.20  1638.33
                             1718.82  1803.21  1813.01  1904.10  1924.44
                             1940.76  1987.28  2037.70  2129.58  2143.87
                             2245.08  2319.20  2435.53  2498.95  3379.19
                             4391.72  4514.01  4561.14  4673.84  4727.76
                             4737.53  4968.30  5097.36  5276.95

 Zero-point correction=                           0.160588 (Hartree/Particle)
 Thermal correction to Energy=                    0.171173
 Thermal correction to Enthalpy=                  0.172117
 Thermal correction to Gibbs Free Energy=         0.124091
 Sum of electronic and zero-point Energies=           -474.339006
 Sum of electronic and thermal Energies=              -474.328421
 Sum of electronic and thermal Enthalpies=            -474.327477
 Sum of electronic and thermal Free Energies=         -474.375503

                     E (Thermal)             CV                S
                      KCal/Mol        Cal/Mol-Kelvin    Cal/Mol-Kelvin
 Total                  107.413             39.426            101.080
 Electronic               0.000              0.000              0.000
 Translational            0.889              2.981             40.868
 Rotational               0.889              2.981             30.162
 Vibrational            105.635             33.465             30.050
 Vibration     1          0.594              1.981              5.189
 Vibration     2          0.601              1.957              3.690
 Vibration     3          0.609              1.934              3.121
 Vibration     4          0.618              1.905              2.695
 Vibration     5          0.625              1.881              2.447
 Vibration     6          0.650              1.802              1.913
 Vibration     7          0.679              1.713              1.542
 Vibration     8          0.686              1.692              1.473
 Vibration     9          0.738              1.544              1.101
 Vibration    10          0.757              1.493              1.003
 Vibration    11          0.815              1.346              0.775
 Vibration    12          0.838              1.290              0.705
 Vibration    13          0.888              1.178              0.581
 Vibration    14          0.921              1.106              0.513
 Vibration    15          0.962              1.025              0.444

 Optimization completed.
    -- Stationary point found.
 Normal termination of Gaussian 16 at Tue Dec  8 20:34:40 2020.

 ----------------------------------------------------------------------
 # B3LYP/6-311++G(d,p) empiricaldispersion=gd3bj scf=xqc pop=npa geom=c
 heck
 ----------------------------------------------------------------------

 ---------------------------------------
 CID_129999757_JID_1622_Energie_neutraal
 ---------------------------------------
 Structure from the checkpoint file:  "JID_1622.chk"
 Charge =  0 Multiplicity = 1

 SCF Done:  E(RB3LYP) =  -474.641198475     A.U. after   15 cycles
 Normal termination of Gaussian 16 at Tue Dec  8 20:37:51 2020.

 ----------------------------------------------------------------------
 # B3LYP/6-311++G(d,p) empiricaldispersion=gd3bj scf=xqc pop=npa geom=c
 heck
 ----------------------------------------------------------------------

 -------------------------------------
 CID_129999757_JID_1622_Energie_kation
 -------------------------------------
 Structure from the checkpoint file:  "JID_1622.chk"
 Charge =  1 Multiplicity = 2

 SCF Done:  E(UB3LYP) =  -474.326447293     A.U. after   28 cycles
 Normal termination of Gaussian 16 at Tue Dec  8 20:44:28 2020.
 Gaussian 16:  ES64L-G16RevA.03 25-Dec-2016

 ----------------------------------------------------------------------
 # B3LYP/6-311++G(d,p) empiricaldispersion=gd3bj scf=xqc pop=npa geom=c
 heck
 ----------------------------------------------------------------------

 ------------------------------------
 CID_129999757_JID_1622_Energie_anion
 ------------------------------------
 Structure from the checkpoint file:  "JID_1622.chk"
 Charge = -1 Multiplicity = 2

                         Standard orientation:
 ---------------------------------------------------------------------
 Center     Atomic      Atomic             Coordinates (Angstroms)
 Number     Number       Type             X           Y           Z
 ---------------------------------------------------------------------
      1          6           0        2.681229    0.898779   -0.735878
      2          6           0        1.973516   -0.227971   -0.723134
      3          6           0        1.155133   -0.717509    0.450358
      4          6           0       -0.320189   -0.546208    0.146094
      5          6           0       -1.237632   -1.523303   -0.162034
      6          7           0       -2.455776   -0.917081   -0.402974
      7          6           0       -2.346247    0.433871   -0.254995
      8          6           0       -1.029477    0.706314    0.084365
      9          6           0       -0.482109    1.988467    0.343832
     10          7           0       -0.011307    3.028871    0.571250
     11          7           0        1.554780   -2.091186    0.785463
     12          1           0        2.727283    1.553616    0.129985
     13          1           0        3.226523    1.218175   -1.619496
     14          1           0        1.919149   -0.854110   -1.615441
     15          1           0        1.397788   -0.087969    1.315649
     16          1           0       -1.127496   -2.595163   -0.224180
     17          1           0       -3.307181   -1.402492   -0.640614
     18          1           0       -3.185786    1.098515   -0.390968
     19          1           0        0.936127   -2.458495    1.507744
     20          1           0        1.434366   -2.690950   -0.030496
 ---------------------------------------------------------------------

 SCF Done:  E(UB3LYP) =  -474.638542088     A.U. after   31 cycles

 The electronic state is 2-A.
 Alpha  occ. eigenvalues --  -14.26643 -14.20758 -14.20295 -10.12003 -10.11579
 Alpha  occ. eigenvalues --  -10.11125 -10.10027 -10.09738 -10.08705 -10.08121
 Alpha  occ. eigenvalues --  -10.07554  -0.89086  -0.80564  -0.80192  -0.70786
 Alpha  occ. eigenvalues --   -0.68300  -0.64656  -0.57981  -0.54642  -0.48978
 Alpha  occ. eigenvalues --   -0.46629  -0.45807  -0.39590  -0.38542  -0.37929
 Alpha  occ. eigenvalues --   -0.35125  -0.33543  -0.33294  -0.32199  -0.31402
 Alpha  occ. eigenvalues --   -0.28518  -0.26683  -0.26218  -0.25849  -0.23298
 Alpha  occ. eigenvalues --   -0.18220  -0.15960  -0.15038  -0.13164   0.04139
 Alpha virt. eigenvalues --    0.07039   0.07930   0.08276   0.08628   0.08869
 Alpha virt. eigenvalues --    0.09863   0.10963   0.11298   0.11903   0.12437
 Alpha virt. eigenvalues --    0.12728   0.14129   0.14475   0.14988   0.15488

  Beta  occ. eigenvalues --  -14.26558 -14.20756 -14.20269 -10.11998 -10.11561
  Beta  occ. eigenvalues --  -10.11123 -10.09987 -10.09736 -10.08701 -10.08124
  Beta  occ. eigenvalues --  -10.07553  -0.88991  -0.80544  -0.80160  -0.70723
  Beta  occ. eigenvalues --   -0.68273  -0.64602  -0.57928  -0.54552  -0.48941
  Beta  occ. eigenvalues --   -0.46540  -0.45718  -0.39568  -0.38454  -0.37897
  Beta  occ. eigenvalues --   -0.35073  -0.33477  -0.33240  -0.32158  -0.31380
  Beta  occ. eigenvalues --   -0.28489  -0.26679  -0.26202  -0.25839  -0.23286
  Beta  occ. eigenvalues --   -0.18211  -0.15933  -0.15012  -0.13146
  Beta virt. eigenvalues --    0.07373   0.07860   0.08367   0.08463   0.08836
  Beta virt. eigenvalues --    0.09442   0.10793   0.11413   0.11520   0.12363
  Beta virt. eigenvalues --    0.12537   0.12782   0.14170   0.15000   0.15056

 Mulliken charges and spin densities:
               1          2
     1  C   -0.521814  -0.090154
     2  C    0.015559   0.139665
     3  C    1.042133  -1.464717
     4  C   -0.929462   0.652114
     5  C    1.281458  -1.307151
     6  N    0.310861  -0.381702
     7  C    0.086508  -0.312562
     8  C    1.014094   0.851599
     9  C   -0.635477  -1.117984
    10  N   -0.251391   0.013194
    11  N   -0.211780  -0.054296
    12  H    0.121619  -0.002443
    13  H    0.114673  -0.002275
    14  H    0.051262   0.119506
    15  H    0.176450   0.050680
    16  H   -1.359341   1.565506
    17  H   -0.803513   1.163631
    18  H   -0.642633   0.839744
    19  H    0.080981   0.149549
    20  H    0.059812   0.188096
 Sum of Mulliken charges =  -1.00000   1.00000

 Dipole moment (field-independent basis, Debye):
    X=              7.6308    Y=              4.0662    Z=              0.9118  Tot=              8.6945
 Quadrupole moment (field-independent basis, Debye-Ang):
   XX=           -127.6047   YY=           -123.7920   ZZ=            -85.8764
   XY=            -13.8156   XZ=             -9.9343   YZ=             -5.3560

 Summary of Natural Population Analysis:

                                       Natural Population
                Natural  -----------------------------------------------
    Atom  No    Charge         Core      Valence    Rydberg      Total
 -----------------------------------------------------------------------
      C    1   -0.18806      0.99956     2.18212    0.00638     3.18806
      C    2   -0.07697      0.99955     2.06616    0.01126     3.07697
      C    3   -0.03652      0.99953     2.02351    0.01348     3.03652
      C    4   -0.04203      0.99948     2.02979    0.01276     3.04203
      C    5   -0.01221      0.99947     1.99749    0.01524     3.01221
      N    6   -0.25017      0.99970     2.73887    0.01160     3.75017
      C    7    0.02275      0.99954     1.96399    0.01372     2.97725
      C    8   -0.13771      0.99938     2.12838    0.00995     3.13771
      C    9    0.16125      0.99963     1.82171    0.01742     2.83875
      N   10   -0.19615      0.99979     2.68645    0.00990     3.69615
      N   11   -0.41487      0.99978     2.90596    0.00913     3.91487
      H   12    0.09540      0.00000     0.40341    0.00119     0.40460
      H   13    0.09118      0.00000     0.40782    0.00100     0.40882
      H   14    0.09293      0.00000     0.40600    0.00107     0.40707
      H   15    0.09744      0.00000     0.40051    0.00205     0.40256
      H   16    0.11218      0.00000     0.38007    0.00775     0.38782
      H   17    0.22245      0.00000     0.21577    0.06178     0.27755
      H   18    0.10744      0.00000     0.39091    0.00165     0.39256
      H   19    0.17769      0.00000     0.32058    0.00173     0.32231
      H   20    0.17398      0.00000     0.32394    0.00209     0.32602
 =======================================================================
   * Total *    0.00000     10.99541    27.79344    0.21115    39.00000

 Normal termination of Gaussian 16 at Tue Dec  8 20:50:14 2020.
