 Gaussian 16, Revision A.03,

 -----------------------------------------------------------
 # opt freq B3LYP/6-31G(d) empiricaldispersion=gd3bj scf=xqc
 -----------------------------------------------------------

 -------------------------------
 CID_132224549_JID_3635_neutraal
 -------------------------------
 Symbolic Z-matrix:
 Charge =  0 Multiplicity = 1

 SCF Done:  E(RB3LYP) =  -576.605690130     A.U. after   14 cycles
 SCF Done:  E(RB3LYP) =  -576.616977012     A.U. after   14 cycles
 SCF Done:  E(RB3LYP) =  -576.612330688     A.U. after   13 cycles
 SCF Done:  E(RB3LYP) =  -576.619395031     A.U. after   13 cycles
 SCF Done:  E(RB3LYP) =  -576.620993766     A.U. after   13 cycles
 SCF Done:  E(RB3LYP) =  -576.620942396     A.U. after   13 cycles
 SCF Done:  E(RB3LYP) =  -576.621945866     A.U. after   12 cycles
 SCF Done:  E(RB3LYP) =  -576.622403159     A.U. after   12 cycles
 SCF Done:  E(RB3LYP) =  -576.622585455     A.U. after   12 cycles
 SCF Done:  E(RB3LYP) =  -576.622663804     A.U. after   11 cycles
 SCF Done:  E(RB3LYP) =  -576.622974226     A.U. after    7 cycles
 SCF Done:  E(RB3LYP) =  -576.622957642     A.U. after   11 cycles
 SCF Done:  E(RB3LYP) =  -576.622978725     A.U. after   11 cycles
 SCF Done:  E(RB3LYP) =  -576.622979089     A.U. after    8 cycles
 SCF Done:  E(RB3LYP) =  -576.622979139     A.U. after    7 cycles
 Optimization completed.
    -- Stationary point found.
 Normal termination of Gaussian 16 at Sun Dec 13 12:34:42 2020.

 --------------------------------------------------------------------
 #N Geom=AllCheck Guess=TCheck SCRF=Check GenChk RB3LYP/6-31G(d) Freq
 --------------------------------------------------------------------

 Structure from the checkpoint file:  "JID_3635.chk"
 -------------------------------
 CID_132224549_JID_3635_neutraal
 -------------------------------
 Charge =  0 Multiplicity = 1

 SCF Done:  E(RB3LYP) =  -576.622979139     A.U. after    1 cycles

  Exact polarizability: 148.390   0.779 116.593   3.408  -0.139 115.785
 Approx polarizability: 196.606   2.388 166.962   5.575   1.099 202.135

                      1                      2                      3
                      A                      A                      A
 Frequencies --     43.0662                53.7191                62.6776
 Red. masses --      3.4772                 2.6858                 3.3769
 Frc consts  --      0.0038                 0.0046                 0.0078
 IR Inten    --      1.4376                 2.9677                 0.8600

                      4                      5                      6
                      A                      A                      A
 Frequencies --     81.2972               126.2780               141.2217
 Red. masses --      2.8174                 2.2525                 3.2507
 Frc consts  --      0.0110                 0.0212                 0.0382
 IR Inten    --      0.7579                 4.6419                 1.6245

                      7                      8                      9
                      A                      A                      A
 Frequencies --    170.2291               179.4780               187.7601
 Red. masses --      1.7942                 1.5230                 1.8339
 Frc consts  --      0.0306                 0.0289                 0.0381
 IR Inten    --      0.1916                 2.9454                 6.1715

                     10                     11                     12
                      A                      A                      A
 Frequencies --    215.5064               235.9172               242.6402
 Red. masses --      1.7357                 1.2228                 1.4985
 Frc consts  --      0.0475                 0.0401                 0.0520
 IR Inten    --     13.7100                 0.9007                34.0270

                     13                     14                     15
                      A                      A                      A
 Frequencies --    252.2030               266.3629               288.0866
 Red. masses --      2.9990                 1.4118                 2.9390
 Frc consts  --      0.1124                 0.0590                 0.1437
 IR Inten    --      2.1102                10.9127                 1.9784

                     16                     17                     18
                      A                      A                      A
 Frequencies --    305.5013               333.9029               394.0552
 Red. masses --      2.5251                 2.3621                 2.4497
 Frc consts  --      0.1389                 0.1552                 0.2241
 IR Inten    --     14.1535                 1.2319                55.6900

                     19                     20                     21
                      A                      A                      A
 Frequencies --    423.0150               470.7323               486.2931
 Red. masses --      1.9464                 3.7282                 3.5915
 Frc consts  --      0.2052                 0.4867                 0.5004
 IR Inten    --     64.3467                14.4948                 5.8177

                     22                     23                     24
                      A                      A                      A
 Frequencies --    494.2934               535.1296               596.9562
 Red. masses --      2.9272                 2.1985                 2.8378
 Frc consts  --      0.4214                 0.3709                 0.5958
 IR Inten    --      3.9210                30.4680                 5.2349

                     25                     26                     27
                      A                      A                      A
 Frequencies --    630.6062               677.3573               744.7815
 Red. masses --      1.7516                 3.9718                 3.3254
 Frc consts  --      0.4104                 1.0737                 1.0868
 IR Inten    --     40.2090                16.5649                10.8206

                     28                     29                     30
                      A                      A                      A
 Frequencies --    794.8686               804.5058               889.9515
 Red. masses --      2.5650                 1.6915                 2.7477
 Frc consts  --      0.9548                 0.6450                 1.2822
 IR Inten    --     12.0527                18.4144                 4.2740

                     31                     32                     33
                      A                      A                      A
 Frequencies --    912.1963               934.6013               945.6452
 Red. masses --      2.6070                 1.2104                 1.3676
 Frc consts  --      1.2781                 0.6229                 0.7205
 IR Inten    --     23.6876                 0.7161                 6.6392

                     34                     35                     36
                      A                      A                      A
 Frequencies --    967.9379               986.5457              1016.5259
 Red. masses --      1.5023                 1.6427                 3.5927
 Frc consts  --      0.8293                 0.9420                 2.1873
 IR Inten    --      0.3082                13.1802                 8.8651

                     37                     38                     39
                      A                      A                      A
 Frequencies --   1022.9471              1062.6055              1068.2797
 Red. masses --      1.6986                 1.7520                 1.4252
 Frc consts  --      1.0473                 1.1655                 0.9583
 IR Inten    --     25.9779                37.6765                 6.7907

                     40                     41                     42
                      A                      A                      A
 Frequencies --   1138.6229              1152.6321              1164.3288
 Red. masses --      2.2340                 3.3777                 2.1982
 Frc consts  --      1.7064                 2.6439                 1.7558
 IR Inten    --      2.7962                84.0317                 3.5210

                     43                     44                     45
                      A                      A                      A
 Frequencies --   1174.9450              1184.7143              1187.9796
 Red. masses --      1.4791                 1.3661                 1.7815
 Frc consts  --      1.2031                 1.1297                 1.4813
 IR Inten    --     33.8477                24.1791                58.1827

                     46                     47                     48
                      A                      A                      A
 Frequencies --   1232.0704              1238.2648              1333.9215
 Red. masses --      2.0632                 2.0256                 2.8107
 Frc consts  --      1.8453                 1.8299                 2.9467
 IR Inten    --     23.7434               113.1243                49.4543

                     49                     50                     51
                      A                      A                      A
 Frequencies --   1352.0421              1355.7690              1367.8983
 Red. masses --      1.4841                 1.3813                 1.3984
 Frc consts  --      1.5984                 1.4959                 1.5416
 IR Inten    --     38.6929                 4.0714                14.8465

                     52                     53                     54
                      A                      A                      A
 Frequencies --   1425.8044              1442.9342              1445.1581
 Red. masses --      1.2376                 1.2281                 1.2616
 Frc consts  --      1.4824                 1.5066                 1.5524
 IR Inten    --      5.5359                 5.6872                 0.9893

                     55                     56                     57
                      A                      A                      A
 Frequencies --   1455.9664              1479.3849              1496.8739
 Red. masses --      1.3587                 1.3623                 1.2036
 Frc consts  --      1.6970                 1.7567                 1.5890
 IR Inten    --     27.2899                32.0317                 4.8264

                     58                     59                     60
                      A                      A                      A
 Frequencies --   1512.0481              1512.1922              1517.7125
 Red. masses --      1.0476                 1.0515                 1.0586
 Frc consts  --      1.4111                 1.4167                 1.4367
 IR Inten    --      3.6680                 7.2390                 5.4969

                     61                     62                     63
                      A                      A                      A
 Frequencies --   1519.7067              1523.6489              1533.1246
 Red. masses --      1.0460                 1.0503                 1.0512
 Frc consts  --      1.4233                 1.4366                 1.4558
 IR Inten    --      3.6517                 2.9627                19.6266

                     64                     65                     66
                      A                      A                      A
 Frequencies --   1536.0351              1539.1637              1634.7296
 Red. masses --      1.0604                 1.0546                 5.2085
 Frc consts  --      1.4741                 1.4719                 8.2008
 IR Inten    --      7.5879                 5.7632               271.9345

                     67                     68                     69
                      A                      A                      A
 Frequencies --   1696.7144              1730.3020              1741.4647
 Red. masses --      2.0542                 3.7164                 2.6715
 Frc consts  --      3.4843                 6.5556                 4.7734
 IR Inten    --     28.9457               139.6262               171.0331

                     70                     71                     72
                      A                      A                      A
 Frequencies --   3016.4850              3025.0923              3042.0784
 Red. masses --      1.0492                 1.0843                 1.0354
 Frc consts  --      5.6246                 5.8461                 5.6457
 IR Inten    --     41.3740                17.3393                24.5869

                     73                     74                     75
                      A                      A                      A
 Frequencies --   3046.6531              3053.2512              3073.8935
 Red. masses --      1.0364                 1.0320                 1.0884
 Frc consts  --      5.6678                 5.6683                 6.0593
 IR Inten    --     23.6045                63.0299                38.7054

                     76                     77                     78
                      A                      A                      A
 Frequencies --   3088.9756              3103.3339              3111.0310
 Red. masses --      1.0851                 1.1019                 1.1003
 Frc consts  --      6.1005                 6.2524                 6.2744
 IR Inten    --     59.0189                 1.8311                76.5945

                     79                     80                     81
                      A                      A                      A
 Frequencies --   3120.6932              3124.0159              3125.8443
 Red. masses --      1.1024                 1.0999                 1.1038
 Frc consts  --      6.3253                 6.3245                 6.3542
 IR Inten    --     29.3203                49.2518                32.6150

                     82                     83                     84
                      A                      A                      A
 Frequencies --   3127.6954              3155.7453              3165.2399
 Red. masses --      1.0994                 1.1063                 1.0884
 Frc consts  --      6.3363                 6.4914                 6.4245
 IR Inten    --      3.7090                30.3979                20.1552

                     85                     86                     87
                      A                      A                      A
 Frequencies --   3187.5087              3548.8514              3690.2561
 Red. masses --      1.0886                 1.0539                 1.0966
 Frc consts  --      6.5166                 7.8205                 8.7987
 IR Inten    --     13.6042               132.3426                72.0494

 - Thermochemistry -
 -------------------
 Temperature   298.150 Kelvin.  Pressure   1.00000 Atm.
 Atom     1 has atomic number  6 and mass  12.00000

 Molecular mass:   182.14191 amu.
 Principal axes and moments of inertia in atomic units:
                           1         2         3
     Eigenvalues --  1515.537153547.610113868.99105
           X            0.99996   0.00847   0.00427
           Y           -0.00827   0.99894  -0.04531
           Z           -0.00465   0.04527   0.99896
 This molecule is an asymmetric top.
 Rotational symmetry number  1.
 Warning -- assumption of classical behavior for rotation
           may cause significant error
 Rotational temperatures (Kelvin)      0.05715     0.02441     0.02239
 Rotational constants (GHZ):           1.19083     0.50872     0.46646
 Zero-point vibrational energy     714640.0 (Joules/Mol)
                                  170.80306 (Kcal/Mol)
 Warning -- explicit consideration of  24 degrees of freedom as
           vibrations may cause significant error
 Vibrational temperatures:     61.96    77.29    90.18   116.97   181.69
          (Kelvin)            203.19   244.92   258.23   270.14   310.07
                              339.43   349.11   362.86   383.24   414.49
                              439.55   480.41   566.96   608.62   677.28
                              699.67   711.18   769.93   858.89   907.30
                              974.57  1071.57  1143.64  1157.50  1280.44
                             1312.45  1344.68  1360.57  1392.65  1419.42
                             1462.55  1471.79  1528.85  1537.02  1638.22
                             1658.38  1675.21  1690.48  1704.54  1709.24
                             1772.67  1781.59  1919.22  1945.29  1950.65
                             1968.10  2051.41  2076.06  2079.26  2094.81
                             2128.50  2153.67  2175.50  2175.71  2183.65
                             2186.52  2192.19  2205.82  2210.01  2214.51
                             2352.01  2441.19  2489.52  2505.58  4340.05
                             4352.43  4376.87  4383.45  4392.95  4422.65
                             4444.35  4465.01  4476.08  4489.98  4494.76
                             4497.39  4500.06  4540.41  4554.07  4586.11
                             5106.01  5309.46

 Zero-point correction=                           0.272192 (Hartree/Particle)
 Thermal correction to Energy=                    0.287982
 Thermal correction to Enthalpy=                  0.288926
 Thermal correction to Gibbs Free Energy=         0.229592
 Sum of electronic and zero-point Energies=           -576.350787
 Sum of electronic and thermal Energies=              -576.334998
 Sum of electronic and thermal Enthalpies=            -576.334053
 Sum of electronic and thermal Free Energies=         -576.393387

                     E (Thermal)             CV                S
                      KCal/Mol        Cal/Mol-Kelvin    Cal/Mol-Kelvin
 Total                  180.711             57.479            124.878
 Electronic               0.000              0.000              0.000
 Translational            0.889              2.981             41.505
 Rotational               0.889              2.981             31.409
 Vibrational            178.934             51.517             51.963
 Vibration     1          0.595              1.980              5.113
 Vibration     2          0.596              1.976              4.676
 Vibration     3          0.597              1.972              4.371
 Vibration     4          0.600              1.962              3.859
 Vibration     5          0.611              1.927              3.002
 Vibration     6          0.615              1.912              2.787
 Vibration     7          0.625              1.879              2.433
 Vibration     8          0.629              1.868              2.334
 Vibration     9          0.632              1.857              2.250
 Vibration    10          0.645              1.817              1.997
 Vibration    11          0.655              1.786              1.833
 Vibration    12          0.659              1.775              1.783
 Vibration    13          0.664              1.759              1.715
 Vibration    14          0.672              1.735              1.620
 Vibration    15          0.685              1.696              1.485
 Vibration    16          0.696              1.663              1.387
 Vibration    17          0.715              1.608              1.241
 Vibration    18          0.761              1.483              0.985
 Vibration    19          0.785              1.420              0.882
 Vibration    20          0.828              1.315              0.736
 Vibration    21          0.842              1.280              0.693
 Vibration    22          0.850              1.263              0.673
 Vibration    23          0.890              1.172              0.576
 Vibration    24          0.955              1.038              0.455

 Optimization completed.
    -- Stationary point found.
 Normal termination of Gaussian 16 at Sun Dec 13 12:42:45 2020.

 ----------------------------------------------------------------------
 # B3LYP/6-311++G(d,p) empiricaldispersion=gd3bj scf=xqc pop=npa geom=c
 heck
 ----------------------------------------------------------------------

 ---------------------------------------
 CID_132224549_JID_3635_Energie_neutraal
 ---------------------------------------
 Structure from the checkpoint file:  "JID_3635.chk"
 Charge =  0 Multiplicity = 1

 SCF Done:  E(RB3LYP) =  -576.792438536     A.U. after   15 cycles
 Normal termination of Gaussian 16 at Sun Dec 13 12:46:05 2020.

 ----------------------------------------------------------------------
 # B3LYP/6-311++G(d,p) empiricaldispersion=gd3bj scf=xqc pop=npa geom=c
 heck
 ----------------------------------------------------------------------

 -------------------------------------
 CID_132224549_JID_3635_Energie_kation
 -------------------------------------
 Structure from the checkpoint file:  "JID_3635.chk"
 Charge =  1 Multiplicity = 2

 SCF Done:  E(UB3LYP) =  -576.526003331     A.U. after   23 cycles
 Normal termination of Gaussian 16 at Sun Dec 13 12:53:04 2020.
 Gaussian 16:  ES64L-G16RevA.03 25-Dec-2016

 ----------------------------------------------------------------------
 # B3LYP/6-311++G(d,p) empiricaldispersion=gd3bj scf=xqc pop=npa geom=c
 heck
 ----------------------------------------------------------------------

 ------------------------------------
 CID_132224549_JID_3635_Energie_anion
 ------------------------------------
 Structure from the checkpoint file:  "JID_3635.chk"
 Charge = -1 Multiplicity = 2

                         Standard orientation:
 ---------------------------------------------------------------------
 Center     Atomic      Atomic             Coordinates (Angstroms)
 Number     Number       Type             X           Y           Z
 ---------------------------------------------------------------------
      1          6           0       -0.547858    2.571502   -0.350486
      2          6           0       -1.688266    1.602906   -0.413767
      3          6           0       -1.745203    0.428272    0.233291
      4          7           0       -0.874039   -0.053823    1.201960
      5          6           0        0.370284   -0.306447    0.963112
      6          6           0        1.143455   -0.381547   -0.267329
      7          6           0        0.674560   -0.787565   -1.485778
      8          7           0       -0.553110   -1.234325   -1.862560
      9          6           0        2.651138   -0.159797   -0.129565
     10          6           0        2.984242    1.207395    0.489327
     11          6           0        3.344723   -1.295979    0.645096
     12          8           0       -2.819906   -0.408760   -0.047858
     13          6           0       -3.329024   -1.184029    1.041007
     14          1           0        0.115784    2.482612   -1.223626
     15          1           0        0.069179    2.405463    0.537604
     16          1           0       -0.912100    3.605659   -0.324351
     17          1           0       -2.547586    1.851903   -1.030517
     18          1           0        0.954002   -0.517463    1.865323
     19          1           0        1.404959   -0.854422   -2.290589
     20          1           0       -0.732103   -1.340341   -2.848789
     21          1           0       -1.377235   -1.112401   -1.285125
     22          1           0        3.068303   -0.166114   -1.145875
     23          1           0        2.596868    1.285109    1.512427
     24          1           0        4.068721    1.362866    0.534281
     25          1           0        2.542851    2.020605   -0.095490
     26          1           0        4.430600   -1.144041    0.668157
     27          1           0        3.000869   -1.345163    1.684882
     28          1           0        3.141405   -2.266223    0.179725
     29          1           0       -3.669964   -0.533589    1.854603
     30          1           0       -4.175762   -1.740000    0.632787
     31          1           0       -2.577811   -1.875613    1.432198
 ---------------------------------------------------------------------

 SCF Done:  E(UB3LYP) =  -576.781326384     A.U. after   33 cycles
 SCF Done:  E(UB3LYP) =  -576.781326384     a.u. after    1 cycles

 The electronic state is 2-A.
 Alpha  occ. eigenvalues --  -19.03006 -14.19536 -14.16173 -10.11781 -10.10951
 Alpha  occ. eigenvalues --  -10.07708 -10.07587 -10.06201 -10.04832 -10.04763
 Alpha  occ. eigenvalues --  -10.04322 -10.03112 -10.02895  -0.94434  -0.79686
 Alpha  occ. eigenvalues --   -0.78079  -0.69502  -0.65688  -0.61027  -0.59985
 Alpha  occ. eigenvalues --   -0.57394  -0.54723  -0.51355  -0.48216  -0.45211
 Alpha  occ. eigenvalues --   -0.41834  -0.40412  -0.38293  -0.36115  -0.35057
 Alpha  occ. eigenvalues --   -0.33955  -0.33004  -0.32049  -0.31037  -0.29920
 Alpha  occ. eigenvalues --   -0.28983  -0.27926  -0.27541  -0.26549  -0.24655
 Alpha  occ. eigenvalues --   -0.24235  -0.23809  -0.22798  -0.22275  -0.22025
 Alpha  occ. eigenvalues --   -0.21230  -0.18988  -0.14055  -0.08683  -0.07627
 Alpha  occ. eigenvalues --    0.05083
 Alpha virt. eigenvalues --    0.07283   0.07721   0.07966   0.08683   0.09694
 Alpha virt. eigenvalues --    0.09985   0.10242   0.11158   0.11869   0.12171
 Alpha virt. eigenvalues --    0.12546   0.12735   0.13334   0.13990   0.14650

  Beta  occ. eigenvalues --  -19.02980 -14.19454 -14.15973 -10.11790 -10.10949
  Beta  occ. eigenvalues --  -10.07493 -10.07385 -10.06176 -10.04823 -10.04760
  Beta  occ. eigenvalues --  -10.04311 -10.03184 -10.02865  -0.94365  -0.79398
  Beta  occ. eigenvalues --   -0.77745  -0.69439  -0.65606  -0.60885  -0.59919
  Beta  occ. eigenvalues --   -0.57376  -0.54479  -0.51098  -0.48076  -0.45117
  Beta  occ. eigenvalues --   -0.41715  -0.40324  -0.38157  -0.36024  -0.35030
  Beta  occ. eigenvalues --   -0.33842  -0.32932  -0.32009  -0.30948  -0.29864
  Beta  occ. eigenvalues --   -0.28928  -0.27861  -0.27494  -0.26458  -0.24596
  Beta  occ. eigenvalues --   -0.24043  -0.23658  -0.22635  -0.22233  -0.21644
  Beta  occ. eigenvalues --   -0.21081  -0.18082  -0.13926  -0.08376  -0.07268
  Beta virt. eigenvalues --    0.07325   0.07729   0.08667   0.09088   0.09440
  Beta virt. eigenvalues --    0.09776   0.10302   0.10450   0.11148   0.12036
  Beta virt. eigenvalues --    0.12257   0.12569   0.12874   0.13519   0.13957

 Mulliken charges and spin densities:
               1          2
     1  C   -0.349052  -0.474775
     2  C    0.425700  -0.023781
     3  C   -1.043946   0.164732
     4  N    0.054772   0.084981
     5  C   -0.919010   0.442722
     6  C    1.028200  -0.147072
     7  C    0.381665  -0.795728
     8  N   -0.300411   0.009896
     9  C    0.223198  -0.235024
    10  C   -0.224931  -0.297130
    11  C   -0.030278  -0.625585
    12  O   -0.070045   0.009556
    13  C   -0.067371  -0.115326
    14  H    0.056340   0.093707
    15  H    0.133783   0.045558
    16  H    0.042820   0.068174
    17  H    0.003460   0.167129
    18  H    0.165595   0.006254
    19  H   -1.110069   1.273276
    20  H   -0.274059   0.536102
    21  H    0.395512  -0.065052
    22  H   -0.013821   0.179531
    23  H    0.103453   0.040925
    24  H    0.037612   0.086829
    25  H    0.095486   0.026678
    26  H   -0.105277   0.226893
    27  H    0.037488   0.080428
    28  H    0.079046   0.067031
    29  H    0.095323   0.041272
    30  H    0.043475   0.078335
    31  H    0.105342   0.049466
 Sum of Mulliken charges =  -1.00000   1.00000

 Dipole moment (field-independent basis, Debye):
    X=             -1.7113    Y=              1.0833    Z=              4.8288  Tot=              5.2364
 Quadrupole moment (field-independent basis, Debye-Ang):
   XX=           -122.1558   YY=           -108.8710   ZZ=           -122.6782
   XY=              4.2622   XZ=              2.9577   YZ=             -4.5932

 Summary of Natural Population Analysis:

                                       Natural Population
                Natural  -----------------------------------------------
    Atom  No    Charge         Core      Valence    Rydberg      Total
 -----------------------------------------------------------------------
      C    1   -0.29831      0.99966     2.29224    0.00641     3.29831
      C    2   -0.14982      0.99947     2.14039    0.00996     3.14982
      C    3    0.22365      0.99935     1.75843    0.01857     2.77635
      N    4   -0.25857      0.99963     2.74682    0.01211     3.75857
      C    5    0.10771      0.99956     1.87766    0.01507     2.89229
      C    6   -0.13761      0.99947     2.12378    0.01436     3.13761
      C    7    0.08761      0.99948     1.89838    0.01453     2.91239
      N    8   -0.37731      0.99972     2.86673    0.01086     3.87731
      C    9   -0.10957      0.99959     2.09851    0.01147     3.10957
      C   10   -0.28354      0.99965     2.27779    0.00609     3.28354
      C   11   -0.28211      0.99965     2.27780    0.00467     3.28211
      O   12   -0.29697      0.99986     3.28821    0.00890     4.29697
      C   13   -0.09867      0.99960     2.09070    0.00838     3.09867
      H   14    0.10229      0.00000     0.39648    0.00123     0.39771
      H   15    0.10421      0.00000     0.39475    0.00103     0.39579
      H   16    0.09226      0.00000     0.40696    0.00078     0.40774
      H   17    0.09607      0.00000     0.40273    0.00121     0.40393
      H   18    0.07340      0.00000     0.42483    0.00178     0.42660
      H   19    0.08833      0.00000     0.40802    0.00365     0.41167
      H   20    0.19076      0.00000     0.30542    0.00382     0.30924
      H   21    0.19983      0.00000     0.29704    0.00313     0.30017
      H   22    0.09483      0.00000     0.40293    0.00224     0.40517
      H   23    0.09475      0.00000     0.40441    0.00084     0.40525
      H   24    0.09211      0.00000     0.40714    0.00075     0.40789
      H   25    0.10190      0.00000     0.39714    0.00095     0.39810
      H   26    0.09306      0.00000     0.40589    0.00106     0.40694
      H   27    0.09333      0.00000     0.40573    0.00094     0.40667
      H   28    0.10056      0.00000     0.39849    0.00095     0.39944
      H   29    0.08120      0.00000     0.41753    0.00127     0.41880
      H   30    0.08332      0.00000     0.41558    0.00110     0.41668
      H   31    0.09127      0.00000     0.40722    0.00150     0.40873
 =======================================================================
   * Total *   -0.00000     12.99468    36.83573    0.16959    50.00000

 Normal termination of Gaussian 16 at Sun Dec 13 13:03:08 2020.
