 Gaussian 16, Revision A.03,

 -----------------------------------------------------------
 # opt freq B3LYP/6-31G(d) empiricaldispersion=gd3bj scf=xqc
 -----------------------------------------------------------

 -------------------------------
 CID_137512608_JID_9482_neutraal
 -------------------------------
 Symbolic Z-matrix:
 Charge =  0 Multiplicity = 1

 SCF Done:  E(RB3LYP) =  -940.223326870     A.U. after   14 cycles
 SCF Done:  E(RB3LYP) =  -940.223554961     A.U. after   13 cycles
 SCF Done:  E(RB3LYP) =  -940.229509072     A.U. after   12 cycles
 SCF Done:  E(RB3LYP) =  -940.229793380     A.U. after   12 cycles
 SCF Done:  E(RB3LYP) =  -940.230618165     A.U. after   11 cycles
 SCF Done:  E(RB3LYP) =  -940.230980236     A.U. after   12 cycles
 SCF Done:  E(RB3LYP) =  -940.230907169     A.U. after   13 cycles
 SCF Done:  E(RB3LYP) =  -940.231334976     A.U. after   12 cycles
 SCF Done:  E(RB3LYP) =  -940.231475269     A.U. after   12 cycles
 SCF Done:  E(RB3LYP) =  -940.231555748     A.U. after   10 cycles
 SCF Done:  E(RB3LYP) =  -940.231760331     A.U. after    9 cycles
 SCF Done:  E(RB3LYP) =  -940.231760758     A.U. after    9 cycles
 SCF Done:  E(RB3LYP) =  -940.231760936     A.U. after    7 cycles
 SCF Done:  E(RB3LYP) =  -940.231760977     A.U. after    7 cycles
 Optimization completed.
    -- Stationary point found.
 Normal termination of Gaussian 16 at Mon Dec 14 17:05:58 2020.

 --------------------------------------------------------------------
 #N Geom=AllCheck Guess=TCheck SCRF=Check GenChk RB3LYP/6-31G(d) Freq
 --------------------------------------------------------------------

 Structure from the checkpoint file:  "JID_9482.chk"
 -------------------------------
 CID_137512608_JID_9482_neutraal
 -------------------------------
 Charge =  0 Multiplicity = 1

 SCF Done:  E(RB3LYP) =  -940.231760977     A.U. after    1 cycles

  Exact polarizability: 179.919  -4.510 152.358   5.821  -5.757 136.255
 Approx polarizability: 217.649 -14.441 226.730  13.671 -29.494 209.540

                      1                      2                      3
                      A                      A                      A
 Frequencies --     13.3357                27.9191                36.6036
 Red. masses --      4.1658                 4.7364                 3.9746
 Frc consts  --      0.0004                 0.0022                 0.0031
 IR Inten    --      0.8527                 0.2179                 0.8156

                      4                      5                      6
                      A                      A                      A
 Frequencies --     51.2379                59.2606                68.9783
 Red. masses --      3.3730                 3.4295                 3.9738
 Frc consts  --      0.0052                 0.0071                 0.0111
 IR Inten    --      0.0551                 0.4195                 1.5239

                      7                      8                      9
                      A                      A                      A
 Frequencies --     76.7196                81.1938                84.1706
 Red. masses --      4.6479                 2.9706                 3.3644
 Frc consts  --      0.0161                 0.0115                 0.0140
 IR Inten    --      0.8838                 2.0084                 3.6853

                     10                     11                     12
                      A                      A                      A
 Frequencies --    108.4540               121.0141               146.9243
 Red. masses --      4.3412                 3.2264                 5.4014
 Frc consts  --      0.0301                 0.0278                 0.0687
 IR Inten    --      1.1932                 0.3745                 0.2236

                     13                     14                     15
                      A                      A                      A
 Frequencies --    161.0336               165.2499               206.3410
 Red. masses --      2.7364                 2.9846                 2.1192
 Frc consts  --      0.0418                 0.0480                 0.0532
 IR Inten    --      0.4065                 0.5454                 3.0960

                     16                     17                     18
                      A                      A                      A
 Frequencies --    216.8178               227.5800               233.5984
 Red. masses --      1.3400                 1.4257                 1.5955
 Frc consts  --      0.0371                 0.0435                 0.0513
 IR Inten    --      0.6926                 1.5264                 4.0666

                     19                     20                     21
                      A                      A                      A
 Frequencies --    253.7540               266.7173               287.6893
 Red. masses --      1.3319                 2.0195                 2.1867
 Frc consts  --      0.0505                 0.0846                 0.1066
 IR Inten    --      1.1248                 2.6411                 0.4277

                     22                     23                     24
                      A                      A                      A
 Frequencies --    313.7356               345.9667               376.9636
 Red. masses --      2.2273                 2.9253                 3.9734
 Frc consts  --      0.1292                 0.2063                 0.3327
 IR Inten    --      9.5553                14.0888                16.8428

                     25                     26                     27
                      A                      A                      A
 Frequencies --    380.8274               409.7708               433.4968
 Red. masses --      3.4877                 2.9525                 4.2489
 Frc consts  --      0.2980                 0.2921                 0.4704
 IR Inten    --      2.6506                 0.6528                 0.2405

                     28                     29                     30
                      A                      A                      A
 Frequencies --    452.1992               474.7043               497.8941
 Red. masses --      3.8362                 2.7984                 4.3975
 Frc consts  --      0.4622                 0.3715                 0.6423
 IR Inten    --      9.5658                 6.0279                 4.2500

                     31                     32                     33
                      A                      A                      A
 Frequencies --    543.5667               566.5631               601.6080
 Red. masses --      3.5231                 3.9161                 3.3784
 Frc consts  --      0.6133                 0.7406                 0.7204
 IR Inten    --      7.5934                13.3695                29.6659

                     34                     35                     36
                      A                      A                      A
 Frequencies --    647.1818               666.9145               746.8492
 Red. masses --      3.7731                 4.0944                 1.5037
 Frc consts  --      0.9311                 1.0730                 0.4942
 IR Inten    --      7.2402                 5.8450                54.8801

                     37                     38                     39
                      A                      A                      A
 Frequencies --    766.1420               780.0991               788.6879
 Red. masses --      1.7529                 2.0058                 1.6063
 Frc consts  --      0.6062                 0.7192                 0.5887
 IR Inten    --     37.9459                 8.3726                 5.7509

                     40                     41                     42
                      A                      A                      A
 Frequencies --    809.0885               823.4270               859.9150
 Red. masses --      1.5041                 1.9861                 2.2361
 Frc consts  --      0.5801                 0.7934                 0.9742
 IR Inten    --      5.3033                 6.3617                 5.5330

                     43                     44                     45
                      A                      A                      A
 Frequencies --    863.6648               878.3004               887.2957
 Red. masses --      2.2444                 2.4856                 3.5406
 Frc consts  --      0.9864                 1.1297                 1.6423
 IR Inten    --      6.7002                 4.4001                 7.9619

                     46                     47                     48
                      A                      A                      A
 Frequencies --    931.2267               946.4962               962.8160
 Red. masses --      2.1964                 2.7292                 2.1416
 Frc consts  --      1.1222                 1.4406                 1.1697
 IR Inten    --      4.1488                 2.7400                20.4159

                     49                     50                     51
                      A                      A                      A
 Frequencies --    971.3560               990.0919              1044.4990
 Red. masses --      1.7710                 2.1089                 1.9005
 Frc consts  --      0.9845                 1.2180                 1.2216
 IR Inten    --     16.6151                 1.5985                 1.8300

                     52                     53                     54
                      A                      A                      A
 Frequencies --   1052.2811              1062.7819              1085.3789
 Red. masses --      3.5539                 3.7793                 2.3547
 Frc consts  --      2.3186                 2.5150                 1.6344
 IR Inten    --     54.2239                43.3644                50.8438

                     55                     56                     57
                      A                      A                      A
 Frequencies --   1109.7837              1131.9820              1132.8655
 Red. masses --      1.6968                 1.9611                 1.9636
 Frc consts  --      1.2313                 1.4806                 1.4847
 IR Inten    --      5.3243                37.4617                14.1145

                     58                     59                     60
                      A                      A                      A
 Frequencies --   1144.5610              1167.7502              1168.8857
 Red. masses --      2.3984                 1.7990                 1.6164
 Frc consts  --      1.8512                 1.4453                 1.3012
 IR Inten    --     24.0918                65.2767                27.7398

                     61                     62                     63
                      A                      A                      A
 Frequencies --   1201.3349              1210.7660              1211.8408
 Red. masses --      2.6042                 1.7144                 1.9009
 Frc consts  --      2.2144                 1.4807                 1.6447
 IR Inten    --     25.9959                 3.7465                18.7881

                     64                     65                     66
                      A                      A                      A
 Frequencies --   1282.6787              1286.0264              1289.4761
 Red. masses --      1.7267                 1.7783                 2.9123
 Frc consts  --      1.6738                 1.7329                 2.8531
 IR Inten    --    264.7159               111.3770               298.3141

                     67                     68                     69
                      A                      A                      A
 Frequencies --   1304.3241              1310.6010              1341.3706
 Red. masses --      1.4242                 1.7346                 1.1533
 Frc consts  --      1.4276                 1.7555                 1.2226
 IR Inten    --     86.6259               103.3196                32.5129

                     70                     71                     72
                      A                      A                      A
 Frequencies --   1343.8262              1352.7821              1373.6959
 Red. masses --      1.1508                 1.2180                 1.3034
 Frc consts  --      1.2245                 1.3133                 1.4492
 IR Inten    --     28.0368                 1.6539                 8.3033

                     73                     74                     75
                      A                      A                      A
 Frequencies --   1386.1645              1399.7284              1416.2498
 Red. masses --      1.6782                 1.6069                 1.4579
 Frc consts  --      1.8999                 1.8549                 1.7229
 IR Inten    --     66.4010                28.4509                13.3095

                     76                     77                     78
                      A                      A                      A
 Frequencies --   1421.0591              1423.7217              1440.4665
 Red. masses --      1.3276                 1.5739                 1.2497
 Frc consts  --      1.5796                 1.8797                 1.5278
 IR Inten    --      9.5435                42.1324                11.0152

                     79                     80                     81
                      A                      A                      A
 Frequencies --   1443.7685              1444.7267              1453.6885
 Red. masses --      1.3480                 1.3332                 1.2409
 Frc consts  --      1.6555                 1.6396                 1.5450
 IR Inten    --      3.8020                 9.3688                 7.8309

                     82                     83                     84
                      A                      A                      A
 Frequencies --   1496.5816              1509.9033              1515.5323
 Red. masses --      1.1048                 1.2379                 1.0479
 Frc consts  --      1.4579                 1.6627                 1.4181
 IR Inten    --     11.4006                56.1430                 6.0762

                     85                     86                     87
                      A                      A                      A
 Frequencies --   1516.0705              1518.3476              1519.1861
 Red. masses --      1.0538                 1.0596                 1.0802
 Frc consts  --      1.4271                 1.4393                 1.4689
 IR Inten    --     12.1140                 3.0283                 6.4252

                     88                     89                     90
                      A                      A                      A
 Frequencies --   1520.4490              1527.4973              1532.0511
 Red. masses --      1.0869                 1.1100                 1.0655
 Frc consts  --      1.4804                 1.5259                 1.4735
 IR Inten    --      4.5048                 4.7873                 8.2993

                     91                     92                     93
                      A                      A                      A
 Frequencies --   1536.9055              1537.8465              1539.3797
 Red. masses --      1.0624                 1.0574                 1.1038
 Frc consts  --      1.4785                 1.4734                 1.5411
 IR Inten    --     13.1563                 3.7249                 0.1416

                     94                     95                     96
                      A                      A                      A
 Frequencies --   1543.1275              1780.4579              1791.6174
 Red. masses --      1.0763                11.0713                10.0981
 Frc consts  --      1.5101                20.6782                19.0976
 IR Inten    --     25.5994               403.7214               438.1565

                     97                     98                     99
                      A                      A                      A
 Frequencies --   1807.3964              3045.7284              3049.3697
 Red. masses --      8.7530                 1.0796                 1.0426
 Frc consts  --     16.8467                 5.9006                 5.7120
 IR Inten    --     22.6003                 3.2546                24.8071

                    100                    101                    102
                      A                      A                      A
 Frequencies --   3057.5126              3063.6198              3063.6470
 Red. masses --      1.0376                 1.0360                 1.0360
 Frc consts  --      5.7150                 5.7292                 5.7289
 IR Inten    --      4.9865                 2.7740                25.1536

                    103                    104                    105
                      A                      A                      A
 Frequencies --   3066.9514              3098.7416              3099.5342
 Red. masses --      1.0623                 1.0596                 1.0594
 Frc consts  --      5.8875                 5.9946                 5.9965
 IR Inten    --     32.7343                24.0111                25.3967

                    106                    107                    108
                      A                      A                      A
 Frequencies --   3101.4946              3107.5605              3113.2976
 Red. masses --      1.0961                 1.0593                 1.1017
 Frc consts  --      6.2119                 6.0274                 6.2913
 IR Inten    --     17.5060                 3.5947                43.9681

                    109                    110                    111
                      A                      A                      A
 Frequencies --   3126.9589              3130.1794              3130.8009
 Red. masses --      1.1016                 1.1015                 1.1020
 Frc consts  --      6.3460                 6.3585                 6.3639
 IR Inten    --     27.1007                24.3226                23.3241

                    112                    113                    114
                      A                      A                      A
 Frequencies --   3132.8420              3141.2521              3141.7942
 Red. masses --      1.1004                 1.1040                 1.1003
 Frc consts  --      6.3631                 6.4182                 6.3990
 IR Inten    --     28.1961                 6.8894                15.4667

                    115                    116                    117
                      A                      A                      A
 Frequencies --   3143.6627              3161.8506              3163.1368
 Red. masses --      1.1042                 1.0881                 1.1085
 Frc consts  --      6.4295                 6.4092                 6.5347
 IR Inten    --      5.5041                 3.5464                26.1714

                    118                    119                    120
                      A                      A                      A
 Frequencies --   3163.3257              3169.0839              3544.6670
 Red. masses --      1.1082                 1.1049                 1.0760
 Frc consts  --      6.5334                 6.5380                 7.9654
 IR Inten    --     25.3183                 5.4941               104.3062

 - Thermochemistry -
 -------------------
 Temperature   298.150 Kelvin.  Pressure   1.00000 Atm.
 Atom     1 has atomic number  6 and mass  12.00000

 Molecular mass:   273.15762 amu.
 Principal axes and moments of inertia in atomic units:
                           1         2         3
     Eigenvalues --  3128.023678794.949599719.30371
           X            0.99996   0.00901   0.00212
           Y           -0.00912   0.99844   0.05512
           Z           -0.00162  -0.05513   0.99848
 This molecule is an asymmetric top.
 Rotational symmetry number  1.
 Warning -- assumption of classical behavior for rotation
           may cause significant error
 Rotational temperatures (Kelvin)      0.02769     0.00985     0.00891
 Rotational constants (GHZ):           0.57696     0.20520     0.18569
 Zero-point vibrational energy     952585.6 (Joules/Mol)
                                  227.67341 (Kcal/Mol)
 Warning -- explicit consideration of  33 degrees of freedom as
           vibrations may cause significant error
 Vibrational temperatures:     19.19    40.17    52.66    73.72    85.26
          (Kelvin)             99.24   110.38   116.82   121.10   156.04
                              174.11   211.39   231.69   237.76   296.88
                              311.95   327.44   336.10   365.10   383.75
                              413.92   451.40   497.77   542.37   547.93
                              589.57   623.71   650.61   682.99   716.36
                              782.07   815.16   865.58   931.15   959.54
                             1074.55  1102.31  1122.39  1134.75  1164.10
                             1184.73  1237.23  1242.62  1263.68  1276.62
                             1339.83  1361.80  1385.28  1397.56  1424.52
                             1502.80  1514.00  1529.11  1561.62  1596.73
                             1628.67  1629.94  1646.77  1680.13  1681.77
                             1728.45  1742.02  1743.57  1845.49  1850.31
                             1855.27  1876.63  1885.66  1929.93  1933.47
                             1946.35  1976.44  1994.38  2013.90  2037.67
                             2044.59  2048.42  2072.51  2077.26  2078.64
                             2091.53  2153.25  2172.41  2180.51  2181.29
                             2184.56  2185.77  2187.59  2197.73  2204.28
                             2211.26  2212.62  2214.82  2220.22  2561.68
                             2577.74  2600.44  4382.12  4387.36  4399.08
                             4407.87  4407.90  4412.66  4458.40  4459.54
                             4462.36  4471.09  4479.34  4499.00  4503.63
                             4504.52  4507.46  4519.56  4520.34  4523.03
                             4549.20  4551.05  4551.32  4559.60  5099.99

 Zero-point correction=                           0.362821 (Hartree/Particle)
 Thermal correction to Energy=                    0.384867
 Thermal correction to Enthalpy=                  0.385811
 Thermal correction to Gibbs Free Energy=         0.308909
 Sum of electronic and zero-point Energies=           -939.868940
 Sum of electronic and thermal Energies=              -939.846894
 Sum of electronic and thermal Enthalpies=            -939.845950
 Sum of electronic and thermal Free Energies=         -939.922852

                     E (Thermal)             CV                S
                      KCal/Mol        Cal/Mol-Kelvin    Cal/Mol-Kelvin
 Total                  241.507             78.599            161.854
 Electronic               0.000              0.000              0.000
 Translational            0.889              2.981             42.713
 Rotational               0.889              2.981             33.947
 Vibrational            239.730             72.637             85.194
 Vibration     1          0.593              1.987              7.439
 Vibration     2          0.593              1.984              5.972
 Vibration     3          0.594              1.982              5.435
 Vibration     4          0.596              1.977              4.769
 Vibration     5          0.597              1.974              4.482
 Vibration     6          0.598              1.969              4.182
 Vibration     7          0.599              1.965              3.973
 Vibration     8          0.600              1.962              3.862
 Vibration     9          0.601              1.960              3.791
 Vibration    10          0.606              1.942              3.296
 Vibration    11          0.609              1.932              3.084
 Vibration    12          0.617              1.906              2.712
 Vibration    13          0.622              1.890              2.538
 Vibration    14          0.624              1.885              2.489
 Vibration    15          0.641              1.831              2.076
 Vibration    16          0.646              1.815              1.986
 Vibration    17          0.651              1.799              1.898
 Vibration    18          0.654              1.789              1.851
 Vibration    19          0.665              1.756              1.704
 Vibration    20          0.672              1.734              1.617
 Vibration    21          0.685              1.697              1.488
 Vibration    22          0.702              1.647              1.343
 Vibration    23          0.724              1.583              1.184
 Vibration    24          0.748              1.519              1.051
 Vibration    25          0.751              1.511              1.036
 Vibration    26          0.774              1.449              0.927
 Vibration    27          0.794              1.397              0.847
 Vibration    28          0.811              1.356              0.789
 Vibration    29          0.831              1.306              0.724
 Vibration    30          0.853              1.255              0.663
 Vibration    31          0.899              1.154              0.558
 Vibration    32          0.922              1.104              0.511
 Vibration    33          0.960              1.028              0.447

                           ! Non-Optimized Parameters !
 Normal termination of Gaussian 16 at Mon Dec 14 17:30:15 2020.

 ----------------------------------------------------------------------
 # B3LYP/6-311++G(d,p) empiricaldispersion=gd3bj scf=xqc pop=npa geom=c
 heck
 ----------------------------------------------------------------------

 ---------------------------------------
 CID_137512608_JID_9482_Energie_neutraal
 ---------------------------------------
 Structure from the checkpoint file:  "JID_9482.chk"
 Charge =  0 Multiplicity = 1

 SCF Done:  E(RB3LYP) =  -940.510629112     A.U. after   16 cycles
 Normal termination of Gaussian 16 at Mon Dec 14 17:42:22 2020.

 ----------------------------------------------------------------------
 # B3LYP/6-311++G(d,p) empiricaldispersion=gd3bj scf=xqc pop=npa geom=c
 heck
 ----------------------------------------------------------------------

 -------------------------------------
 CID_137512608_JID_9482_Energie_kation
 -------------------------------------
 Structure from the checkpoint file:  "JID_9482.chk"
 Charge =  1 Multiplicity = 2

 SCF Done:  E(UB3LYP) =  -940.185697437     A.U. after   33 cycles
 SCF Done:  E(UB3LYP) =  -940.185697437     a.u. after    1 cycles
 Normal termination of Gaussian 16 at Mon Dec 14 18:18:56 2020.
 Gaussian 16:  ES64L-G16RevA.03 25-Dec-2016

 ----------------------------------------------------------------------
 # B3LYP/6-311++G(d,p) empiricaldispersion=gd3bj scf=xqc pop=npa geom=c
 heck
 ----------------------------------------------------------------------

 ------------------------------------
 CID_137512608_JID_9482_Energie_anion
 ------------------------------------
 Structure from the checkpoint file:  "JID_9482.chk"
 Charge = -1 Multiplicity = 2

                         Standard orientation:
 ---------------------------------------------------------------------
 Center     Atomic      Atomic             Coordinates (Angstroms)
 Number     Number       Type             X           Y           Z
 ---------------------------------------------------------------------
      1          6           0        0.118155   -2.773256    1.089240
      2          6           0        1.357828   -1.877795    0.995263
      3          6           0        1.116888   -0.602576    0.170527
      4          6           0        0.199321    0.431300    0.888017
      5          6           0        0.909408    1.172929    2.029378
      6          7           0       -0.332461    1.365437   -0.103226
      7          6           0       -1.536183    2.008937   -0.098794
      8          8           0       -1.786959    2.931185   -0.859600
      9          6           0       -2.600252    1.483068    0.884910
     10          6           0       -3.048647    0.083723    0.516903
     11          8           0       -2.816775   -0.917149    1.168466
     12          8           0       -3.709946    0.086657   -0.652006
     13          6           0       -4.065754   -1.207973   -1.195264
     14          6           0       -2.877972   -1.837995   -1.904863
     15          6           0        2.381734    0.110851   -0.291162
     16          8           0        2.368647    1.088389   -1.020102
     17          8           0        3.509445   -0.417767    0.211311
     18          6           0        4.753327    0.221201   -0.173487
     19          6           0        5.225014   -0.272744   -1.530686
     20          1           0       -0.737398   -2.270654    1.549065
     21          1           0        0.338063   -3.668969    1.680113
     22          1           0       -0.195997   -3.105050    0.091647
     23          1           0        1.711320   -1.611221    1.998208
     24          1           0        2.174957   -2.440582    0.533827
     25          1           0        0.590871   -0.879004   -0.753024
     26          1           0       -0.636045   -0.132992    1.299936
     27          1           0        1.712741    1.807815    1.641232
     28          1           0        0.200271    1.819638    2.555776
     29          1           0        1.335928    0.474775    2.757161
     30          1           0        0.358115    1.763841   -0.734275
     31          1           0       -2.232538    1.462592    1.913289
     32          1           0       -3.440343    2.174446    0.807219
     33          1           0       -4.431324   -1.842835   -0.384826
     34          1           0       -4.881829   -0.991494   -1.887325
     35          1           0       -2.082817   -2.066149   -1.189843
     36          1           0       -3.184269   -2.772033   -2.388910
     37          1           0       -2.484859   -1.161825   -2.670389
     38          1           0        4.603886    1.303207   -0.172948
     39          1           0        5.448987   -0.053672    0.622116
     40          1           0        4.520839    0.024327   -2.312102
     41          1           0        6.203091    0.162283   -1.764271
     42          1           0        5.323074   -1.363047   -1.533537
 ---------------------------------------------------------------------

 SCF Done:  E(UB3LYP) =  -940.500392757     A.U. after   33 cycles
 SCF Done:  E(UB3LYP) =  -940.500392757     a.u. after    1 cycles

 The electronic state is 2-A.
 Alpha  occ. eigenvalues --  -19.09396 -19.08518 -19.04068 -19.02833 -19.00750
 Alpha  occ. eigenvalues --  -14.24926 -10.23360 -10.21791 -10.19879 -10.15048
 Alpha  occ. eigenvalues --  -10.14069 -10.14011 -10.11707 -10.10940 -10.08685
 Alpha  occ. eigenvalues --  -10.08395 -10.08359 -10.07727 -10.06950  -1.03638
 Alpha  occ. eigenvalues --   -1.02589  -0.95895  -0.94931  -0.93797  -0.84661
 Alpha  occ. eigenvalues --   -0.73783  -0.71619  -0.68565  -0.67571  -0.66715
 Alpha  occ. eigenvalues --   -0.62391  -0.58193  -0.57634  -0.54915  -0.51661
 Alpha  occ. eigenvalues --   -0.50990  -0.48082  -0.46992  -0.44937  -0.42934
 Alpha  occ. eigenvalues --   -0.42348  -0.41731  -0.41078  -0.39977  -0.38955
 Alpha  occ. eigenvalues --   -0.37908  -0.36754  -0.36417  -0.35657  -0.35042
 Alpha  occ. eigenvalues --   -0.34772  -0.33670  -0.33369  -0.31968  -0.31820
 Alpha  occ. eigenvalues --   -0.31278  -0.31103  -0.30525  -0.30166  -0.29218
 Alpha  occ. eigenvalues --   -0.29130  -0.28570  -0.28046  -0.27142  -0.26814
 Alpha  occ. eigenvalues --   -0.26067  -0.25284  -0.24764  -0.23265  -0.22365
 Alpha  occ. eigenvalues --   -0.21442  -0.19540  -0.17901  -0.17202   0.03786
 Alpha virt. eigenvalues --    0.05161   0.05731   0.06431   0.06872   0.07281
 Alpha virt. eigenvalues --    0.07831   0.07948   0.08451   0.08878   0.09084
 Alpha virt. eigenvalues --    0.09456   0.09759   0.10171   0.10712   0.11087

  Beta  occ. eigenvalues --  -19.09396 -19.08517 -19.04053 -19.02809 -19.00749
  Beta  occ. eigenvalues --  -14.24924 -10.23343 -10.21750 -10.19876 -10.15032
  Beta  occ. eigenvalues --  -10.14043 -10.14006 -10.11701 -10.10938 -10.08665
  Beta  occ. eigenvalues --  -10.08380 -10.08328 -10.07690 -10.06928  -1.03622
  Beta  occ. eigenvalues --   -1.02554  -0.95892  -0.94913  -0.93763  -0.84655
  Beta  occ. eigenvalues --   -0.73756  -0.71593  -0.68520  -0.67543  -0.66689
  Beta  occ. eigenvalues --   -0.62347  -0.58142  -0.57576  -0.54869  -0.51631
  Beta  occ. eigenvalues --   -0.50939  -0.48048  -0.46940  -0.44922  -0.42908
  Beta  occ. eigenvalues --   -0.42299  -0.41703  -0.41040  -0.39931  -0.38915
  Beta  occ. eigenvalues --   -0.37863  -0.36721  -0.36387  -0.35637  -0.35015
  Beta  occ. eigenvalues --   -0.34743  -0.33644  -0.33349  -0.31935  -0.31772
  Beta  occ. eigenvalues --   -0.31245  -0.31075  -0.30480  -0.30106  -0.29192
  Beta  occ. eigenvalues --   -0.29094  -0.28538  -0.28019  -0.27103  -0.26791
  Beta  occ. eigenvalues --   -0.26036  -0.25248  -0.24742  -0.23240  -0.22311
  Beta  occ. eigenvalues --   -0.21429  -0.19514  -0.17895  -0.17192
  Beta virt. eigenvalues --    0.05665   0.05822   0.06345   0.06841   0.07331
  Beta virt. eigenvalues --    0.07685   0.08066   0.08303   0.08848   0.09123
  Beta virt. eigenvalues --    0.09471   0.09657   0.09953   0.10386   0.10916

 Mulliken charges and spin densities:
               1          2
     1  C    0.065440  -0.738273
     2  C    0.089086  -0.591972
     3  C    1.573854  -0.756252
     4  C   -0.615007  -0.066900
     5  C   -0.071973  -0.503967
     6  N   -0.039881   0.091137
     7  C   -0.004148  -0.094218
     8  O   -0.300495   0.005987
     9  C   -0.046576  -0.234330
    10  C   -0.110441  -0.001081
    11  O   -0.191390   0.015958
    12  O    0.039344   0.020458
    13  C    0.043934  -0.165767
    14  C   -0.232559  -0.194058
    15  C   -1.812613   1.125745
    16  O   -0.192892  -0.000699
    17  O    0.091313   0.023360
    18  C   -0.109678   0.057513
    19  C    0.833866  -1.212441
    20  H    0.046338   0.113863
    21  H   -0.281898   0.439315
    22  H   -0.245550   0.393491
    23  H    0.122617   0.045780
    24  H    0.084261   0.104234
    25  H   -0.029497   0.299415
    26  H    0.576272  -0.362463
    27  H    0.061273   0.141089
    28  H    0.140069   0.010669
    29  H   -0.189143   0.326723
    30  H    0.327366   0.019114
    31  H    0.043484   0.140186
    32  H    0.242447   0.016584
    33  H    0.052455   0.114533
    34  H   -0.185868   0.362665
    35  H    0.932887  -0.781855
    36  H   -0.666121   0.827222
    37  H    0.146864   0.016361
    38  H    0.170272  -0.015172
    39  H   -0.753317   0.937697
    40  H   -0.153012   0.322642
    41  H   -0.377811   0.533151
    42  H   -0.073571   0.214560
 Sum of Mulliken charges =  -1.00000   1.00000

 Dipole moment (field-independent basis, Debye):
    X=             -4.9998    Y=              2.4912    Z=              3.1329  Tot=              6.4046
 Quadrupole moment (field-independent basis, Debye-Ang):
   XX=           -223.3383   YY=           -174.0711   ZZ=           -157.6840
   XY=             -1.6093   XZ=             -8.1577   YZ=              5.0988

 Summary of Natural Population Analysis:

                                       Natural Population
                Natural  -----------------------------------------------
    Atom  No    Charge         Core      Valence    Rydberg      Total
 -----------------------------------------------------------------------
      C    1   -0.28898      0.99966     2.28407    0.00525     3.28898
      C    2   -0.19113      0.99962     2.18286    0.00865     3.19113
      C    3   -0.15371      0.99952     2.14235    0.01183     3.15371
      C    4   -0.01717      0.99957     2.00568    0.01192     3.01717
      C    5   -0.29278      0.99964     2.28711    0.00603     3.29278
      N    6   -0.32411      0.99965     2.81506    0.00941     3.82411
      C    7    0.34694      0.99968     1.63049    0.02289     2.65306
      O    8   -0.31497      0.99988     3.30924    0.00585     4.31497
      C    9   -0.27908      0.99954     2.27201    0.00753     3.27908
      C   10    0.41220      0.99970     1.56367    0.02444     2.58780
      O   11   -0.30901      0.99987     3.30355    0.00559     4.30901
      O   12   -0.27704      0.99986     3.26842    0.00876     4.27704
      C   13   -0.01704      0.99958     2.00576    0.01171     3.01704
      C   14   -0.30105      0.99966     2.29622    0.00517     3.30105
      C   15    0.42403      0.99965     1.55011    0.02622     2.57597
      O   16   -0.32159      0.99987     3.31652    0.00521     4.32159
      O   17   -0.27695      0.99986     3.26761    0.00948     4.27695
      C   18   -0.01596      0.99957     2.00478    0.01161     3.01596
      C   19   -0.29979      0.99966     2.29502    0.00510     3.29979
      H   20    0.10488      0.00000     0.39371    0.00142     0.39512
      H   21    0.10024      0.00000     0.39894    0.00081     0.39976
      H   22    0.09611      0.00000     0.40266    0.00124     0.40389
      H   23    0.09835      0.00000     0.40032    0.00132     0.40165
      H   24    0.10702      0.00000     0.39158    0.00139     0.39298
      H   25    0.11689      0.00000     0.38129    0.00182     0.38311
      H   26    0.11280      0.00000     0.38397    0.00323     0.38720
      H   27    0.10340      0.00000     0.39562    0.00099     0.39660
      H   28    0.10015      0.00000     0.39911    0.00073     0.39985
      H   29    0.10433      0.00000     0.39473    0.00094     0.39567
      H   30    0.21088      0.00000     0.28674    0.00238     0.28912
      H   31    0.11514      0.00000     0.38388    0.00098     0.38486
      H   32    0.12460      0.00000     0.37427    0.00113     0.37540
      H   33    0.09516      0.00000     0.40371    0.00113     0.40484
      H   34    0.09189      0.00000     0.40695    0.00115     0.40811
      H   35    0.10541      0.00000     0.39302    0.00157     0.39459
      H   36    0.10614      0.00000     0.39222    0.00164     0.39386
      H   37    0.10285      0.00000     0.39621    0.00094     0.39715
      H   38    0.09406      0.00000     0.40465    0.00129     0.40594
      H   39    0.09442      0.00000     0.40345    0.00213     0.40558
      H   40    0.10535      0.00000     0.39367    0.00098     0.39465
      H   41    0.10486      0.00000     0.39365    0.00149     0.39514
      H   42    0.10227      0.00000     0.39644    0.00129     0.39773
 =======================================================================
   * Total *    0.00000     18.99402    54.77130    0.23468    74.00000

 Normal termination of Gaussian 16 at Mon Dec 14 18:54:42 2020.
