 Gaussian 16, Revision A.03,

 -----------------------------------------------------------
 # opt freq B3LYP/6-31G(d) empiricaldispersion=gd3bj scf=xqc
 -----------------------------------------------------------

 -------------------------------
 CID_71974361_JID_10219_neutraal
 -------------------------------
 Symbolic Z-matrix:
 Charge =  0 Multiplicity = 1

 SCF Done:  E(RB3LYP) =  -892.697416696     A.U. after   15 cycles
 SCF Done:  E(RB3LYP) =  -892.703637125     A.U. after   13 cycles
 SCF Done:  E(RB3LYP) =  -892.701076614     A.U. after   14 cycles
 SCF Done:  E(RB3LYP) =  -892.706307645     A.U. after   13 cycles
 SCF Done:  E(RB3LYP) =  -892.707091905     A.U. after   13 cycles
 SCF Done:  E(RB3LYP) =  -892.709829525     A.U. after   13 cycles
 SCF Done:  E(RB3LYP) =  -892.710992488     A.U. after   13 cycles
 SCF Done:  E(RB3LYP) =  -892.711664201     A.U. after   13 cycles
 SCF Done:  E(RB3LYP) =  -892.712347259     A.U. after   13 cycles
 SCF Done:  E(RB3LYP) =  -892.712755024     A.U. after   13 cycles
 SCF Done:  E(RB3LYP) =  -892.713381425     A.U. after    9 cycles
 SCF Done:  E(RB3LYP) =  -892.713382092     A.U. after    8 cycles
 SCF Done:  E(RB3LYP) =  -892.713382222     A.U. after    7 cycles
 SCF Done:  E(RB3LYP) =  -892.713382231     A.U. after    7 cycles
 Optimization completed.
    -- Stationary point found.
 Normal termination of Gaussian 16 at Sat Dec 12 15:14:27 2020.

 --------------------------------------------------------------------
 #N Geom=AllCheck Guess=TCheck SCRF=Check GenChk RB3LYP/6-31G(d) Freq
 --------------------------------------------------------------------

 Structure from the checkpoint file:  "JID_10219.chk"
 -------------------------------
 CID_71974361_JID_10219_neutraal
 -------------------------------
 Charge =  0 Multiplicity = 1

 SCF Done:  E(RB3LYP) =  -892.713382231     A.U. after    1 cycles

  Exact polarizability: 188.337  25.629 138.354  -5.897  -1.886 162.435
 Approx polarizability: 278.143  56.489 210.662 -18.484  -4.750 293.587

                      1                      2                      3
                      A                      A                      A
 Frequencies --     28.2303                33.5806                49.5417
 Red. masses --      5.7801                 4.2323                 4.3619
 Frc consts  --      0.0027                 0.0028                 0.0063
 IR Inten    --      1.4038                 0.9605                 2.4189

                      4                      5                      6
                      A                      A                      A
 Frequencies --     75.0653                82.2498                90.1191
 Red. masses --      4.8515                 5.0502                 4.4252
 Frc consts  --      0.0161                 0.0201                 0.0212
 IR Inten    --      2.3968                 6.2856                 1.9631

                      7                      8                      9
                      A                      A                      A
 Frequencies --     93.4945               105.6047               113.1570
 Red. masses --      4.5043                 5.0468                 4.6420
 Frc consts  --      0.0232                 0.0332                 0.0350
 IR Inten    --      0.7047                 1.4545                 2.6288

                     10                     11                     12
                      A                      A                      A
 Frequencies --    144.5277               189.4650               245.1645
 Red. masses --      2.3023                 4.0291                 5.1512
 Frc consts  --      0.0283                 0.0852                 0.1824
 IR Inten    --      1.0621                 1.7150                 2.8423

                     13                     14                     15
                      A                      A                      A
 Frequencies --    271.9739               300.0338               321.9094
 Red. masses --      4.4519                 3.4457                 2.7669
 Frc consts  --      0.1940                 0.1828                 0.1689
 IR Inten    --      1.4220                 0.1042                 4.2627

                     16                     17                     18
                      A                      A                      A
 Frequencies --    348.7594               412.0352               420.1256
 Red. masses --      4.4016                 1.8721                 4.2072
 Frc consts  --      0.3154                 0.1873                 0.4375
 IR Inten    --      1.8113                 0.9072                 5.4934

                     19                     20                     21
                      A                      A                      A
 Frequencies --    427.8725               434.7843               495.3115
 Red. masses --      3.3127                 5.0543                 4.9588
 Frc consts  --      0.3573                 0.5629                 0.7168
 IR Inten    --      0.4632                 4.2263                 5.3775

                     22                     23                     24
                      A                      A                      A
 Frequencies --    559.2462               602.4903               632.6550
 Red. masses --      3.6351                 3.5128                 4.2195
 Frc consts  --      0.6699                 0.7513                 0.9951
 IR Inten    --     20.2250                11.7166                 0.6279

                     25                     26                     27
                      A                      A                      A
 Frequencies --    653.2601               656.2418               681.8380
 Red. masses --      2.8597                 4.3625                 5.1654
 Frc consts  --      0.7190                 1.1069                 1.4149
 IR Inten    --      6.1080                 5.1959                18.4308

                     28                     29                     30
                      A                      A                      A
 Frequencies --    717.9483               727.6086               745.4804
 Red. masses --      1.9043                 9.8146                 3.2161
 Frc consts  --      0.5783                 3.0614                 1.0530
 IR Inten    --     34.6958                 0.4427                 1.0875

                     31                     32                     33
                      A                      A                      A
 Frequencies --    772.0148               789.3890               803.4552
 Red. masses --      1.5909                 2.0735                 2.9645
 Frc consts  --      0.5587                 0.7613                 1.1275
 IR Inten    --      1.4730                10.8226                12.6583

                     34                     35                     36
                      A                      A                      A
 Frequencies --    809.6855               837.7037               859.2050
 Red. masses --      1.5810                 1.4289                 1.2427
 Frc consts  --      0.6107                 0.5908                 0.5405
 IR Inten    --      2.5785                12.6623                 0.6971

                     37                     38                     39
                      A                      A                      A
 Frequencies --    882.3362               908.0537               934.9728
 Red. masses --      1.8481                 2.1160                 1.3950
 Frc consts  --      0.8477                 1.0280                 0.7185
 IR Inten    --      8.1502                 1.1113                 1.2863

                     40                     41                     42
                      A                      A                      A
 Frequencies --    942.9525               961.6491               964.9618
 Red. masses --      2.3134                 2.7487                 2.3242
 Frc consts  --      1.2119                 1.4977                 1.2751
 IR Inten    --      1.1828                 6.6232                 0.6818

                     43                     44                     45
                      A                      A                      A
 Frequencies --    975.6328               985.3528               989.9701
 Red. masses --      1.4714                 1.5800                 4.1472
 Frc consts  --      0.8252                 0.9039                 2.3947
 IR Inten    --      2.7348                 2.0395                 2.5145

                     46                     47                     48
                      A                      A                      A
 Frequencies --   1001.0443              1002.5464              1025.8750
 Red. masses --      1.2916                 2.0489                 5.7638
 Frc consts  --      0.7626                 1.2133                 3.5739
 IR Inten    --      0.2637                 4.3631                 1.0529

                     49                     50                     51
                      A                      A                      A
 Frequencies --   1046.3078              1054.9908              1068.2324
 Red. masses --      8.1700                 2.5763                 2.1519
 Frc consts  --      5.2698                 1.6894                 1.4468
 IR Inten    --     10.3562                 2.5687                 2.3716

                     52                     53                     54
                      A                      A                      A
 Frequencies --   1088.4483              1111.5242              1120.8555
 Red. masses --      3.0111                 1.5429                 5.2254
 Frc consts  --      2.1018                 1.1231                 3.8678
 IR Inten    --      8.4894                 4.2903                23.6548

                     55                     56                     57
                      A                      A                      A
 Frequencies --   1129.1558              1171.0210              1185.6761
 Red. masses --      2.7225                 1.7539                 2.0684
 Frc consts  --      2.0451                 1.4171                 1.7132
 IR Inten    --      4.6455                21.6562                 6.7449

                     58                     59                     60
                      A                      A                      A
 Frequencies --   1195.0628              1206.4334              1208.6140
 Red. masses --      1.1005                 3.1626                 1.1744
 Frc consts  --      0.9261                 2.7121                 1.0108
 IR Inten    --      0.0009                14.6544                 0.4272

                     61                     62                     63
                      A                      A                      A
 Frequencies --   1217.2398              1241.1235              1274.3951
 Red. masses --      1.3151                 1.4304                 1.3471
 Frc consts  --      1.1480                 1.2982                 1.2890
 IR Inten    --      1.3935                 9.6997                 1.0999

                     64                     65                     66
                      A                      A                      A
 Frequencies --   1282.3204              1284.0513              1288.7494
 Red. masses --      1.2791                 1.5606                 1.8463
 Frc consts  --      1.2392                 1.5161                 1.8067
 IR Inten    --      3.8582                 9.2191                19.7131

                     67                     68                     69
                      A                      A                      A
 Frequencies --   1305.3507              1312.8557              1328.6782
 Red. masses --      1.3253                 1.6073                 2.9487
 Frc consts  --      1.3306                 1.6323                 3.0670
 IR Inten    --      3.8880                14.6237                78.3543

                     70                     71                     72
                      A                      A                      A
 Frequencies --   1339.7349              1344.1329              1363.1406
 Red. masses --      2.7773                 2.7848                 2.1716
 Frc consts  --      2.9371                 2.9643                 2.3774
 IR Inten    --      4.2430                40.3347                 0.7879

                     73                     74                     75
                      A                      A                      A
 Frequencies --   1371.9764              1382.5014              1419.5280
 Red. masses --      1.4378                 1.3889                 1.6013
 Frc consts  --      1.5945                 1.5640                 1.9012
 IR Inten    --      9.8915                 6.7464                21.0812

                     76                     77                     78
                      A                      A                      A
 Frequencies --   1438.1153              1473.6020              1494.2017
 Red. masses --      2.5781                 4.6038                 1.4163
 Frc consts  --      3.1415                 5.8902                 1.8630
 IR Inten    --     87.1354                 6.6464                 8.9958

                     79                     80                     81
                      A                      A                      A
 Frequencies --   1500.3541              1507.4840              1511.4577
 Red. masses --      2.0370                 1.1185                 1.0894
 Frc consts  --      2.7016                 1.4975                 1.4663
 IR Inten    --      3.1539                12.2818                 1.0656

                     82                     83                     84
                      A                      A                      A
 Frequencies --   1518.2467              1524.1016              1543.9045
 Red. masses --      1.0869                 2.7690                 1.1380
 Frc consts  --      1.4761                 3.7896                 1.5982
 IR Inten    --      4.5846                24.4677                 0.6667

                     85                     86                     87
                      A                      A                      A
 Frequencies --   1548.2149              1643.8784              1659.7647
 Red. masses --      2.3629                 5.7559                 5.6794
 Frc consts  --      3.3370                 9.1644                 9.2181
 IR Inten    --     52.4750                 5.2381                24.9423

                     88                     89                     90
                      A                      A                      A
 Frequencies --   1772.7894              3059.6526              3063.9251
 Red. masses --     10.3242                 1.0698                 1.0721
 Frc consts  --     19.1170                 5.9007                 5.9296
 IR Inten    --    328.8977                 8.7781                46.6866

                     91                     92                     93
                      A                      A                      A
 Frequencies --   3067.3599              3072.4383              3086.2245
 Red. masses --      1.0671                 1.0613                 1.0599
 Frc consts  --      5.9152                 5.9025                 5.9480
 IR Inten    --     43.2462                43.6807                14.4729

                     94                     95                     96
                      A                      A                      A
 Frequencies --   3108.6087              3111.4942              3123.5939
 Red. masses --      1.0596                 1.1054                 1.1087
 Frc consts  --      6.0326                 6.3053                 6.3732
 IR Inten    --      4.9892                23.8974                31.1768

                     97                     98                     99
                      A                      A                      A
 Frequencies --   3139.3349              3145.0836              3167.0132
 Red. masses --      1.1067                 1.1002                 1.1064
 Frc consts  --      6.4259                 6.4117                 6.5383
 IR Inten    --     21.6020                23.4820                 3.0024

                    100                    101                    102
                      A                      A                      A
 Frequencies --   3188.3548              3199.5901              3208.6558
 Red. masses --      1.0864                 1.0897                 1.0932
 Frc consts  --      6.5066                 6.5727                 6.6311
 IR Inten    --      2.7512                 5.9572                14.4352

                    103                    104                    105
                      A                      A                      A
 Frequencies --   3218.8347              3242.2587              3310.5765
 Red. masses --      1.0956                 1.0935                 1.1003
 Frc consts  --      6.6881                 6.7726                 7.1050
 IR Inten    --     15.2449                 0.9820                 0.7552

 - Thermochemistry -
 -------------------
 Temperature   298.150 Kelvin.  Pressure   1.00000 Atm.
 Atom     1 has atomic number  6 and mass  12.00000

 Molecular mass:   271.14331 amu.
 Principal axes and moments of inertia in atomic units:
                           1         2         3
     Eigenvalues --  3606.853676289.121967012.31352
           X            0.99963   0.01252   0.02430
           Y           -0.01191   0.99962  -0.02493
           Z           -0.02461   0.02463   0.99939
 This molecule is an asymmetric top.
 Rotational symmetry number  1.
 Warning -- assumption of classical behavior for rotation
           may cause significant error
 Rotational temperatures (Kelvin)      0.02401     0.01377     0.01235
 Rotational constants (GHZ):           0.50036     0.28696     0.25737
 Zero-point vibrational energy     802082.9 (Joules/Mol)
                                  191.70242 (Kcal/Mol)
 Warning -- explicit consideration of  23 degrees of freedom as
           vibrations may cause significant error
 Vibrational temperatures:     40.62    48.31    71.28   108.00   118.34
          (Kelvin)            129.66   134.52   151.94   162.81   207.94
                              272.60   352.74   391.31   431.68   463.16
                              501.79   592.83   604.47   615.61   625.56
                              712.64   804.63   866.85   910.25   939.90
                              944.19   981.01  1032.97  1046.87  1072.58
                             1110.76  1135.75  1155.99  1164.96  1205.27
                             1236.20  1269.48  1306.49  1345.22  1356.70
                             1383.60  1388.36  1403.72  1417.70  1424.35
                             1440.28  1442.44  1476.01  1505.40  1517.90
                             1536.95  1566.03  1599.24  1612.66  1624.60
                             1684.84  1705.92  1719.43  1735.79  1738.93
                             1751.34  1785.70  1833.57  1844.97  1847.46
                             1854.22  1878.11  1888.91  1911.67  1927.58
                             1933.91  1961.26  1973.97  1989.11  2042.38
                             2069.13  2120.18  2149.82  2158.67  2168.93
                             2174.65  2184.42  2192.84  2221.33  2227.54
                             2365.17  2388.03  2550.65  4402.16  4408.30
                             4413.25  4420.55  4440.39  4472.59  4476.75
                             4494.15  4516.80  4525.07  4556.63  4587.33
                             4603.50  4616.54  4631.19  4664.89  4763.18

 Zero-point correction=                           0.305497 (Hartree/Particle)
 Thermal correction to Energy=                    0.322760
 Thermal correction to Enthalpy=                  0.323704
 Thermal correction to Gibbs Free Energy=         0.258365
 Sum of electronic and zero-point Energies=           -892.407885
 Sum of electronic and thermal Energies=              -892.390623
 Sum of electronic and thermal Enthalpies=            -892.389678
 Sum of electronic and thermal Free Energies=         -892.455017

                     E (Thermal)             CV                S
                      KCal/Mol        Cal/Mol-Kelvin    Cal/Mol-Kelvin
 Total                  202.535             65.730            137.518
 Electronic               0.000              0.000              0.000
 Translational            0.889              2.981             42.691
 Rotational               0.889              2.981             33.430
 Vibrational            200.757             59.768             61.396
 Vibration     1          0.593              1.984              5.950
 Vibration     2          0.594              1.983              5.606
 Vibration     3          0.595              1.978              4.836
 Vibration     4          0.599              1.966              4.016
 Vibration     5          0.600              1.961              3.836
 Vibration     6          0.602              1.956              3.657
 Vibration     7          0.603              1.954              3.586
 Vibration     8          0.605              1.945              3.348
 Vibration     9          0.607              1.939              3.214
 Vibration    10          0.616              1.909              2.743
 Vibration    11          0.633              1.854              2.233
 Vibration    12          0.660              1.771              1.765
 Vibration    13          0.675              1.725              1.584
 Vibration    14          0.693              1.674              1.417
 Vibration    15          0.707              1.632              1.300
 Vibration    16          0.726              1.578              1.172
 Vibration    17          0.776              1.444              0.919
 Vibration    18          0.783              1.426              0.892
 Vibration    19          0.789              1.410              0.866
 Vibration    20          0.795              1.394              0.843
 Vibration    21          0.851              1.260              0.670
 Vibration    22          0.915              1.119              0.525
 Vibration    23          0.961              1.027              0.445

 Optimization completed.
    -- Stationary point found.
 Normal termination of Gaussian 16 at Sat Dec 12 15:37:41 2020.

 ----------------------------------------------------------------------
 # B3LYP/6-311++G(d,p) empiricaldispersion=gd3bj scf=xqc pop=npa geom=c
 heck
 ----------------------------------------------------------------------

 ---------------------------------------
 CID_71974361_JID_10219_Energie_neutraal
 ---------------------------------------
 Structure from the checkpoint file:  "JID_10219.chk"
 Charge =  0 Multiplicity = 1

 SCF Done:  E(RB3LYP) =  -892.948044574     A.U. after   16 cycles
 Normal termination of Gaussian 16 at Sat Dec 12 15:48:25 2020.

 ----------------------------------------------------------------------
 # B3LYP/6-311++G(d,p) empiricaldispersion=gd3bj scf=xqc pop=npa geom=c
 heck
 ----------------------------------------------------------------------

 -------------------------------------
 CID_71974361_JID_10219_Energie_kation
 -------------------------------------
 Structure from the checkpoint file:  "JID_10219.chk"
 Charge =  1 Multiplicity = 2

 SCF Done:  E(UB3LYP) =  -892.625803108     A.U. after   33 cycles
 SCF Done:  E(UB3LYP) =  -892.625803108     a.u. after    1 cycles
 Normal termination of Gaussian 16 at Sat Dec 12 16:19:10 2020.
 Gaussian 16:  ES64L-G16RevA.03 25-Dec-2016

 ----------------------------------------------------------------------
 # B3LYP/6-311++G(d,p) empiricaldispersion=gd3bj scf=xqc pop=npa geom=c
 heck
 ----------------------------------------------------------------------

 ------------------------------------
 CID_71974361_JID_10219_Energie_anion
 ------------------------------------
 Structure from the checkpoint file:  "JID_10219.chk"
 Charge = -1 Multiplicity = 2

                         Standard orientation:
 ---------------------------------------------------------------------
 Center     Atomic      Atomic             Coordinates (Angstroms)
 Number     Number       Type             X           Y           Z
 ---------------------------------------------------------------------
      1          6           0       -4.223002   -0.258609   -1.410710
      2          6           0       -4.137651    1.001916   -0.509608
      3          6           0       -2.602764    0.776272   -0.418011
      4          6           0       -2.830982   -0.689602   -0.877792
      5          6           0       -1.923408    1.006883    0.924569
      6          7           0       -0.591426    0.378546    1.004733
      7          6           0        0.522375    1.068373    0.428339
      8          6           0        0.699130    1.102836   -0.958296
      9          6           0        1.800274    1.763696   -1.499119
     10          6           0        2.724617    2.393145   -0.663225
     11          6           0        2.541753    2.368528    0.720363
     12          6           0        1.436860    1.714105    1.266165
     13          6           0       -0.477273   -0.823660    1.648949
     14          8           0       -1.396473   -1.364938    2.247970
     15          6           0        0.898749   -1.518876    1.639218
     16          7           0        1.491721   -1.644184    0.317996
     17          6           0        2.718088   -1.315803   -0.133662
     18          7           0        2.786125   -1.581848   -1.420969
     19          7           0        1.561875   -2.082614   -1.756080
     20          7           0        0.778328   -2.127247   -0.726035
     21          1           0       -4.189501    0.001976   -2.473747
     22          1           0       -5.061746   -0.941044   -1.245713
     23          1           0       -4.489947    1.954204   -0.917950
     24          1           0       -4.619934    0.836420    0.460759
     25          1           0       -2.095768    1.349079   -1.202950
     26          1           0       -2.911206   -1.359311   -0.016489
     27          1           0       -2.113361   -1.119256   -1.582470
     28          1           0       -1.802474    2.076395    1.130697
     29          1           0       -2.517470    0.562837    1.725565
     30          1           0        0.009313    0.565280   -1.597269
     31          1           0        1.949257    1.762869   -2.574119
     32          1           0        3.586852    2.897318   -1.089132
     33          1           0        3.253163    2.863947    1.374851
     34          1           0        1.271793    1.699920    2.339858
     35          1           0        1.612442   -0.978556    2.265648
     36          1           0        0.732310   -2.510515    2.061378
     37          1           0        3.491110   -0.875868    0.476739
 ---------------------------------------------------------------------

 SCF Done:  E(UB3LYP) =  -892.942188834     A.U. after   33 cycles
 SCF Done:  E(UB3LYP) =  -892.942303436     a.u. after   10 cycles

 The electronic state is 2-A.
 Alpha  occ. eigenvalues --  -19.00634 -14.31328 -14.27395 -14.26378 -14.26095
 Alpha  occ. eigenvalues --  -14.23525 -10.19382 -10.14417 -10.14406 -10.11678
 Alpha  occ. eigenvalues --  -10.11672 -10.09203 -10.09066 -10.08919 -10.08267
 Alpha  occ. eigenvalues --  -10.08211 -10.08176 -10.08109 -10.07732 -10.07720
 Alpha  occ. eigenvalues --   -1.03474  -0.96011  -0.86388  -0.85061  -0.78576
 Alpha  occ. eigenvalues --   -0.76861  -0.75725  -0.68102  -0.66008  -0.65715
 Alpha  occ. eigenvalues --   -0.63224  -0.57795  -0.56494  -0.55367  -0.53686
 Alpha  occ. eigenvalues --   -0.52984  -0.51946  -0.47294  -0.46822  -0.45672
 Alpha  occ. eigenvalues --   -0.43268  -0.40780  -0.40232  -0.40008  -0.39443
 Alpha  occ. eigenvalues --   -0.38832  -0.37538  -0.36302  -0.35197  -0.34845
 Alpha  occ. eigenvalues --   -0.33467  -0.33043  -0.32435  -0.30848  -0.30111
 Alpha  occ. eigenvalues --   -0.28587  -0.27894  -0.27449  -0.27091  -0.26348
 Alpha  occ. eigenvalues --   -0.25785  -0.24353  -0.22912  -0.22383  -0.21657
 Alpha  occ. eigenvalues --   -0.20312  -0.20069  -0.19094  -0.18258  -0.16879
 Alpha  occ. eigenvalues --   -0.16525  -0.15445   0.04110
 Alpha virt. eigenvalues --    0.05990   0.06090   0.06564   0.07516   0.07576
 Alpha virt. eigenvalues --    0.07764   0.08131   0.08606   0.08711   0.09379
 Alpha virt. eigenvalues --    0.10106   0.10336   0.10656   0.11044   0.11345

  Beta  occ. eigenvalues --  -19.00627 -14.31255 -14.27256 -14.26312 -14.26103
  Beta  occ. eigenvalues --  -14.23555 -10.19370 -10.14393 -10.14352 -10.11664
  Beta  occ. eigenvalues --  -10.11577 -10.09200 -10.09064 -10.08917 -10.08261
  Beta  occ. eigenvalues --  -10.08206 -10.08142 -10.08086 -10.07720 -10.07639
  Beta  occ. eigenvalues --   -1.03335  -0.95995  -0.86321  -0.84958  -0.78445
  Beta  occ. eigenvalues --   -0.76837  -0.75644  -0.68044  -0.65871  -0.65633
  Beta  occ. eigenvalues --   -0.63164  -0.57790  -0.56418  -0.55317  -0.53560
  Beta  occ. eigenvalues --   -0.52854  -0.51893  -0.47254  -0.46761  -0.45611
  Beta  occ. eigenvalues --   -0.43131  -0.40728  -0.40188  -0.39847  -0.39398
  Beta  occ. eigenvalues --   -0.38707  -0.37466  -0.36242  -0.35124  -0.34791
  Beta  occ. eigenvalues --   -0.33397  -0.32973  -0.32392  -0.30834  -0.30095
  Beta  occ. eigenvalues --   -0.28545  -0.27663  -0.27339  -0.27062  -0.26290
  Beta  occ. eigenvalues --   -0.25730  -0.24333  -0.22903  -0.22371  -0.21371
  Beta  occ. eigenvalues --   -0.19961  -0.19841  -0.19018  -0.18108  -0.16809
  Beta  occ. eigenvalues --   -0.16356  -0.15153
  Beta virt. eigenvalues --    0.05966   0.06816   0.07050   0.07325   0.07593
  Beta virt. eigenvalues --    0.07696   0.07935   0.08605   0.08971   0.09353
  Beta virt. eigenvalues --    0.09631   0.10517   0.10553   0.10997   0.11034

 Mulliken charges and spin densities:
               1          2
     1  C   -0.321786  -0.052178
     2  C   -0.290956  -0.224579
     3  C    0.484938   0.083948
     4  C   -0.356575  -0.015371
     5  C   -0.164065  -0.230886
     6  N    0.692935  -0.203300
     7  C   -0.938311   0.522573
     8  C   -0.503235   0.486422
     9  C   -0.730859   0.065563
    10  C    0.818136  -1.032886
    11  C    2.063059  -2.353104
    12  C   -0.938743   0.935362
    13  C   -0.153626   0.146669
    14  O   -0.277581   0.009800
    15  C    0.608333  -0.887208
    16  N    0.095525   0.138329
    17  C    0.400364  -0.577723
    18  N   -0.127395   0.055486
    19  N   -0.020912   0.035819
    20  N   -0.254984   0.086831
    21  H    0.099201   0.026985
    22  H    0.128630   0.015793
    23  H    0.079171   0.063271
    24  H    0.135395  -0.025625
    25  H    0.085380   0.059790
    26  H    0.193776   0.004405
    27  H    0.138887   0.001606
    28  H    0.043751   0.115200
    29  H    0.149654   0.064058
    30  H    0.188598  -0.003959
    31  H   -0.016578   0.198035
    32  H   -0.097466   0.253123
    33  H   -1.079924   1.288423
    34  H   -0.709169   0.883702
    35  H   -0.157030   0.350825
    36  H    0.017518   0.238200
    37  H   -0.284055   0.476604
 Sum of Mulliken charges =  -1.00000   1.00000

 Dipole moment (field-independent basis, Debye):
    X=             -8.0541    Y=             -0.2191    Z=             -2.6796  Tot=              8.4910
 Quadrupole moment (field-independent basis, Debye-Ang):
   XX=           -179.6982   YY=           -167.5851   ZZ=           -165.4738
   XY=            -11.3563   XZ=             -3.7201   YZ=            -12.5261

 Summary of Natural Population Analysis:

                                       Natural Population
                Natural  -----------------------------------------------
    Atom  No    Charge         Core      Valence    Rydberg      Total
 -----------------------------------------------------------------------
      C    1   -0.18973      0.99966     2.18283    0.00724     3.18973
      C    2   -0.18559      0.99964     2.17918    0.00678     3.18559
      C    3   -0.11740      0.99960     2.10756    0.01024     3.11740
      C    4   -0.19093      0.99963     2.18419    0.00711     3.19093
      C    5   -0.08245      0.99957     2.07230    0.01058     3.08245
      N    6   -0.25708      0.99960     2.74394    0.01354     3.75708
      C    7    0.07892      0.99944     1.90796    0.01367     2.92108
      C    8   -0.10747      0.99950     2.09744    0.01054     3.10747
      C    9   -0.09336      0.99956     2.08375    0.01005     3.09336
      C   10   -0.08461      0.99955     2.07491    0.01014     3.08461
      C   11   -0.09857      0.99955     2.08752    0.01150     3.09857
      C   12   -0.10395      0.99949     2.09290    0.01155     3.10395
      C   13    0.34895      0.99964     1.62844    0.02297     2.65105
      O   14   -0.32017      0.99988     3.31511    0.00518     4.32017
      C   15   -0.12298      0.99956     2.11202    0.01140     3.12298
      N   16   -0.11024      0.99965     2.59538    0.01521     3.61024
      C   17    0.11059      0.99962     1.87275    0.01704     2.88941
      N   18   -0.16954      0.99973     2.65641    0.01339     3.66954
      N   19   -0.04170      0.99981     2.52443    0.01746     3.54170
      N   20   -0.02893      0.99977     2.51333    0.01583     3.52893
      H   21    0.09404      0.00000     0.40465    0.00130     0.40596
      H   22    0.09351      0.00000     0.40541    0.00108     0.40649
      H   23    0.09496      0.00000     0.40409    0.00095     0.40504
      H   24    0.09429      0.00000     0.40458    0.00114     0.40571
      H   25    0.09932      0.00000     0.39892    0.00176     0.40068
      H   26    0.10531      0.00000     0.39361    0.00109     0.39469
      H   27    0.10455      0.00000     0.39448    0.00097     0.39545
      H   28    0.09981      0.00000     0.39935    0.00083     0.40019
      H   29    0.11050      0.00000     0.38821    0.00129     0.38950
      H   30    0.10886      0.00000     0.38911    0.00203     0.39114
      H   31    0.10251      0.00000     0.39666    0.00083     0.39749
      H   32    0.10093      0.00000     0.39813    0.00094     0.39907
      H   33    0.10681      0.00000     0.38935    0.00384     0.39319
      H   34    0.10683      0.00000     0.39088    0.00229     0.39317
      H   35    0.11684      0.00000     0.38146    0.00169     0.38316
      H   36    0.11753      0.00000     0.38122    0.00124     0.38247
      H   37    0.10963      0.00000     0.38850    0.00187     0.39037
 =======================================================================
   * Total *    0.00000     19.99245    51.74098    0.26657    72.00000

 Normal termination of Gaussian 16 at Sat Dec 12 21:10:20 2020.
