 Gaussian 16, Revision A.03,

 -----------------------------------------------------------
 # opt freq B3LYP/6-31G(d) empiricaldispersion=gd3bj scf=xqc
 -----------------------------------------------------------

 -------------------------------
 CID_65850198_JID_10204_neutraal
 -------------------------------
 Symbolic Z-matrix:
 Charge =  0 Multiplicity = 1

 SCF Done:  E(RB3LYP) =  -1294.95896374     A.U. after   15 cycles
 SCF Done:  E(RB3LYP) =  -1294.96235572     A.U. after   13 cycles
 SCF Done:  E(RB3LYP) =  -1294.96471052     A.U. after   13 cycles
 SCF Done:  E(RB3LYP) =  -1294.96597128     A.U. after   12 cycles
 SCF Done:  E(RB3LYP) =  -1294.96693859     A.U. after   12 cycles
 SCF Done:  E(RB3LYP) =  -1294.96733485     A.U. after   12 cycles
 SCF Done:  E(RB3LYP) =  -1294.96757526     A.U. after   12 cycles
 SCF Done:  E(RB3LYP) =  -1294.96774162     A.U. after   12 cycles
 SCF Done:  E(RB3LYP) =  -1294.96799827     A.U. after   11 cycles
 SCF Done:  E(RB3LYP) =  -1294.96871243     A.U. after   12 cycles
 SCF Done:  E(RB3LYP) =  -1294.96898026     A.U. after   10 cycles
 SCF Done:  E(RB3LYP) =  -1294.96898717     A.U. after   10 cycles
 SCF Done:  E(RB3LYP) =  -1294.96898947     A.U. after   10 cycles
 SCF Done:  E(RB3LYP) =  -1294.96898959     A.U. after    8 cycles
 SCF Done:  E(RB3LYP) =  -1294.96898976     A.U. after    8 cycles
 Optimization completed.
    -- Stationary point found.
 Normal termination of Gaussian 16 at Mon Dec 14 17:51:29 2020.

 --------------------------------------------------------------------
 #N Geom=AllCheck Guess=TCheck SCRF=Check GenChk RB3LYP/6-31G(d) Freq
 --------------------------------------------------------------------

 Structure from the checkpoint file:  "JID_10204.chk"
 -------------------------------
 CID_65850198_JID_10204_neutraal
 -------------------------------
 Charge =  0 Multiplicity = 1

 SCF Done:  E(RB3LYP) =  -1294.96898976     A.U. after    1 cycles

  Exact polarizability: 230.452  19.326 139.736  -5.754   6.304 159.599
 Approx polarizability: 294.127  38.222 208.486  -7.253  23.955 297.873

                      1                      2                      3
                      A                      A                      A
 Frequencies --     20.5572                23.4076                35.6889
 Red. masses --      4.4341                 4.8568                 5.3395
 Frc consts  --      0.0011                 0.0016                 0.0040
 IR Inten    --      0.1612                 0.6584                 4.8593

                      4                      5                      6
                      A                      A                      A
 Frequencies --     51.9191                71.1360                79.6095
 Red. masses --      1.9678                 4.4757                 5.2632
 Frc consts  --      0.0031                 0.0133                 0.0197
 IR Inten    --      0.0210                 3.6093                 6.1828

                      7                      8                      9
                      A                      A                      A
 Frequencies --    101.1008               120.3693               135.8816
 Red. masses --      3.6978                 4.3836                 7.4882
 Frc consts  --      0.0223                 0.0374                 0.0815
 IR Inten    --      1.4575                 0.9409                 4.0377

                     10                     11                     12
                      A                      A                      A
 Frequencies --    142.1284               184.4695               217.4040
 Red. masses --      3.5495                 4.7029                 3.5094
 Frc consts  --      0.0422                 0.0943                 0.0977
 IR Inten    --      1.8274                 0.4663                 4.4721

                     13                     14                     15
                      A                      A                      A
 Frequencies --    226.8947               233.5127               246.3439
 Red. masses --      3.8404                 4.7462                 6.6933
 Frc consts  --      0.1165                 0.1525                 0.2393
 IR Inten    --      2.5913                 4.2646                 2.1281

                     16                     17                     18
                      A                      A                      A
 Frequencies --    296.7044               337.3747               359.9977
 Red. masses --      4.5913                 1.2244                 3.4737
 Frc consts  --      0.2381                 0.0821                 0.2652
 IR Inten    --      1.6549                61.6155                19.8712

                     19                     20                     21
                      A                      A                      A
 Frequencies --    394.4024               416.4261               418.2714
 Red. masses --      2.7171                 2.9548                 3.8056
 Frc consts  --      0.2490                 0.3019                 0.3923
 IR Inten    --     21.7399                13.8396                 1.1393

                     22                     23                     24
                      A                      A                      A
 Frequencies --    429.6792               436.8183               446.0649
 Red. masses --      1.3691                 4.2166                 4.5379
 Frc consts  --      0.1489                 0.4740                 0.5320
 IR Inten    --    135.1777                16.9161                10.1877

                     25                     26                     27
                      A                      A                      A
 Frequencies --    454.9320               490.3902               519.2118
 Red. masses --      2.7926                 2.1776                 4.0902
 Frc consts  --      0.3405                 0.3085                 0.6497
 IR Inten    --     24.9281                58.1680                 9.0246

                     28                     29                     30
                      A                      A                      A
 Frequencies --    546.9747               563.6821               576.8637
 Red. masses --      2.7080                 3.0549                 1.5900
 Frc consts  --      0.4774                 0.5719                 0.3117
 IR Inten    --     53.6669                 5.4064                38.1729

                     31                     32                     33
                      A                      A                      A
 Frequencies --    600.0274               627.3850               646.4914
 Red. masses --      4.3556                 2.6242                 6.8133
 Frc consts  --      0.9239                 0.6086                 1.6778
 IR Inten    --    105.7279                19.5241                 2.2688

                     34                     35                     36
                      A                      A                      A
 Frequencies --    651.5912               671.4557               708.1121
 Red. masses --      3.0548                 3.3548                 4.2074
 Frc consts  --      0.7642                 0.8912                 1.2430
 IR Inten    --     22.1300               181.8702                36.0985

                     37                     38                     39
                      A                      A                      A
 Frequencies --    774.5587               793.0963               801.2019
 Red. masses --      3.3556                 2.5921                 2.1204
 Frc consts  --      1.1861                 0.9606                 0.8020
 IR Inten    --     28.1808                 1.3024                 3.9389

                     40                     41                     42
                      A                      A                      A
 Frequencies --    834.2774               861.3462               878.3186
 Red. masses --      2.4737                 1.4049                 1.7212
 Frc consts  --      1.0144                 0.6141                 0.7823
 IR Inten    --     27.5439                 2.8429                22.0192

                     43                     44                     45
                      A                      A                      A
 Frequencies --    880.9104               898.3306               905.9431
 Red. masses --      1.5398                 2.7658                 2.4818
 Frc consts  --      0.7040                 1.3151                 1.2001
 IR Inten    --      8.1685                12.2849                51.1346

                     46                     47                     48
                      A                      A                      A
 Frequencies --    927.4117               957.7702               977.5430
 Red. masses --      1.7558                 2.0056                 1.5755
 Frc consts  --      0.8898                 1.0840                 0.8870
 IR Inten    --     94.4331                16.1229                22.1016

                     49                     50                     51
                      A                      A                      A
 Frequencies --    978.8403              1002.2386              1022.0699
 Red. masses --      1.4934                 1.3177                 1.8981
 Frc consts  --      0.8430                 0.7799                 1.1683
 IR Inten    --     15.8000                 0.5035                11.8538

                     52                     53                     54
                      A                      A                      A
 Frequencies --   1038.5055              1039.8368              1044.1862
 Red. masses --      3.1646                 1.9304                 2.1602
 Frc consts  --      2.0109                 1.2298                 1.3877
 IR Inten    --      5.5688                 3.5546                30.7525

                     55                     56                     57
                      A                      A                      A
 Frequencies --   1075.5893              1095.5005              1105.1163
 Red. masses --      2.7907                 4.4846                 1.9285
 Frc consts  --      1.9022                 3.1710                 1.3877
 IR Inten    --      2.5146                66.3855                12.5374

                     58                     59                     60
                      A                      A                      A
 Frequencies --   1111.7672              1140.9601              1145.2306
 Red. masses --      2.1087                 5.5415                 1.4642
 Frc consts  --      1.5356                 4.2503                 1.1315
 IR Inten    --      3.6668               110.8499                 4.2262

                     61                     62                     63
                      A                      A                      A
 Frequencies --   1156.4175              1161.7976              1185.4581
 Red. masses --      2.2346                 2.1558                 1.4743
 Frc consts  --      1.7607                 1.7144                 1.2207
 IR Inten    --     31.2492                54.5153                 5.0341

                     64                     65                     66
                      A                      A                      A
 Frequencies --   1215.4130              1215.7917              1241.4106
 Red. masses --      1.2336                 1.3455                 1.4524
 Frc consts  --      1.0737                 1.1718                 1.3188
 IR Inten    --      1.6527                 0.9634                11.8407

                     67                     68                     69
                      A                      A                      A
 Frequencies --   1250.5429              1286.3843              1295.0530
 Red. masses --      1.3475                 1.2796                 1.2843
 Frc consts  --      1.2416                 1.2476                 1.2691
 IR Inten    --      3.3188                 2.7156                 9.8143

                     70                     71                     72
                      A                      A                      A
 Frequencies --   1318.4446              1336.7902              1338.3035
 Red. masses --      2.6198                 1.3127                 1.3779
 Frc consts  --      2.6831                 1.3821                 1.4540
 IR Inten    --     71.8781                 7.2521                 6.9203

                     73                     74                     75
                      A                      A                      A
 Frequencies --   1342.4007              1354.1597              1363.2950
 Red. masses --      1.3873                 2.5464                 2.8335
 Frc consts  --      1.4729                 2.7512                 3.1028
 IR Inten    --      3.6266                55.5595                16.4314

                     76                     77                     78
                      A                      A                      A
 Frequencies --   1364.0298              1379.3050              1383.6850
 Red. masses --      1.3066                 1.4852                 3.9614
 Frc consts  --      1.4323                 1.6648                 4.4687
 IR Inten    --      3.1180                26.7189               224.7191

                     79                     80                     81
                      A                      A                      A
 Frequencies --   1397.2205              1442.8319              1449.9163
 Red. masses --      1.3908                 2.9098                 1.4968
 Frc consts  --      1.5997                 3.5690                 1.8540
 IR Inten    --      1.7976                28.4758                16.3940

                     82                     83                     84
                      A                      A                      A
 Frequencies --   1471.6739              1517.4583              1523.4550
 Red. masses --      1.3077                 1.0858                 1.0815
 Frc consts  --      1.6687                 1.4731                 1.4789
 IR Inten    --     70.1664                 1.6342                 0.5208

                     85                     86                     87
                      A                      A                      A
 Frequencies --   1530.8326              1538.6710              1547.8883
 Red. masses --      1.0817                 2.2789                 1.0953
 Frc consts  --      1.4936                 3.1788                 1.5463
 IR Inten    --      3.4816                 0.4616                 4.5488

                     88                     89                     90
                      A                      A                      A
 Frequencies --   1628.1074              1648.4556              1658.9110
 Red. masses --      7.0148                 1.2764                 5.0304
 Frc consts  --     10.9555                 2.0435                 8.1564
 IR Inten    --      6.6064               143.3811                25.6220

                     91                     92                     93
                      A                      A                      A
 Frequencies --   1721.6858              1793.8138              2979.4177
 Red. masses --      1.0834                 8.4547                 1.0706
 Frc consts  --      1.8921                16.0289                 5.5996
 IR Inten    --     28.0593               244.3309                46.8162

                     94                     95                     96
                      A                      A                      A
 Frequencies --   3043.9455              3051.0441              3061.0944
 Red. masses --      1.0745                 1.0782                 1.0671
 Frc consts  --      5.8657                 5.9136                 5.8914
 IR Inten    --     13.1055                11.0023                53.3001

                     97                     98                     99
                      A                      A                      A
 Frequencies --   3067.2917              3069.5601              3098.3403
 Red. masses --      1.0778                 1.0778                 1.0953
 Frc consts  --      5.9744                 5.9834                 6.1950
 IR Inten    --     45.4514                25.6745                16.3213

                    100                    101                    102
                      A                      A                      A
 Frequencies --   3112.1952              3120.9652              3140.8109
 Red. masses --      1.1003                 1.1027                 1.0865
 Frc consts  --      6.2793                 6.3280                 6.3146
 IR Inten    --     11.8768                69.1873                 5.2832

                    103                    104                    105
                      A                      A                      A
 Frequencies --   3203.8965              3226.2053              3226.7476
 Red. masses --      1.0885                 1.0921                 1.0894
 Frc consts  --      6.5833                 6.6974                 6.6830
 IR Inten    --      7.0950                 2.0108                 0.2293

                    106                    107                    108
                      A                      A                      A
 Frequencies --   3238.2898              3462.4792              3545.8824
 Red. masses --      1.0946                 1.0511                 1.0917
 Frc consts  --      6.7630                 7.4243                 8.0874
 IR Inten    --      0.0364                28.3174                10.6515

                    109                    110                    111
                      A                      A                      A
 Frequencies --   3557.1789              3578.9679              3697.1198
 Red. masses --      1.0754                 1.0462                 1.1026
 Frc consts  --      8.0176                 7.8952                 8.8793
 IR Inten    --     22.5908                46.3675                29.6856

 - Thermochemistry -
 -------------------
 Temperature   298.150 Kelvin.  Pressure   1.00000 Atm.
 Atom     1 has atomic number  6 and mass  12.00000

 Molecular mass:   297.11471 amu.
 Principal axes and moments of inertia in atomic units:
                           1         2         3
     Eigenvalues --  3207.33072********************
           X            0.99988  -0.01414  -0.00636
           Y            0.01388   0.99914  -0.03913
           Z            0.00691   0.03904   0.99921
 This molecule is an asymmetric top.
 Rotational symmetry number  1.
 Warning -- assumption of classical behavior for rotation
           may cause significant error
 Rotational temperatures (Kelvin)      0.02700     0.00818     0.00740
 Rotational constants (GHZ):           0.56269     0.17049     0.15416
 Zero-point vibrational energy     851231.9 (Joules/Mol)
                                  203.44931 (Kcal/Mol)
 Warning -- explicit consideration of  31 degrees of freedom as
           vibrations may cause significant error
 Vibrational temperatures:     29.58    33.68    51.35    74.70   102.35
          (Kelvin)            114.54   145.46   173.18   195.50   204.49
                              265.41   312.80   326.45   335.97   354.43
                              426.89   485.41   517.96   567.46   599.14
                              601.80   618.21   628.48   641.79   654.55
                              705.56   747.03   786.97   811.01   829.98
                              863.31   902.67   930.16   937.49   966.08
                             1018.82  1114.42  1141.09  1152.75  1200.34
                             1239.29  1263.70  1267.43  1292.50  1303.45
                             1334.34  1378.02  1406.47  1408.33  1442.00
                             1470.53  1494.18  1496.09  1502.35  1547.53
                             1576.18  1590.02  1599.58  1641.59  1647.73
                             1663.83  1671.57  1705.61  1748.71  1749.25
                             1786.11  1799.25  1850.82  1863.29  1896.95
                             1923.34  1925.52  1931.42  1948.33  1961.48
                             1962.53  1984.51  1990.81  2010.29  2075.91
                             2086.11  2117.41  2183.28  2191.91  2202.53
                             2213.80  2227.07  2342.48  2371.76  2386.80
                             2477.12  2580.90  4286.72  4379.56  4389.77
                             4404.23  4413.15  4416.41  4457.82  4477.75
                             4490.37  4518.93  4609.69  4641.79  4642.57
                             4659.18  4981.74  5101.73  5117.99  5149.34
                             5319.33

 Zero-point correction=                           0.324217 (Hartree/Particle)
 Thermal correction to Energy=                    0.343787
 Thermal correction to Enthalpy=                  0.344731
 Thermal correction to Gibbs Free Energy=         0.274029
 Sum of electronic and zero-point Energies=          -1294.644773
 Sum of electronic and thermal Energies=             -1294.625203
 Sum of electronic and thermal Enthalpies=           -1294.624259
 Sum of electronic and thermal Free Energies=        -1294.694961

                     E (Thermal)             CV                S
                      KCal/Mol        Cal/Mol-Kelvin    Cal/Mol-Kelvin
 Total                  215.730             74.645            148.805
 Electronic               0.000              0.000              0.000
 Translational            0.889              2.981             42.964
 Rotational               0.889              2.981             34.340
 Vibrational            213.952             68.683             71.501
 Vibration     1          0.593              1.986              6.580
 Vibration     2          0.593              1.985              6.322
 Vibration     3          0.594              1.982              5.485
 Vibration     4          0.596              1.977              4.743
 Vibration     5          0.598              1.968              4.122
 Vibration     6          0.600              1.963              3.900
 Vibration     7          0.604              1.948              3.433
 Vibration     8          0.609              1.932              3.094
 Vibration     9          0.614              1.918              2.861
 Vibration    10          0.616              1.911              2.775
 Vibration    11          0.631              1.861              2.283
 Vibration    12          0.646              1.815              1.981
 Vibration    13          0.651              1.800              1.903
 Vibration    14          0.654              1.790              1.852
 Vibration    15          0.661              1.769              1.757
 Vibration    16          0.690              1.680              1.435
 Vibration    17          0.718              1.601              1.225
 Vibration    18          0.734              1.555              1.122
 Vibration    19          0.761              1.482              0.983
 Vibration    20          0.780              1.435              0.904
 Vibration    21          0.781              1.431              0.898
 Vibration    22          0.791              1.406              0.860
 Vibration    23          0.797              1.390              0.837
 Vibration    24          0.805              1.370              0.808
 Vibration    25          0.813              1.350              0.781
 Vibration    26          0.846              1.271              0.683
 Vibration    27          0.874              1.207              0.612
 Vibration    28          0.902              1.146              0.550
 Vibration    29          0.919              1.110              0.517
 Vibration    30          0.933              1.081              0.491
 Vibration    31          0.958              1.032              0.450

 Optimization completed.
    -- Stationary point found.
 Normal termination of Gaussian 16 at Mon Dec 14 18:12:03 2020.

 ----------------------------------------------------------------------
 # B3LYP/6-311++G(d,p) empiricaldispersion=gd3bj scf=xqc pop=npa geom=c
 heck
 ----------------------------------------------------------------------

 ---------------------------------------
 CID_65850198_JID_10204_Energie_neutraal
 ---------------------------------------
 Structure from the checkpoint file:  "JID_10204.chk"
 Charge =  0 Multiplicity = 1

 SCF Done:  E(RB3LYP) =  -1295.26383923     A.U. after   16 cycles
 Normal termination of Gaussian 16 at Mon Dec 14 18:22:05 2020.

 ----------------------------------------------------------------------
 # B3LYP/6-311++G(d,p) empiricaldispersion=gd3bj scf=xqc pop=npa geom=c
 heck
 ----------------------------------------------------------------------

 -------------------------------------
 CID_65850198_JID_10204_Energie_kation
 -------------------------------------
 Structure from the checkpoint file:  "JID_10204.chk"
 Charge =  1 Multiplicity = 2

 SCF Done:  E(UB3LYP) =  -1294.95158190     A.U. after   33 cycles
 SCF Done:  E(UB3LYP) =  -1294.95158190     a.u. after    1 cycles
 Normal termination of Gaussian 16 at Mon Dec 14 18:52:03 2020.
 Gaussian 16:  ES64L-G16RevA.03 25-Dec-2016

 ----------------------------------------------------------------------
 # B3LYP/6-311++G(d,p) empiricaldispersion=gd3bj scf=xqc pop=npa geom=c
 heck
 ----------------------------------------------------------------------

 ------------------------------------
 CID_65850198_JID_10204_Energie_anion
 ------------------------------------
 Structure from the checkpoint file:  "JID_10204.chk"
 Charge = -1 Multiplicity = 2

                         Standard orientation:
 ---------------------------------------------------------------------
 Center     Atomic      Atomic             Coordinates (Angstroms)
 Number     Number       Type             X           Y           Z
 ---------------------------------------------------------------------
      1          6           0       -2.086907    2.687983   -1.155315
      2          6           0       -3.507505    2.171812   -0.774959
      3          6           0       -3.314745    1.243948    0.446741
      4          6           0       -1.855826    0.762975    0.312626
      5          6           0       -1.116497    2.027813   -0.144147
      6          7           0       -1.760859   -0.324894   -0.685482
      7         16           0       -0.799529   -1.648494   -0.385212
      8          8           0       -1.231112   -2.194359    0.905519
      9          8           0       -0.812714   -2.436039   -1.618783
     10          6           0        0.864642   -1.021075   -0.149654
     11          6           0        1.298488   -0.680027    1.132842
     12          6           0        2.555999   -0.106129    1.289973
     13          6           0        3.382279    0.106829    0.180512
     14          6           0        2.931102   -0.245195   -1.098924
     15          6           0        1.669250   -0.807945   -1.269679
     16          6           0        4.725775    0.731916    0.432205
     17          8           0        4.952375    1.383519    1.442310
     18          7           0        5.667393    0.552943   -0.552546
     19          6           0       -4.340884    0.121782    0.578553
     20          7           0       -4.044322   -0.703319    1.753500
     21          1           0       -2.016309    3.778899   -1.122562
     22          1           0       -1.833215    2.396881   -2.182005
     23          1           0       -4.199780    2.988973   -0.551806
     24          1           0       -3.946594    1.607769   -1.607160
     25          1           0       -3.350934    1.839954    1.367607
     26          1           0       -1.488672    0.362629    1.258526
     27          1           0       -0.126172    1.814231   -0.558438
     28          1           0       -0.973316    2.680034    0.724595
     29          1           0       -1.689370   -0.037481   -1.657388
     30          1           0        0.661034   -0.879144    1.986785
     31          1           0        2.921565    0.184112    2.268733
     32          1           0        3.549180   -0.053078   -1.970469
     33          1           0        1.310876   -1.091356   -2.253428
     34          1           0        5.605774   -0.241089   -1.173559
     35          1           0        6.600354    0.865989   -0.317514
     36          1           0       -5.332865    0.570331    0.714294
     37          1           0       -4.369119   -0.441379   -0.369693
     38          1           0       -4.823102   -1.335409    1.928766
     39          1           0       -3.241768   -1.301160    1.552787
 ---------------------------------------------------------------------

 SCF Done:  E(UB3LYP) =  -1295.28872514     A.U. after   27 cycles

 The electronic state is 2-A.
 Alpha  occ. eigenvalues --  -88.93746 -18.99633 -18.99509 -18.94234 -14.22699
 Alpha  occ. eigenvalues --  -14.20233 -14.19640 -10.12174 -10.11435 -10.10120
 Alpha  occ. eigenvalues --  -10.08761 -10.08672 -10.08270 -10.07573 -10.04821
 Alpha  occ. eigenvalues --  -10.04525 -10.04073 -10.03989 -10.03137 -10.02472
 Alpha  occ. eigenvalues --   -7.99863  -5.96172  -5.96159  -5.95893  -0.99915
 Alpha  occ. eigenvalues --   -0.89671  -0.89124  -0.82683  -0.78792  -0.77478
 Alpha  occ. eigenvalues --   -0.73774  -0.72534  -0.64471  -0.63793  -0.62293
 Alpha  occ. eigenvalues --   -0.61556  -0.55684  -0.54406  -0.49884  -0.48993
 Alpha  occ. eigenvalues --   -0.47942  -0.47262  -0.45061  -0.42480  -0.41820
 Alpha  occ. eigenvalues --   -0.40385  -0.39936  -0.37815  -0.37672  -0.36966
 Alpha  occ. eigenvalues --   -0.35690  -0.35441  -0.33430  -0.32786  -0.31730
 Alpha  occ. eigenvalues --   -0.31169  -0.30103  -0.29473  -0.28997  -0.28205
 Alpha  occ. eigenvalues --   -0.27514  -0.26215  -0.25931  -0.25201  -0.24890
 Alpha  occ. eigenvalues --   -0.24457  -0.24011  -0.23634  -0.22427  -0.21451
 Alpha  occ. eigenvalues --   -0.20680  -0.19340  -0.18633  -0.16762  -0.15272
 Alpha  occ. eigenvalues --   -0.15176  -0.13179  -0.12979  -0.11809   0.03361
 Alpha virt. eigenvalues --    0.06103   0.07400   0.07796   0.08000   0.08774
 Alpha virt. eigenvalues --    0.09947   0.10521   0.11064   0.11109   0.11237
 Alpha virt. eigenvalues --    0.11668   0.12317   0.12934   0.13553   0.13774

  Beta  occ. eigenvalues --  -88.93741 -18.99606 -18.99482 -18.93973 -14.22630
  Beta  occ. eigenvalues --  -14.20186 -14.19639 -10.12015 -10.11437 -10.10119
  Beta  occ. eigenvalues --  -10.08761 -10.08671 -10.08269 -10.07572 -10.04508
  Beta  occ. eigenvalues --  -10.04417 -10.04012 -10.03922 -10.03070 -10.02104
  Beta  occ. eigenvalues --   -7.99858  -5.96156  -5.96141  -5.95897  -0.99824
  Beta  occ. eigenvalues --   -0.89217  -0.89067  -0.82584  -0.78776  -0.77263
  Beta  occ. eigenvalues --   -0.73729  -0.72082  -0.64461  -0.63223  -0.62120
  Beta  occ. eigenvalues --   -0.61190  -0.55583  -0.54054  -0.49579  -0.48855
  Beta  occ. eigenvalues --   -0.47808  -0.47213  -0.44785  -0.42240  -0.41725
  Beta  occ. eigenvalues --   -0.40375  -0.39879  -0.37777  -0.37578  -0.36925
  Beta  occ. eigenvalues --   -0.35485  -0.35352  -0.33338  -0.32725  -0.31512
  Beta  occ. eigenvalues --   -0.30951  -0.30090  -0.29364  -0.28690  -0.27555
  Beta  occ. eigenvalues --   -0.26945  -0.26131  -0.25912  -0.25169  -0.24746
  Beta  occ. eigenvalues --   -0.24306  -0.23937  -0.22686  -0.22289  -0.21304
  Beta  occ. eigenvalues --   -0.20583  -0.19257  -0.18350  -0.16409  -0.15149
  Beta  occ. eigenvalues --   -0.14389  -0.12144  -0.11833  -0.10576
  Beta virt. eigenvalues --    0.06081   0.07370   0.07762   0.07952   0.08600
  Beta virt. eigenvalues --    0.09422   0.09908   0.10485   0.11067   0.11088
  Beta virt. eigenvalues --    0.11359   0.11720   0.12279   0.13000   0.13552

 Mulliken charges and spin densities:
               1          2
     1  C   -0.362973  -0.000770
     2  C   -0.592703  -0.002647
     3  C    0.504796   0.018901
     4  C    0.197294  -0.020721
     5  C   -0.870711  -0.031531
     6  N   -0.165331   0.040584
     7  S    0.097860  -0.017402
     8  O   -0.217225   0.003603
     9  O   -0.131323  -0.001755
    10  C    0.366193   0.113059
    11  C   -0.404505   0.117591
    12  C   -0.380607   0.123919
    13  C    0.468650   0.132216
    14  C   -0.787565   0.138592
    15  C   -0.450752   0.146191
    16  C   -0.066817   0.097914
    17  O   -0.412583   0.094970
    18  N   -0.393168   0.026281
    19  C   -0.580625  -0.008003
    20  N   -0.422116  -0.000229
    21  H    0.144280  -0.001494
    22  H    0.142896   0.005832
    23  H    0.118750   0.002429
    24  H    0.151790   0.000410
    25  H    0.204427   0.000621
    26  H    0.243549   0.013424
    27  H    0.169728  -0.000528
    28  H    0.158122   0.006473
    29  H    0.300565   0.000130
    30  H    0.186047  -0.005100
    31  H    0.183357  -0.003510
    32  H    0.118906   0.003692
    33  H    0.203575  -0.005164
    34  H    0.192039   0.008206
    35  H    0.287853  -0.001771
    36  H    0.147817   0.002976
    37  H    0.145168   0.001083
    38  H    0.228009   0.000094
    39  H    0.277330   0.001432
 Sum of Mulliken charges =  -1.00000   1.00000

 Dipole moment (field-independent basis, Debye):
    X=             -7.3041    Y=              2.8962    Z=             -3.6584  Tot=              8.6673
 Quadrupole moment (field-independent basis, Debye-Ang):
   XX=           -178.1307   YY=           -155.2063   ZZ=           -146.4822
   XY=            -18.3451   XZ=            -12.8129   YZ=             -7.2835

 Summary of Natural Population Analysis:

                                       Natural Population
                Natural  -----------------------------------------------
    Atom  No    Charge         Core      Valence    Rydberg      Total
 -----------------------------------------------------------------------
      C    1   -0.19621      0.99966     2.19006    0.00649     3.19621
      C    2   -0.19422      0.99963     2.18752    0.00706     3.19422
      C    3   -0.11282      0.99957     2.10304    0.01020     3.11282
      C    4   -0.02024      0.99957     2.00581    0.01486     3.02024
      C    5   -0.19846      0.99962     2.19165    0.00719     3.19846
      N    6   -0.44879      0.99972     2.93191    0.01717     3.94879
      S    7    1.12415      4.99916     1.77846    0.09823     6.87585
      O    8   -0.47794      0.99990     3.47255    0.00549     4.47794
      O    9   -0.47142      0.99991     3.46627    0.00525     4.47142
      C   10   -0.08155      0.99935     2.06366    0.01854     3.08155
      C   11   -0.09365      0.99952     2.08501    0.00913     3.09365
      C   12   -0.06958      0.99954     2.06140    0.00865     3.06958
      C   13   -0.00279      0.99946     1.99128    0.01205     3.00279
      C   14   -0.08963      0.99955     2.08174    0.00834     3.08963
      C   15   -0.10202      0.99952     2.09273    0.00977     3.10202
      C   16    0.35251      0.99967     1.62615    0.02168     2.64749
      O   17   -0.30626      0.99988     3.29998    0.00641     4.30626
      N   18   -0.40981      0.99971     2.90233    0.00777     3.90981
      C   19   -0.08611      0.99960     2.07655    0.00996     3.08611
      N   20   -0.43148      0.99977     2.92135    0.01036     3.93148
      H   21    0.09788      0.00000     0.40114    0.00098     0.40212
      H   22    0.09372      0.00000     0.40519    0.00109     0.40628
      H   23    0.09683      0.00000     0.40223    0.00094     0.40317
      H   24    0.09549      0.00000     0.40341    0.00110     0.40451
      H   25    0.10045      0.00000     0.39837    0.00117     0.39955
      H   26    0.11647      0.00000     0.38214    0.00139     0.38353
      H   27    0.11575      0.00000     0.38279    0.00146     0.38425
      H   28    0.09972      0.00000     0.39931    0.00096     0.40028
      H   29    0.19432      0.00000     0.30403    0.00165     0.30568
      H   30    0.10448      0.00000     0.39448    0.00103     0.39552
      H   31    0.10600      0.00000     0.39299    0.00100     0.39400
      H   32    0.09253      0.00000     0.40631    0.00115     0.40747
      H   33    0.10359      0.00000     0.39536    0.00105     0.39641
      H   34    0.18703      0.00000     0.31158    0.00139     0.31297
      H   35    0.18294      0.00000     0.31343    0.00363     0.31706
      H   36    0.08442      0.00000     0.41437    0.00120     0.41558
      H   37    0.08466      0.00000     0.41394    0.00140     0.41534
      H   38    0.16909      0.00000     0.32926    0.00165     0.33091
      H   39    0.19093      0.00000     0.30734    0.00173     0.30907
 =======================================================================
   * Total *   -0.00000     23.99230    54.68714    0.32056    79.00000

 Normal termination of Gaussian 16 at Mon Dec 14 19:16:34 2020.
