 Gaussian 16, Revision A.03,

 -----------------------------------------------------------
 # opt freq B3LYP/6-31G(d) empiricaldispersion=gd3bj scf=xqc
 -----------------------------------------------------------

 ------------------------------
 CID_64668254_JID_7357_neutraal
 ------------------------------
 Symbolic Z-matrix:
 Charge =  0 Multiplicity = 1

 SCF Done:  E(RB3LYP) =  -1194.22401610     A.U. after   14 cycles
 SCF Done:  E(RB3LYP) =  -1194.23496940     A.U. after   12 cycles
 SCF Done:  E(RB3LYP) =  -1194.23603864     A.U. after   12 cycles
 SCF Done:  E(RB3LYP) =  -1194.23635351     A.U. after   12 cycles
 SCF Done:  E(RB3LYP) =  -1194.23650456     A.U. after   11 cycles
 SCF Done:  E(RB3LYP) =  -1194.23657168     A.U. after   11 cycles
 SCF Done:  E(RB3LYP) =  -1194.23659980     A.U. after   11 cycles
 SCF Done:  E(RB3LYP) =  -1194.23663627     A.U. after   11 cycles
 SCF Done:  E(RB3LYP) =  -1194.23667696     A.U. after   11 cycles
 SCF Done:  E(RB3LYP) =  -1194.23670698     A.U. after   11 cycles
 SCF Done:  E(RB3LYP) =  -1194.23679532     A.U. after   11 cycles
 SCF Done:  E(RB3LYP) =  -1194.23679652     A.U. after   10 cycles
 SCF Done:  E(RB3LYP) =  -1194.23679666     A.U. after    9 cycles
 SCF Done:  E(RB3LYP) =  -1194.23679670     A.U. after    7 cycles
 Optimization completed.
    -- Stationary point found.
 Normal termination of Gaussian 16 at Sun Dec 13 20:29:56 2020.

 --------------------------------------------------------------------
 #N Geom=AllCheck Guess=TCheck SCRF=Check GenChk RB3LYP/6-31G(d) Freq
 --------------------------------------------------------------------

 Structure from the checkpoint file:  "JID_7357.chk"
 ------------------------------
 CID_64668254_JID_7357_neutraal
 ------------------------------
 Charge =  0 Multiplicity = 1

 SCF Done:  E(RB3LYP) =  -1194.23679670     A.U. after    1 cycles

  Exact polarizability: 156.805 -16.419 129.610   7.380   5.983 120.532
 Approx polarizability: 206.284 -33.697 202.062  17.366  10.441 209.379

                      1                      2                      3
                      A                      A                      A
 Frequencies --     18.0875                23.8106                32.9677
 Red. masses --      4.8768                 4.0840                 7.2720
 Frc consts  --      0.0009                 0.0014                 0.0047
 IR Inten    --      1.6876                 3.0815                 0.9690

                      4                      5                      6
                      A                      A                      A
 Frequencies --     56.5652                75.8715               114.2403
 Red. masses --      5.6628                 4.2673                 1.9339
 Frc consts  --      0.0107                 0.0145                 0.0149
 IR Inten    --      2.5309                 1.4652                 0.8986

                      7                      8                      9
                      A                      A                      A
 Frequencies --    143.4409               152.1550               179.8017
 Red. masses --      1.6314                 6.1131                 6.7013
 Frc consts  --      0.0198                 0.0834                 0.1276
 IR Inten    --      2.0136                 1.9813                 1.8554

                     10                     11                     12
                      A                      A                      A
 Frequencies --    202.9459               226.6617               281.4457
 Red. masses --      4.5175                 2.9493                 3.3763
 Frc consts  --      0.1096                 0.0893                 0.1576
 IR Inten    --      3.0775                 4.0225                 2.7295

                     13                     14                     15
                      A                      A                      A
 Frequencies --    316.2437               338.7020               358.9778
 Red. masses --      3.8209                 6.3578                 3.0230
 Frc consts  --      0.2251                 0.4297                 0.2295
 IR Inten    --      7.3191                 2.9177                 2.6906

                     16                     17                     18
                      A                      A                      A
 Frequencies --    376.5436               395.0370               445.1269
 Red. masses --      4.6408                 3.6240                 4.0781
 Frc consts  --      0.3877                 0.3332                 0.4761
 IR Inten    --      0.3068                 7.3460                20.6953

                     19                     20                     21
                      A                      A                      A
 Frequencies --    479.5460               491.3541               532.6411
 Red. masses --      4.2270                 3.6825                 1.9336
 Frc consts  --      0.5727                 0.5238                 0.3232
 IR Inten    --     10.6499                 0.9200                81.4988

                     22                     23                     24
                      A                      A                      A
 Frequencies --    553.4573               558.9475               566.9587
 Red. masses --      2.2977                 4.1488                 2.4860
 Frc consts  --      0.4147                 0.7637                 0.4708
 IR Inten    --     14.3555                 3.2829                70.6914

                     25                     26                     27
                      A                      A                      A
 Frequencies --    593.4912               612.8122               655.2586
 Red. masses --      4.2762                 5.7709                 2.9082
 Frc consts  --      0.8874                 1.2769                 0.7357
 IR Inten    --     56.2688                74.7267                16.3554

                     28                     29                     30
                      A                      A                      A
 Frequencies --    690.7476               703.9575               743.2018
 Red. masses --      2.5520                 3.9375                 2.9820
 Frc consts  --      0.7174                 1.1496                 0.9705
 IR Inten    --     47.9150                27.8840                69.5682

                     31                     32                     33
                      A                      A                      A
 Frequencies --    814.5249               857.2988               884.6210
 Red. masses --      1.3492                 2.2900                 2.3576
 Frc consts  --      0.5274                 0.9916                 1.0870
 IR Inten    --      5.1142                69.8196                18.7103

                     34                     35                     36
                      A                      A                      A
 Frequencies --    889.3101               923.1896               941.3054
 Red. masses --      1.2883                 3.1485                 2.3229
 Frc consts  --      0.6003                 1.5810                 1.2126
 IR Inten    --     14.4508                66.8232                34.7733

                     37                     38                     39
                      A                      A                      A
 Frequencies --    951.9828               999.3903              1006.6082
 Red. masses --      5.7263                 3.8956                 2.1272
 Frc consts  --      3.0576                 2.2924                 1.2699
 IR Inten    --     11.7251                 6.0620                28.6588

                     40                     41                     42
                      A                      A                      A
 Frequencies --   1012.0358              1048.5962              1064.1678
 Red. masses --      2.4184                 2.0000                 1.7982
 Frc consts  --      1.4594                 1.2957                 1.1998
 IR Inten    --     43.2147                58.8758                15.0046

                     43                     44                     45
                      A                      A                      A
 Frequencies --   1107.8630              1115.9783              1129.7972
 Red. masses --      1.8457                 6.8693                 2.3468
 Frc consts  --      1.3347                 5.0405                 1.7649
 IR Inten    --      3.6766               138.6427                 3.1069

                     46                     47                     48
                      A                      A                      A
 Frequencies --   1160.4637              1167.9091              1172.3530
 Red. masses --      1.5350                 1.7123                 1.8276
 Frc consts  --      1.2179                 1.3761                 1.4800
 IR Inten    --     27.3859                11.3556                 9.6531

                     49                     50                     51
                      A                      A                      A
 Frequencies --   1208.8765              1213.0530              1227.6020
 Red. masses --      1.9323                 1.5129                 1.3653
 Frc consts  --      1.6637                 1.3116                 1.2123
 IR Inten    --     46.0962                21.0962                34.1402

                     52                     53                     54
                      A                      A                      A
 Frequencies --   1270.6229              1295.3995              1313.2601
 Red. masses --      2.5645                 1.5560                 2.2180
 Frc consts  --      2.4394                 1.5384                 2.2538
 IR Inten    --     52.3643                20.6866                13.0629

                     55                     56                     57
                      A                      A                      A
 Frequencies --   1316.2420              1338.4224              1345.5992
 Red. masses --      2.0900                 1.7705                 2.0507
 Frc consts  --      2.1334                 1.8687                 2.1877
 IR Inten    --     89.8214                48.7475                47.3346

                     58                     59                     60
                      A                      A                      A
 Frequencies --   1370.8395              1379.2978              1384.3574
 Red. masses --      1.6542                 1.7059                 3.8575
 Frc consts  --      1.8316                 1.9122                 4.3557
 IR Inten    --     33.9726                10.4397                17.7424

                     61                     62                     63
                      A                      A                      A
 Frequencies --   1406.2299              1430.6563              1445.3432
 Red. masses --      1.6331                 5.3159                 1.3432
 Frc consts  --      1.9027                 6.4105                 1.6533
 IR Inten    --     27.4994                16.4787                35.2992

                     64                     65                     66
                      A                      A                      A
 Frequencies --   1459.5009              1473.9506              1498.8698
 Red. masses --      1.2979                 1.5148                 2.5756
 Frc consts  --      1.6289                 1.9390                 3.4093
 IR Inten    --     60.1127                45.6874                27.7438

                     67                     68                     69
                      A                      A                      A
 Frequencies --   1503.4932              1521.0145              1528.2056
 Red. masses --      1.0963                 1.0728                 1.0872
 Frc consts  --      1.4601                 1.4623                 1.4960
 IR Inten    --      3.9245                18.7281                 3.6700

                     70                     71                     72
                      A                      A                      A
 Frequencies --   1533.5139              1558.0338              1581.4700
 Red. masses --      1.0718                 1.1857                 3.2610
 Frc consts  --      1.4851                 1.6958                 4.8053
 IR Inten    --     18.0814                18.7985                36.1701

                     73                     74                     75
                      A                      A                      A
 Frequencies --   1772.5878              3004.9684              3031.0299
 Red. masses --     10.5081                 1.0708                 1.0463
 Frc consts  --     19.4531                 5.6967                 5.6637
 IR Inten    --    320.1349                39.5189                59.7858

                     76                     77                     78
                      A                      A                      A
 Frequencies --   3047.0877              3056.6271              3086.1951
 Red. masses --      1.0732                 1.0689                 1.0868
 Frc consts  --      5.8707                 5.8839                 6.0991
 IR Inten    --      3.4825                34.1799                18.7742

                     79                     80                     81
                      A                      A                      A
 Frequencies --   3092.4615              3092.7967              3126.4561
 Red. masses --      1.0941                 1.0942                 1.0920
 Frc consts  --      6.1648                 6.1667                 6.2888
 IR Inten    --      9.5587                47.7703                10.4018

                     82                     83                     84
                      A                      A                      A
 Frequencies --   3146.1836              3194.7524              3287.8327
 Red. masses --      1.0944                 1.0967                 1.0972
 Frc consts  --      6.3824                 6.5951                 6.9879
 IR Inten    --      3.5047                 1.0778                 0.6863

                     85                     86                     87
                      A                      A                      A
 Frequencies --   3299.8685              3543.2360              3658.4727
 Red. masses --      1.0993                 1.0747                 1.0821
 Frc consts  --      7.0526                 7.9497                 8.5330
 IR Inten    --      2.7517                31.3035               100.7398

 - Thermochemistry -
 -------------------
 Temperature   298.150 Kelvin.  Pressure   1.00000 Atm.
 Atom     1 has atomic number  6 and mass  12.00000

 Molecular mass:   258.07866 amu.
 Principal axes and moments of inertia in atomic units:
                           1         2         3
     Eigenvalues --  2074.617087519.778138157.66920
           X            0.99999   0.00443  -0.00225
           Y           -0.00428   0.99801   0.06290
           Z            0.00253  -0.06289   0.99802
 This molecule is an asymmetric top.
 Rotational symmetry number  1.
 Warning -- assumption of classical behavior for rotation
           may cause significant error
 Rotational temperatures (Kelvin)      0.04175     0.01152     0.01062
 Rotational constants (GHZ):           0.86992     0.24000     0.22123
 Zero-point vibrational energy     653237.6 (Joules/Mol)
                                  156.12754 (Kcal/Mol)
 Warning -- explicit consideration of  26 degrees of freedom as
           vibrations may cause significant error
 Vibrational temperatures:     26.02    34.26    47.43    81.38   109.16
          (Kelvin)            164.37   206.38   218.92   258.69   291.99
                              326.12   404.94   455.00   487.32   516.49
                              541.76   568.37   640.44   689.96   706.95
                              766.35   796.30   804.20   815.73   853.90
                              881.70   942.77   993.83  1012.84  1069.30
                             1171.92  1233.46  1272.77  1279.52  1328.26
                             1354.33  1369.69  1437.90  1448.28  1456.09
                             1508.70  1531.10  1593.97  1605.64  1625.53
                             1669.65  1680.36  1686.75  1739.30  1745.31
                             1766.25  1828.14  1863.79  1889.49  1893.78
                             1925.69  1936.02  1972.33  1984.50  1991.78
                             2023.25  2058.40  2079.53  2099.90  2120.69
                             2156.54  2163.19  2188.40  2198.75  2206.38
                             2241.66  2275.38  2550.36  4323.48  4360.98
                             4384.08  4397.80  4440.35  4449.36  4449.84
                             4498.27  4526.66  4596.54  4730.46  4747.77
                             5097.93  5263.73

 Zero-point correction=                           0.248805 (Hartree/Particle)
 Thermal correction to Energy=                    0.264941
 Thermal correction to Enthalpy=                  0.265885
 Thermal correction to Gibbs Free Energy=         0.202226
 Sum of electronic and zero-point Energies=          -1193.987992
 Sum of electronic and thermal Energies=             -1193.971856
 Sum of electronic and thermal Enthalpies=           -1193.970912
 Sum of electronic and thermal Free Energies=        -1194.034571

                     E (Thermal)             CV                S
                      KCal/Mol        Cal/Mol-Kelvin    Cal/Mol-Kelvin
 Total                  166.253             60.004            133.982
 Electronic               0.000              0.000              0.000
 Translational            0.889              2.981             42.544
 Rotational               0.889              2.981             33.209
 Vibrational            164.475             54.043             58.229
 Vibration     1          0.593              1.986              6.834
 Vibration     2          0.593              1.985              6.288
 Vibration     3          0.594              1.983              5.642
 Vibration     4          0.596              1.975              4.574
 Vibration     5          0.599              1.965              3.995
 Vibration     6          0.607              1.938              3.196
 Vibration     7          0.616              1.910              2.757
 Vibration     8          0.619              1.900              2.645
 Vibration     9          0.629              1.867              2.330
 Vibration    10          0.639              1.836              2.106
 Vibration    11          0.650              1.800              1.905
 Vibration    12          0.681              1.708              1.525
 Vibration    13          0.703              1.643              1.329
 Vibration    14          0.719              1.598              1.218
 Vibration    15          0.734              1.557              1.127
 Vibration    16          0.747              1.520              1.053
 Vibration    17          0.762              1.481              0.981
 Vibration    18          0.805              1.372              0.811
 Vibration    19          0.836              1.295              0.711
 Vibration    20          0.847              1.269              0.680
 Vibration    21          0.888              1.178              0.581
 Vibration    22          0.909              1.132              0.537
 Vibration    23          0.915              1.120              0.526
 Vibration    24          0.923              1.103              0.510
 Vibration    25          0.951              1.046              0.461
 Vibration    26          0.972              1.005              0.428

                           ! Non-Optimized Parameters !
 Normal termination of Gaussian 16 at Sun Dec 13 20:42:21 2020.

 ----------------------------------------------------------------------
 # B3LYP/6-311++G(d,p) empiricaldispersion=gd3bj scf=xqc pop=npa geom=c
 heck
 ----------------------------------------------------------------------

 --------------------------------------
 CID_64668254_JID_7357_Energie_neutraal
 --------------------------------------
 Structure from the checkpoint file:  "JID_7357.chk"
 Charge =  0 Multiplicity = 1

 SCF Done:  E(RB3LYP) =  -1194.49390880     A.U. after   16 cycles
 Normal termination of Gaussian 16 at Sun Dec 13 20:48:45 2020.

 ----------------------------------------------------------------------
 # B3LYP/6-311++G(d,p) empiricaldispersion=gd3bj scf=xqc pop=npa geom=c
 heck
 ----------------------------------------------------------------------

 ------------------------------------
 CID_64668254_JID_7357_Energie_kation
 ------------------------------------
 Structure from the checkpoint file:  "JID_7357.chk"
 Charge =  1 Multiplicity = 2

 SCF Done:  E(UB3LYP) =  -1194.16861583     A.U. after   33 cycles
 SCF Done:  E(UB3LYP) =  -1194.16861583     a.u. after    1 cycles
 Normal termination of Gaussian 16 at Sun Dec 13 21:07:36 2020.
 Gaussian 16:  ES64L-G16RevA.03 25-Dec-2016

 ----------------------------------------------------------------------
 # B3LYP/6-311++G(d,p) empiricaldispersion=gd3bj scf=xqc pop=npa geom=c
 heck
 ----------------------------------------------------------------------

 -----------------------------------
 CID_64668254_JID_7357_Energie_anion
 -----------------------------------
 Structure from the checkpoint file:  "JID_7357.chk"
 Charge = -1 Multiplicity = 2

                         Standard orientation:
 ---------------------------------------------------------------------
 Center     Atomic      Atomic             Coordinates (Angstroms)
 Number     Number       Type             X           Y           Z
 ---------------------------------------------------------------------
      1          6           0        3.612389    2.150289    0.653589
      2          7           0        2.848663    1.038436    0.105710
      3          6           0        1.650824    1.411796   -0.646319
      4          6           0        0.705973    0.229857   -0.838678
      5          6           0        1.482364   -0.924028   -1.484724
      6          6           0        2.649941   -1.338249   -0.587430
      7          6           0        3.462179   -0.196534    0.017748
      8          8           0        4.579015   -0.402115    0.476642
      9          7           0        0.104165   -0.077439    0.470630
     10         16           0       -1.249473   -1.072286    0.553054
     11          8           0       -1.232746   -2.100261   -0.494179
     12          8           0       -1.355208   -1.429066    1.969097
     13          6           0       -2.539877    0.034271    0.117941
     14          6           0       -3.109881    1.005160    0.924658
     15          7           0       -4.058828    1.587953    0.161185
     16          7           0       -4.154949    1.066180   -1.087452
     17          6           0       -3.228205    0.114117   -1.117168
     18          1           0        4.461251    1.745588    1.202160
     19          1           0        3.983535    2.808138   -0.144924
     20          1           0        2.977187    2.740320    1.323552
     21          1           0        1.137178    2.203692   -0.091710
     22          1           0        1.927346    1.820596   -1.630934
     23          1           0       -0.113744    0.552250   -1.489442
     24          1           0        0.820375   -1.771141   -1.672727
     25          1           0        1.859231   -0.572574   -2.453991
     26          1           0        2.283998   -1.938889    0.256504
     27          1           0        3.358271   -1.979333   -1.118151
     28          1           0        0.764056   -0.349946    1.195884
     29          1           0       -2.910162    1.289777    1.946601
     30          1           0       -4.693712    2.327528    0.425394
     31          1           0       -3.079322   -0.493865   -1.997767
 ---------------------------------------------------------------------

 SCF Done:  E(UB3LYP) =  -1194.49383270     A.U. after   33 cycles
 SCF Done:  E(UB3LYP) =  -1194.49383270     a.u. after    1 cycles

 The electronic state is 2-A.
 Alpha  occ. eigenvalues --  -88.98668 -19.03494 -19.03429 -19.00485 -14.31254
 Alpha  occ. eigenvalues --  -14.26541 -14.26017 -14.25953 -10.19057 -10.14474
 Alpha  occ. eigenvalues --  -10.14352 -10.13136 -10.12440 -10.11622 -10.11513
 Alpha  occ. eigenvalues --  -10.10196 -10.09447  -8.04735  -6.01020  -6.00978
 Alpha  occ. eigenvalues --   -6.00857  -1.03883  -0.97546  -0.95857  -0.92834
 Alpha  occ. eigenvalues --   -0.86990  -0.84127  -0.74998  -0.73332  -0.72000
 Alpha  occ. eigenvalues --   -0.67482  -0.62936  -0.60816  -0.58004  -0.54381
 Alpha  occ. eigenvalues --   -0.53319  -0.50867  -0.48051  -0.46531  -0.44579
 Alpha  occ. eigenvalues --   -0.42167  -0.41031  -0.39805  -0.39289  -0.38867
 Alpha  occ. eigenvalues --   -0.38217  -0.37718  -0.36866  -0.36665  -0.34697
 Alpha  occ. eigenvalues --   -0.33728  -0.32978  -0.32343  -0.31592  -0.31142
 Alpha  occ. eigenvalues --   -0.28347  -0.27646  -0.26584  -0.26186  -0.24978
 Alpha  occ. eigenvalues --   -0.24477  -0.22812  -0.21806  -0.20745  -0.19290
 Alpha  occ. eigenvalues --   -0.18030  -0.17229  -0.16652   0.03325
 Alpha virt. eigenvalues --    0.05259   0.06687   0.06974   0.07547   0.08166
 Alpha virt. eigenvalues --    0.08418   0.08964   0.09372   0.09619   0.10223
 Alpha virt. eigenvalues --    0.10643   0.11193   0.11653   0.12648   0.12855

  Beta  occ. eigenvalues --  -88.98664 -19.03487 -19.03423 -19.00468 -14.31174
  Beta  occ. eigenvalues --  -14.26546 -14.26009 -14.25952 -10.19043 -10.14468
  Beta  occ. eigenvalues --  -10.14328 -10.13099 -10.12436 -10.11615 -10.11491
  Beta  occ. eigenvalues --  -10.10194 -10.09433  -8.04730  -6.01016  -6.00975
  Beta  occ. eigenvalues --   -6.00854  -1.03863  -0.97487  -0.95829  -0.92814
  Beta  occ. eigenvalues --   -0.86974  -0.84114  -0.74910  -0.73303  -0.71965
  Beta  occ. eigenvalues --   -0.67445  -0.62899  -0.60762  -0.57963  -0.54324
  Beta  occ. eigenvalues --   -0.53240  -0.50831  -0.47972  -0.46503  -0.44531
  Beta  occ. eigenvalues --   -0.42128  -0.40992  -0.39777  -0.39263  -0.38838
  Beta  occ. eigenvalues --   -0.38171  -0.37672  -0.36824  -0.36626  -0.34670
  Beta  occ. eigenvalues --   -0.33697  -0.32943  -0.32316  -0.31563  -0.31100
  Beta  occ. eigenvalues --   -0.28327  -0.27620  -0.26549  -0.26166  -0.24961
  Beta  occ. eigenvalues --   -0.24468  -0.22798  -0.21790  -0.20715  -0.19261
  Beta  occ. eigenvalues --   -0.18010  -0.17212  -0.16618
  Beta virt. eigenvalues --    0.05742   0.06915   0.07093   0.07270   0.07716
  Beta virt. eigenvalues --    0.08358   0.08936   0.09273   0.09420   0.10163
  Beta virt. eigenvalues --    0.10559   0.10776   0.11448   0.11702   0.12684

 Mulliken charges and spin densities:
               1          2
     1  C    0.284033  -0.562810
     2  N   -0.148469   0.188928
     3  C    0.808790  -1.426409
     4  C   -0.980388   0.825255
     5  C   -0.390426  -0.070031
     6  C   -0.020904  -0.281364
     7  C   -0.205341   0.080071
     8  O   -0.354538   0.004996
     9  N   -0.059454  -0.029760
    10  S    1.651965  -1.206961
    11  O   -0.147092  -0.007279
    12  O   -0.237411   0.013234
    13  C   -0.206838  -0.606391
    14  C    0.277383  -0.044765
    15  N    0.363590  -0.418640
    16  N   -0.205438   0.091192
    17  C   -0.503031   0.442898
    18  H    0.142504   0.032544
    19  H   -0.110354   0.263070
    20  H   -0.049426   0.204509
    21  H   -0.124206   0.338899
    22  H   -0.291587   0.502580
    23  H   -0.033490   0.280522
    24  H    0.166893   0.052203
    25  H   -0.123131   0.290602
    26  H    0.222572   0.020077
    27  H    0.184897   0.013056
    28  H    0.267526   0.049669
    29  H   -0.669319   0.896434
    30  H   -0.602433   0.975984
    31  H    0.093123   0.087686
 Sum of Mulliken charges =  -1.00000   1.00000

 Dipole moment (field-independent basis, Debye):
    X=              4.5125    Y=             -4.6596    Z=             -1.6259  Tot=              6.6872
 Quadrupole moment (field-independent basis, Debye-Ang):
   XX=           -206.3010   YY=           -158.2178   ZZ=           -142.1206
   XY=             17.8382   XZ=              5.9527   YZ=              2.7218

 Summary of Natural Population Analysis:

                                       Natural Population
                Natural  -----------------------------------------------
    Atom  No    Charge         Core      Valence    Rydberg      Total
 -----------------------------------------------------------------------
      C    1   -0.18031      0.99964     2.17259    0.00808     3.18031
      N    2   -0.26130      0.99965     2.75167    0.00998     3.76130
      C    3   -0.07987      0.99958     2.06851    0.01178     3.07987
      C    4   -0.02255      0.99957     2.00768    0.01529     3.02255
      C    5   -0.20188      0.99960     2.19341    0.00886     3.20188
      C    6   -0.23551      0.99959     2.22735    0.00857     3.23551
      C    7    0.34848      0.99964     1.62955    0.02234     2.65152
      O    8   -0.32525      0.99988     3.31987    0.00550     4.32525
      N    9   -0.43967      0.99974     2.92655    0.01338     3.93967
      S   10    1.11698      4.99915     1.78172    0.10215     6.88302
      O   11   -0.46603      0.99991     3.46107    0.00505     4.46603
      O   12   -0.46135      0.99991     3.45631    0.00514     4.46135
      C   13   -0.21751      0.99935     2.20244    0.01571     3.21751
      C   14    0.02020      0.99950     1.96667    0.01363     2.97980
      N   15   -0.15422      0.99970     2.64027    0.01425     3.65422
      N   16   -0.14668      0.99974     2.63312    0.01381     3.64668
      C   17   -0.00034      0.99956     1.98622    0.01456     3.00034
      H   18    0.11452      0.00000     0.38450    0.00099     0.38548
      H   19    0.09365      0.00000     0.40523    0.00112     0.40635
      H   20    0.09657      0.00000     0.40248    0.00095     0.40343
      H   21    0.10781      0.00000     0.39032    0.00187     0.39219
      H   22    0.09898      0.00000     0.39853    0.00249     0.40102
      H   23    0.11066      0.00000     0.38732    0.00202     0.38934
      H   24    0.11774      0.00000     0.38109    0.00117     0.38226
      H   25    0.10094      0.00000     0.39800    0.00106     0.39906
      H   26    0.11007      0.00000     0.38868    0.00125     0.38993
      H   27    0.11441      0.00000     0.38455    0.00104     0.38559
      H   28    0.19969      0.00000     0.29818    0.00213     0.30031
      H   29    0.11964      0.00000     0.37807    0.00229     0.38036
      H   30    0.21409      0.00000     0.25559    0.03033     0.28591
      H   31    0.10803      0.00000     0.39093    0.00104     0.39197
 =======================================================================
   * Total *   -0.00000     20.99370    46.66848    0.33781    68.00000

 Normal termination of Gaussian 16 at Sun Dec 13 21:25:46 2020.
