 Gaussian 16, Revision A.03,

 -----------------------------------------------------------
 # opt freq B3LYP/6-31G(d) empiricaldispersion=gd3bj scf=xqc
 -----------------------------------------------------------

 -----------------------------
 CID_88351469_JID_480_neutraal
 -----------------------------
 Symbolic Z-matrix:
 Charge =  0 Multiplicity = 1

 SCF Done:  E(RB3LYP) =  -516.940215708     A.U. after   14 cycles
 SCF Done:  E(RB3LYP) =  -516.944226074     A.U. after   14 cycles
 SCF Done:  E(RB3LYP) =  -516.832175645     A.U. after   16 cycles
 SCF Done:  E(RB3LYP) =  -516.944167596     A.U. after   13 cycles
 SCF Done:  E(RB3LYP) =  -516.946255872     A.U. after   11 cycles
 SCF Done:  E(RB3LYP) =  -516.948104566     A.U. after   13 cycles
 SCF Done:  E(RB3LYP) =  -516.949707985     A.U. after   15 cycles
 SCF Done:  E(RB3LYP) =  -516.951068330     A.U. after   13 cycles
 SCF Done:  E(RB3LYP) =  -516.951275463     A.U. after   12 cycles
 SCF Done:  E(RB3LYP) =  -516.951317366     A.U. after   13 cycles
 SCF Done:  E(RB3LYP) =  -516.952675536     A.U. after    8 cycles
 SCF Done:  E(RB3LYP) =  -516.952676385     A.U. after    8 cycles
 SCF Done:  E(RB3LYP) =  -516.952676749     A.U. after    8 cycles
 SCF Done:  E(RB3LYP) =  -516.952677014     A.U. after    8 cycles
 SCF Done:  E(RB3LYP) =  -516.952677108     A.U. after    7 cycles
 SCF Done:  E(RB3LYP) =  -516.952677169     A.U. after    7 cycles
 Optimization completed.
    -- Stationary point found.
 Normal termination of Gaussian 16 at Tue Dec  8 11:03:59 2020.

 --------------------------------------------------------------------
 #N Geom=AllCheck Guess=TCheck SCRF=Check GenChk RB3LYP/6-31G(d) Freq
 --------------------------------------------------------------------

 Structure from the checkpoint file:  "JID_480.chk"
 -----------------------------
 CID_88351469_JID_480_neutraal
 -----------------------------
 Charge =  0 Multiplicity = 1

 SCF Done:  E(RB3LYP) =  -516.952677169     A.U. after    1 cycles

  Exact polarizability:  84.397  -0.195  78.573  -3.174   5.024  73.810
 Approx polarizability: 108.268  -5.966 103.910 -11.296  16.707 119.013

                      1                      2                      3
                      A                      A                      A
 Frequencies --     42.6919                50.0419                58.7592
 Red. masses --      4.8144                 5.3449                 3.7076
 Frc consts  --      0.0052                 0.0079                 0.0075
 IR Inten    --      3.4852                 8.2368                 0.8628

                      4                      5                      6
                      A                      A                      A
 Frequencies --     81.1056               109.8835               121.8749
 Red. masses --      4.3520                 3.8485                 2.6185
 Frc consts  --      0.0169                 0.0274                 0.0229
 IR Inten    --      1.3890                 8.8180                39.1744

                      7                      8                      9
                      A                      A                      A
 Frequencies --    129.7844               164.0386               194.6401
 Red. masses --      3.0589                 3.4071                 1.0555
 Frc consts  --      0.0304                 0.0540                 0.0236
 IR Inten    --     25.3243                17.4776                 0.4136

                     10                     11                     12
                      A                      A                      A
 Frequencies --    223.6023               238.0487               249.2950
 Red. masses --      4.3596                 1.1769                 1.0315
 Frc consts  --      0.1284                 0.0393                 0.0378
 IR Inten    --     10.7205                 0.5172                 0.5149

                     13                     14                     15
                      A                      A                      A
 Frequencies --    316.9478               366.0074               412.6314
 Red. masses --      2.5656                 1.1459                 2.4927
 Frc consts  --      0.1518                 0.0904                 0.2501
 IR Inten    --      4.9029               118.3536                 2.3912

                     16                     17                     18
                      A                      A                      A
 Frequencies --    427.7518               479.6771               596.7171
 Red. masses --      3.3092                 2.8650                 2.7401
 Frc consts  --      0.3567                 0.3884                 0.5748
 IR Inten    --      6.6030                 5.4744                11.3191

                     19                     20                     21
                      A                      A                      A
 Frequencies --    603.7226               671.2902               789.1903
 Red. masses --      2.9280                 3.0722                 2.8301
 Frc consts  --      0.6288                 0.8157                 1.0385
 IR Inten    --      3.5171                 2.5967                 4.2612

                     22                     23                     24
                      A                      A                      A
 Frequencies --    796.1105               894.6536               952.1631
 Red. masses --      1.4063                 2.8448                 1.1841
 Frc consts  --      0.5251                 1.3415                 0.6325
 IR Inten    --     44.6570                11.9706                 2.8281

                     25                     26                     27
                      A                      A                      A
 Frequencies --    953.7197               962.9043              1046.7810
 Red. masses --      2.2055                 1.7284                 1.6329
 Frc consts  --      1.1819                 0.9442                 1.0542
 IR Inten    --     14.5811                 6.0154                18.4741

                     28                     29                     30
                      A                      A                      A
 Frequencies --   1053.4064              1082.6241              1087.8262
 Red. masses --      1.6642                 1.7263                 1.6493
 Frc consts  --      1.0880                 1.1921                 1.1499
 IR Inten    --     48.4879                16.8923                 1.1819

                     31                     32                     33
                      A                      A                      A
 Frequencies --   1172.8510              1179.5877              1221.3991
 Red. masses --      2.1205                 1.9810                 1.9554
 Frc consts  --      1.7186                 1.6241                 1.7187
 IR Inten    --     11.1670               120.3863                 3.9388

                     34                     35                     36
                      A                      A                      A
 Frequencies --   1257.1074              1319.6065              1389.1322
 Red. masses --      3.1827                 2.7313                 1.3384
 Frc consts  --      2.9634                 2.8022                 1.5217
 IR Inten    --    291.6581               115.3670                 4.4680

                     37                     38                     39
                      A                      A                      A
 Frequencies --   1417.8464              1428.9505              1430.0737
 Red. masses --      1.2330                 1.3266                 1.3183
 Frc consts  --      1.4604                 1.5960                 1.5885
 IR Inten    --     21.5888                35.1474                28.7054

                     40                     41                     42
                      A                      A                      A
 Frequencies --   1435.5549              1446.8498              1504.9953
 Red. masses --      1.2325                 1.2387                 1.0515
 Frc consts  --      1.4965                 1.5278                 1.4033
 IR Inten    --      7.8522                28.2588                 6.7002

                     43                     44                     45
                      A                      A                      A
 Frequencies --   1510.1671              1514.5315              1522.0318
 Red. masses --      1.0486                 1.0520                 1.0496
 Frc consts  --      1.4090                 1.4218                 1.4327
 IR Inten    --      1.6572                14.9870                 7.3867

                     46                     47                     48
                      A                      A                      A
 Frequencies --   1531.7453              1551.6028              1647.1053
 Red. masses --      1.0484                 1.0549                 1.2433
 Frc consts  --      1.4493                 1.4963                 1.9873
 IR Inten    --      0.2176                 8.3468                23.5848

                     49                     50                     51
                      A                      A                      A
 Frequencies --   1813.9159              1837.8508              2967.8787
 Red. masses --      6.1283                10.6185                 1.0859
 Frc consts  --     11.8801                21.1317                 5.6357
 IR Inten    --    320.3130               216.9740               149.0979

                     52                     53                     54
                      A                      A                      A
 Frequencies --   3060.8432              3064.9138              3066.9947
 Red. masses --      1.0402                 1.0494                 1.0372
 Frc consts  --      5.7420                 5.8079                 5.7481
 IR Inten    --     17.1769                15.7157                 5.1699

                     55                     56                     57
                      A                      A                      A
 Frequencies --   3073.5855              3123.9298              3136.1016
 Red. masses --      1.0736                 1.1018                 1.1003
 Frc consts  --      5.9757                 6.3350                 6.3757
 IR Inten    --     33.2960                25.1425                16.1492

                     58                     59                     60
                      A                      A                      A
 Frequencies --   3137.9343              3169.4921              3173.8364
 Red. masses --      1.0998                 1.1014                 1.1000
 Frc consts  --      6.3807                 6.5191                 6.5283
 IR Inten    --      6.2733                 1.7269                14.7602

                     61                     62                     63
                      A                      A                      A
 Frequencies --   3181.1756              3496.4635              3687.8655
 Red. masses --      1.1037                 1.0546                 1.0972
 Frc consts  --      6.5807                 7.5963                 8.7923
 IR Inten    --      7.6595               260.7556                96.4946

 - Thermochemistry -
 -------------------
 Temperature   298.150 Kelvin.  Pressure   1.00000 Atm.
 Atom     1 has atomic number  6 and mass  12.00000

 Molecular mass:   147.08954 amu.
 Principal axes and moments of inertia in atomic units:
                           1         2         3
     Eigenvalues --  1114.006582120.670462562.37096
           X            0.99926   0.03700  -0.01036
           Y           -0.03729   0.99889  -0.02882
           Z            0.00928   0.02918   0.99953
 This molecule is an asymmetric top.
 Rotational symmetry number  1.
 Warning -- assumption of classical behavior for rotation
           may cause significant error
 Rotational temperatures (Kelvin)      0.07775     0.04084     0.03380
 Rotational constants (GHZ):           1.62005     0.85102     0.70432
 Zero-point vibrational energy     512192.0 (Joules/Mol)
                                  122.41682 (Kcal/Mol)
 Warning -- explicit consideration of  19 degrees of freedom as
           vibrations may cause significant error
 Vibrational temperatures:     61.42    72.00    84.54   116.69   158.10
          (Kelvin)            175.35   186.73   236.01   280.04   321.71
                              342.50   358.68   456.02   526.60   593.68
                              615.44   690.15   858.54   868.62   965.84
                             1135.47  1145.43  1287.21  1369.95  1372.19
                             1385.40  1506.08  1515.62  1557.65  1565.14
                             1687.47  1697.16  1757.32  1808.70  1898.62
                             1998.65  2039.96  2055.94  2057.56  2065.44
                             2081.69  2165.35  2172.79  2179.07  2189.86
                             2203.84  2232.41  2369.82  2609.82  2644.26
                             4270.12  4403.87  4409.73  4412.72  4422.20
                             4494.64  4512.15  4514.79  4560.19  4566.44
                             4577.00  5030.63  5306.02

 Zero-point correction=                           0.195084 (Hartree/Particle)
 Thermal correction to Energy=                    0.208599
 Thermal correction to Enthalpy=                  0.209543
 Thermal correction to Gibbs Free Energy=         0.154178
 Sum of electronic and zero-point Energies=           -516.757594
 Sum of electronic and thermal Energies=              -516.744078
 Sum of electronic and thermal Enthalpies=            -516.743134
 Sum of electronic and thermal Free Energies=         -516.798499

                     E (Thermal)             CV                S
                      KCal/Mol        Cal/Mol-Kelvin    Cal/Mol-Kelvin
 Total                  130.898             45.403            116.526
 Electronic               0.000              0.000              0.000
 Translational            0.889              2.981             40.868
 Rotational               0.889              2.981             30.183
 Vibrational            129.120             39.442             45.475
 Vibration     1          0.595              1.980              5.130
 Vibration     2          0.595              1.978              4.816
 Vibration     3          0.596              1.974              4.498
 Vibration     4          0.600              1.962              3.864
 Vibration     5          0.606              1.941              3.271
 Vibration     6          0.609              1.931              3.070
 Vibration     7          0.612              1.924              2.949
 Vibration     8          0.623              1.887              2.503
 Vibration     9          0.635              1.847              2.183
 Vibration    10          0.649              1.805              1.930
 Vibration    11          0.656              1.782              1.817
 Vibration    12          0.662              1.764              1.736
 Vibration    13          0.704              1.641              1.326
 Vibration    14          0.739              1.542              1.096
 Vibration    15          0.776              1.443              0.917
 Vibration    16          0.789              1.410              0.866
 Vibration    17          0.836              1.295              0.711
 Vibration    18          0.955              1.039              0.455
 Vibration    19          0.962              1.024              0.443

                           ! Non-Optimized Parameters !
 Normal termination of Gaussian 16 at Tue Dec  8 11:08:37 2020.

 ----------------------------------------------------------------------
 # B3LYP/6-311++G(d,p) empiricaldispersion=gd3bj scf=xqc pop=npa geom=c
 heck
 ----------------------------------------------------------------------

 -------------------------------------
 CID_88351469_JID_480_Energie_neutraal
 -------------------------------------
 Structure from the checkpoint file:  "JID_480.chk"
 Charge =  0 Multiplicity = 1

 SCF Done:  E(RB3LYP) =  -517.120119045     A.U. after   14 cycles
 Normal termination of Gaussian 16 at Tue Dec  8 11:11:01 2020.

 ----------------------------------------------------------------------
 # B3LYP/6-311++G(d,p) empiricaldispersion=gd3bj scf=xqc pop=npa geom=c
 heck
 ----------------------------------------------------------------------

 -----------------------------------
 CID_88351469_JID_480_Energie_kation
 -----------------------------------
 Structure from the checkpoint file:  "JID_480.chk"
 Charge =  1 Multiplicity = 2

 SCF Done:  E(UB3LYP) =  -516.775704549     A.U. after   29 cycles
 Normal termination of Gaussian 16 at Tue Dec  8 11:18:16 2020.
 Gaussian 16:  ES64L-G16RevA.03 25-Dec-2016

 ----------------------------------------------------------------------
 # B3LYP/6-311++G(d,p) empiricaldispersion=gd3bj scf=xqc pop=npa geom=c
 heck
 ----------------------------------------------------------------------

 ----------------------------------
 CID_88351469_JID_480_Energie_anion
 ----------------------------------
 Structure from the checkpoint file:  "JID_480.chk"
 Charge = -1 Multiplicity = 2

                         Standard orientation:
 ---------------------------------------------------------------------
 Center     Atomic      Atomic             Coordinates (Angstroms)
 Number     Number       Type             X           Y           Z
 ---------------------------------------------------------------------
      1          6           0       -1.016597   -1.422463    1.194987
      2          6           0       -1.284058   -1.070645   -0.264931
      3          6           0       -2.758246   -0.928580   -0.623395
      4          8           0       -0.517625    0.112101   -0.672035
      5          6           0       -0.696918    1.291274   -0.013151
      6          8           0       -1.587041    1.495643    0.779619
      7          6           0        0.385624    2.271853   -0.382229
      8          6           0        2.878700   -0.605622    0.135292
      9          8           0        2.404036   -0.016254    1.095712
     10          7           0        2.249727   -0.791159   -1.050034
     11          1           0       -1.530621   -0.733067    1.866758
     12          1           0        0.056417   -1.378182    1.404500
     13          1           0       -1.373726   -2.439582    1.391712
     14          1           0       -0.834664   -1.840040   -0.901519
     15          1           0       -3.240125   -0.176124    0.002645
     16          1           0       -2.872644   -0.643845   -1.674498
     17          1           0       -3.261295   -1.890569   -0.473025
     18          1           0        1.292530    1.976651    0.158421
     19          1           0        0.601282    2.242976   -1.453967
     20          1           0        0.086259    3.275791   -0.079431
     21          1           0        3.895995   -1.044607    0.155649
     22          1           0        2.692028   -1.303531   -1.797943
     23          1           0        1.294483   -0.454577   -1.154871
 ---------------------------------------------------------------------

 SCF Done:  E(UB3LYP) =  -517.109627822     A.U. after   28 cycles

 The electronic state is 2-A.
 Alpha  occ. eigenvalues --  -19.06560 -19.01392 -18.98772 -14.21993 -10.20733
 Alpha  occ. eigenvalues --  -10.16489 -10.13422 -10.07689 -10.06188 -10.05781
 Alpha  occ. eigenvalues --   -1.00336  -0.93206  -0.92309  -0.79523  -0.70009
 Alpha  occ. eigenvalues --   -0.64357  -0.59453  -0.54108  -0.51258  -0.44294
 Alpha  occ. eigenvalues --   -0.43151  -0.40324  -0.38569  -0.37732  -0.36947
 Alpha  occ. eigenvalues --   -0.34425  -0.32749  -0.32159  -0.31470  -0.30797
 Alpha  occ. eigenvalues --   -0.29960  -0.29484  -0.27505  -0.26397  -0.25427
 Alpha  occ. eigenvalues --   -0.24127  -0.20896  -0.17805  -0.16842  -0.15918
 Alpha  occ. eigenvalues --    0.04600
 Alpha virt. eigenvalues --    0.07137   0.07959   0.08839   0.09405   0.09881
 Alpha virt. eigenvalues --    0.10889   0.10963   0.11296   0.11330   0.12912
 Alpha virt. eigenvalues --    0.13436   0.14091   0.14688   0.14957   0.16193

  Beta  occ. eigenvalues --  -19.06558 -19.01388 -18.98759 -14.21919 -10.20730
  Beta  occ. eigenvalues --  -10.16470 -10.13401 -10.07674 -10.06161 -10.05769
  Beta  occ. eigenvalues --   -1.00328  -0.93176  -0.92300  -0.79412  -0.69976
  Beta  occ. eigenvalues --   -0.64332  -0.59413  -0.54077  -0.51150  -0.44137
  Beta  occ. eigenvalues --   -0.43108  -0.40277  -0.38545  -0.37709  -0.36882
  Beta  occ. eigenvalues --   -0.34389  -0.32725  -0.32138  -0.31437  -0.30769
  Beta  occ. eigenvalues --   -0.29938  -0.29461  -0.27484  -0.26369  -0.25404
  Beta  occ. eigenvalues --   -0.24094  -0.20883  -0.17794  -0.16787  -0.15828
  Beta virt. eigenvalues --    0.07303   0.08250   0.08593   0.09181   0.10093
  Beta virt. eigenvalues --    0.10130   0.11195   0.11340   0.11646   0.11977
  Beta virt. eigenvalues --    0.12986   0.13898   0.14030   0.14798   0.14948

 Mulliken charges and spin densities:
               1          2
     1  C    0.109163  -0.563300
     2  C   -0.555616   0.586225
     3  C    0.963261  -1.492746
     4  O   -0.020055  -0.011513
     5  C   -0.294873   0.442117
     6  O   -0.263668   0.001534
     7  C    0.441817  -1.031249
     8  C    0.595813  -0.551580
     9  O   -0.357576  -0.016753
    10  N   -0.047643  -0.335137
    11  H    0.106453   0.053723
    12  H    0.257403  -0.110629
    13  H   -0.119383   0.263422
    14  H   -0.850230   1.052176
    15  H    0.032945   0.134851
    16  H   -0.180342   0.331253
    17  H   -0.164032   0.315718
    18  H    0.194315   0.016921
    19  H   -0.298230   0.472202
    20  H    0.172730  -0.023162
    21  H   -0.564487   0.654846
    22  H   -0.756865   1.071859
    23  H    0.599101  -0.260777
 Sum of Mulliken charges =  -1.00000   1.00000

 Dipole moment (field-independent basis, Debye):
    X=             -3.6582    Y=              4.7418    Z=              4.1292  Tot=              7.2745
 Quadrupole moment (field-independent basis, Debye-Ang):
   XX=           -116.6618   YY=            -99.7843   ZZ=           -101.6932
   XY=              6.7066   XZ=              7.5963   YZ=            -12.0388

 Summary of Natural Population Analysis:

                                       Natural Population
                Natural  -----------------------------------------------
    Atom  No    Charge         Core      Valence    Rydberg      Total
 -----------------------------------------------------------------------
      C    1   -0.30418      0.99963     2.29872    0.00582     3.30418
      C    2    0.06294      0.99955     1.92289    0.01462     2.93706
      C    3   -0.29899      0.99963     2.29326    0.00609     3.29899
      O    4   -0.30328      0.99986     3.29074    0.01268     4.30328
      C    5    0.41607      0.99971     1.55848    0.02574     2.58393
      O    6   -0.30806      0.99987     3.30328    0.00491     4.30806
      C    7   -0.34042      0.99961     2.33557    0.00525     3.34042
      C    8    0.26661      0.99976     1.70857    0.02506     2.73339
      O    9   -0.32942      0.99988     3.32298    0.00655     4.32942
      N   10   -0.40054      0.99973     2.89048    0.01033     3.90054
      H   11    0.10614      0.00000     0.39299    0.00087     0.39386
      H   12    0.11349      0.00000     0.38535    0.00116     0.38651
      H   13    0.10186      0.00000     0.39739    0.00075     0.39814
      H   14    0.09656      0.00000     0.39998    0.00346     0.40344
      H   15    0.10759      0.00000     0.39147    0.00094     0.39241
      H   16    0.10362      0.00000     0.39528    0.00110     0.39638
      H   17    0.10291      0.00000     0.39600    0.00109     0.39709
      H   18    0.12911      0.00000     0.36974    0.00115     0.37089
      H   19    0.11198      0.00000     0.38684    0.00118     0.38802
      H   20    0.10581      0.00000     0.39353    0.00066     0.39419
      H   21    0.05083      0.00000     0.44712    0.00205     0.44917
      H   22    0.20352      0.00000     0.26199    0.03449     0.29648
      H   23    0.20585      0.00000     0.29032    0.00383     0.29415
 =======================================================================
   * Total *    0.00000      9.99723    29.83297    0.16980    40.00000

 Normal termination of Gaussian 16 at Tue Dec  8 11:23:58 2020.
