 Gaussian 16, Revision A.03,

 -----------------------------------------------------------
 # opt freq B3LYP/6-31G(d) empiricaldispersion=gd3bj scf=xqc
 -----------------------------------------------------------

 ------------------------------
 CID_61177710_JID_5018_neutraal
 ------------------------------
 Symbolic Z-matrix:
 Charge =  0 Multiplicity = 1

 SCF Done:  E(RB3LYP) =  -684.923810297     A.U. after   14 cycles
 SCF Done:  E(RB3LYP) =  -684.929650383     A.U. after   13 cycles
 SCF Done:  E(RB3LYP) =  -684.929669585     A.U. after   13 cycles
 SCF Done:  E(RB3LYP) =  -684.931369317     A.U. after   12 cycles
 SCF Done:  E(RB3LYP) =  -684.931777099     A.U. after   12 cycles
 SCF Done:  E(RB3LYP) =  -684.932153754     A.U. after   12 cycles
 SCF Done:  E(RB3LYP) =  -684.932610434     A.U. after   12 cycles
 SCF Done:  E(RB3LYP) =  -684.932981598     A.U. after   11 cycles
 SCF Done:  E(RB3LYP) =  -684.933158806     A.U. after   11 cycles
 SCF Done:  E(RB3LYP) =  -684.933298170     A.U. after   11 cycles
 SCF Done:  E(RB3LYP) =  -684.933809794     A.U. after   10 cycles
 SCF Done:  E(RB3LYP) =  -684.933825015     A.U. after   10 cycles
 SCF Done:  E(RB3LYP) =  -684.933825596     A.U. after    9 cycles
 SCF Done:  E(RB3LYP) =  -684.933825647     A.U. after    7 cycles
 SCF Done:  E(RB3LYP) =  -684.933825717     A.U. after    7 cycles
 Optimization completed.
    -- Stationary point found.
 Normal termination of Gaussian 16 at Thu Dec 10 15:02:20 2020.

 --------------------------------------------------------------------
 #N Geom=AllCheck Guess=TCheck SCRF=Check GenChk RB3LYP/6-31G(d) Freq
 --------------------------------------------------------------------

 Structure from the checkpoint file:  "JID_5018.chk"
 ------------------------------
 CID_61177710_JID_5018_neutraal
 ------------------------------
 Charge =  0 Multiplicity = 1

 SCF Done:  E(RB3LYP) =  -684.933825717     A.U. after    1 cycles

  Exact polarizability: 166.617  -3.469 157.163  -2.102  -2.995  95.220
 Approx polarizability: 245.190  -2.760 234.954  -7.795 -12.422 151.295

                      1                      2                      3
                      A                      A                      A
 Frequencies --     57.3017                63.1062                68.7598
 Red. masses --      2.2368                 4.1085                 1.3211
 Frc consts  --      0.0043                 0.0096                 0.0037
 IR Inten    --      0.1060                 0.6977                 0.3928

                      4                      5                      6
                      A                      A                      A
 Frequencies --     87.4366               109.0831               132.1980
 Red. masses --      2.8929                 1.8268                 1.5880
 Frc consts  --      0.0130                 0.0128                 0.0164
 IR Inten    --      1.0501                 3.9185                 0.8617

                      7                      8                      9
                      A                      A                      A
 Frequencies --    149.8587               167.1431               184.1477
 Red. masses --      1.3428                 2.1221                 3.2921
 Frc consts  --      0.0178                 0.0349                 0.0658
 IR Inten    --      0.8015                 1.3731                 2.0487

                     10                     11                     12
                      A                      A                      A
 Frequencies --    192.3865               214.8165               235.7713
 Red. masses --      1.8784                 2.5389                 2.1130
 Frc consts  --      0.0410                 0.0690                 0.0692
 IR Inten    --      0.5304                 1.5020                 3.2137

                     13                     14                     15
                      A                      A                      A
 Frequencies --    243.7376               259.6954               294.7724
 Red. masses --      3.5060                 3.5814                 3.2010
 Frc consts  --      0.1227                 0.1423                 0.1639
 IR Inten    --      2.5935                 3.0283                 1.4908

                     16                     17                     18
                      A                      A                      A
 Frequencies --    300.8510               371.0528               383.1481
 Red. masses --      2.9896                 1.2698                 1.8330
 Frc consts  --      0.1594                 0.1030                 0.1585
 IR Inten    --     12.7971                86.9776                19.0449

                     19                     20                     21
                      A                      A                      A
 Frequencies --    393.1575               412.4879               434.7763
 Red. masses --      2.7898                 1.7029                 3.4815
 Frc consts  --      0.2541                 0.1707                 0.3877
 IR Inten    --      3.5310                27.5864                 2.6267

                     22                     23                     24
                      A                      A                      A
 Frequencies --    485.8805               528.9236               538.1654
 Red. masses --      3.4054                 3.6626                 4.4647
 Frc consts  --      0.4737                 0.6037                 0.7619
 IR Inten    --     14.4084                 7.6944                 2.6239

                     25                     26                     27
                      A                      A                      A
 Frequencies --    568.5803               583.2525               635.6615
 Red. masses --      4.2833                 3.5902                 3.4453
 Frc consts  --      0.8158                 0.7196                 0.8202
 IR Inten    --     12.8347                 1.9741                10.0097

                     28                     29                     30
                      A                      A                      A
 Frequencies --    649.4798               669.0645               711.9939
 Red. masses --      3.3251                 2.8634                 4.9778
 Frc consts  --      0.8264                 0.7552                 1.4868
 IR Inten    --     46.3066                62.9002                 6.3641

                     31                     32                     33
                      A                      A                      A
 Frequencies --    741.5629               791.2626               840.0953
 Red. masses --      3.2844                 6.8335                 1.2354
 Frc consts  --      1.0642                 2.5208                 0.5137
 IR Inten    --     87.0997                17.9386                 6.3022

                     34                     35                     36
                      A                      A                      A
 Frequencies --    898.6884               963.9362               990.4275
 Red. masses --      4.5004                 6.0655                 4.8519
 Frc consts  --      2.1415                 3.3206                 2.8042
 IR Inten    --      1.9668                96.3713                 2.8759

                     37                     38                     39
                      A                      A                      A
 Frequencies --   1012.8777              1055.4936              1069.8133
 Red. masses --      1.7127                 1.5152                 1.5688
 Frc consts  --      1.0352                 0.9945                 1.0578
 IR Inten    --     22.4051                 5.0511                 6.9601

                     40                     41                     42
                      A                      A                      A
 Frequencies --   1078.3001              1091.6148              1103.2507
 Red. masses --      1.5355                 1.9232                 1.5752
 Frc consts  --      1.0519                 1.3502                 1.1296
 IR Inten    --      1.2211                35.2580                21.3055

                     43                     44                     45
                      A                      A                      A
 Frequencies --   1119.5765              1146.5081              1164.7284
 Red. masses --      4.0652                 1.2253                 1.4080
 Frc consts  --      3.0022                 0.9489                 1.1254
 IR Inten    --     30.2874                 3.9588                 8.4664

                     46                     47                     48
                      A                      A                      A
 Frequencies --   1174.6407              1227.5734              1275.2171
 Red. masses --      1.5233                 1.6008                 2.7409
 Frc consts  --      1.2383                 1.4213                 2.6261
 IR Inten    --     27.7024                27.8165                19.7554

                     49                     50                     51
                      A                      A                      A
 Frequencies --   1292.3914              1327.4654              1360.9118
 Red. masses --      3.4308                 7.0677                 2.2518
 Frc consts  --      3.3762                 7.3380                 2.4572
 IR Inten    --     15.8602                10.5855                89.7310

                     52                     53                     54
                      A                      A                      A
 Frequencies --   1391.2226              1414.1092              1436.1779
 Red. masses --      4.2152                 1.6731                 1.2846
 Frc consts  --      4.8069                 1.9712                 1.5611
 IR Inten    --     24.7331                 6.9885                 5.6487

                     55                     56                     57
                      A                      A                      A
 Frequencies --   1440.2034              1456.8784              1474.3314
 Red. masses --      1.3296                 1.7315                 1.2791
 Frc consts  --      1.6248                 2.1653                 1.6382
 IR Inten    --     10.2354               145.5574                46.7385

                     58                     59                     60
                      A                      A                      A
 Frequencies --   1489.6879              1506.4092              1510.1384
 Red. masses --      2.7107                 1.0461                 1.1001
 Frc consts  --      3.5442                 1.3986                 1.4782
 IR Inten    --     27.0932                 4.3145                16.6157

                     61                     62                     63
                      A                      A                      A
 Frequencies --   1510.8616              1516.6186              1523.9428
 Red. masses --      1.0526                 1.2263                 1.1500
 Frc consts  --      1.4156                 1.6618                 1.5735
 IR Inten    --      9.9556                41.4153                 4.1653

                     64                     65                     66
                      A                      A                      A
 Frequencies --   1529.3843              1530.6579              1542.5319
 Red. masses --      1.1738                 1.0586                 1.0870
 Frc consts  --      1.6176                 1.4613                 1.5238
 IR Inten    --     20.6249                15.2620                 4.9559

                     67                     68                     69
                      A                      A                      A
 Frequencies --   1566.8514              1624.9689              1629.4656
 Red. masses --      1.5937                 5.8546                 5.3589
 Frc consts  --      2.3052                 9.1083                 8.3834
 IR Inten    --    104.0119               294.3173               183.9020

                     70                     71                     72
                      A                      A                      A
 Frequencies --   1656.3944              1721.1665              3013.6851
 Red. masses --      1.2223                 6.1208                 1.0515
 Frc consts  --      1.9759                10.6832                 5.6266
 IR Inten    --     53.3102                97.4231                77.6017

                     73                     74                     75
                      A                      A                      A
 Frequencies --   3041.2978              3054.0953              3057.4050
 Red. masses --      1.0367                 1.0362                 1.0372
 Frc consts  --      5.6499                 5.6947                 5.7126
 IR Inten    --     77.8503                24.4742                19.2222

                     76                     77                     78
                      A                      A                      A
 Frequencies --   3089.2559              3097.3989              3112.5360
 Red. masses --      1.0937                 1.1000                 1.1004
 Frc consts  --      6.1495                 6.2176                 6.2810
 IR Inten    --     50.8426                23.6950                15.0034

                     79                     80                     81
                      A                      A                      A
 Frequencies --   3118.8032              3137.3790              3142.0624
 Red. masses --      1.0980                 1.1029                 1.1036
 Frc consts  --      6.2927                 6.3961                 6.4192
 IR Inten    --     14.9281                18.7804                11.9806

                     82                     83                     84
                      A                      A                      A
 Frequencies --   3149.4167              3178.7011              3200.5474
 Red. masses --      1.1007                 1.0972                 1.0910
 Frc consts  --      6.4327                 6.5317                 6.5845
 IR Inten    --      6.5211                 8.6930                15.2942

                     85                     86                     87
                      A                      A                      A
 Frequencies --   3528.5899              3640.6030              3762.5593
 Red. masses --      1.0467                 1.0988                 1.0675
 Frc consts  --      7.6788                 8.5804                 8.9042
 IR Inten    --     11.6180                 8.4029                57.6088

 - Thermochemistry -
 -------------------
 Temperature   298.150 Kelvin.  Pressure   1.00000 Atm.
 Atom     1 has atomic number  6 and mass  12.00000

 Molecular mass:   208.13241 amu.
 Principal axes and moments of inertia in atomic units:
                           1         2         3
     Eigenvalues --  2392.709263141.735174742.44503
           X            0.99988  -0.01541   0.00296
           Y            0.01539   0.99985   0.00761
           Z           -0.00308  -0.00757   0.99997
 This molecule is an asymmetric top.
 Rotational symmetry number  1.
 Warning -- assumption of classical behavior for rotation
           may cause significant error
 Rotational temperatures (Kelvin)      0.03620     0.02757     0.01826
 Rotational constants (GHZ):           0.75427     0.57444     0.38055
 Zero-point vibrational energy     685755.5 (Joules/Mol)
                                  163.89949 (Kcal/Mol)
 Warning -- explicit consideration of  26 degrees of freedom as
           vibrations may cause significant error
 Vibrational temperatures:     82.44    90.80    98.93   125.80   156.95
          (Kelvin)            190.20   215.61   240.48   264.95   276.80
                              309.07   339.22   350.68   373.64   424.11
                              432.86   533.86   551.26   565.67   593.48
                              625.55   699.07   761.00   774.30   818.06
                              839.17   914.58   934.46   962.63  1024.40
                             1066.94  1138.45  1208.71  1293.01  1386.89
                             1425.00  1457.31  1518.62  1539.22  1551.43
                             1570.59  1587.33  1610.82  1649.57  1675.78
                             1690.05  1766.20  1834.75  1859.46  1909.93
                             1958.05  2001.66  2034.59  2066.34  2072.13
                             2096.12  2121.23  2143.33  2167.39  2172.75
                             2173.79  2182.08  2192.61  2200.44  2202.28
                             2219.36  2254.35  2337.97  2344.44  2383.18
                             2476.37  4336.02  4375.75  4394.16  4398.92
                             4444.75  4456.47  4478.25  4487.26  4513.99
                             4520.73  4531.31  4573.44  4604.87  5076.85
                             5238.02  5413.48

 Zero-point correction=                           0.261190 (Hartree/Particle)
 Thermal correction to Energy=                    0.277705
 Thermal correction to Enthalpy=                  0.278649
 Thermal correction to Gibbs Free Energy=         0.217970
 Sum of electronic and zero-point Energies=           -684.672635
 Sum of electronic and thermal Energies=              -684.656121
 Sum of electronic and thermal Enthalpies=            -684.655176
 Sum of electronic and thermal Free Energies=         -684.715856

                     E (Thermal)             CV                S
                      KCal/Mol        Cal/Mol-Kelvin    Cal/Mol-Kelvin
 Total                  174.263             60.728            127.711
 Electronic               0.000              0.000              0.000
 Translational            0.889              2.981             41.903
 Rotational               0.889              2.981             31.944
 Vibrational            172.485             54.767             53.864
 Vibration     1          0.596              1.975              4.548
 Vibration     2          0.597              1.972              4.358
 Vibration     3          0.598              1.969              4.189
 Vibration     4          0.601              1.958              3.717
 Vibration     5          0.606              1.942              3.285
 Vibration     6          0.612              1.921              2.914
 Vibration     7          0.618              1.903              2.674
 Vibration     8          0.624              1.883              2.467
 Vibration     9          0.631              1.861              2.286
 Vibration    10          0.634              1.850              2.205
 Vibration    11          0.645              1.818              2.002
 Vibration    12          0.655              1.786              1.835
 Vibration    13          0.659              1.773              1.775
 Vibration    14          0.668              1.746              1.664
 Vibration    15          0.689              1.683              1.446
 Vibration    16          0.693              1.672              1.412
 Vibration    17          0.743              1.532              1.075
 Vibration    18          0.752              1.506              1.027
 Vibration    19          0.760              1.485              0.988
 Vibration    20          0.776              1.443              0.918
 Vibration    21          0.795              1.394              0.843
 Vibration    22          0.842              1.281              0.694
 Vibration    23          0.884              1.186              0.590
 Vibration    24          0.893              1.166              0.569
 Vibration    25          0.925              1.099              0.507
 Vibration    26          0.940              1.068              0.479

                           ! Non-Optimized Parameters !
 Normal termination of Gaussian 16 at Thu Dec 10 15:13:28 2020.

 ----------------------------------------------------------------------
 # B3LYP/6-311++G(d,p) empiricaldispersion=gd3bj scf=xqc pop=npa geom=c
 heck
 ----------------------------------------------------------------------

 --------------------------------------
 CID_61177710_JID_5018_Energie_neutraal
 --------------------------------------
 Structure from the checkpoint file:  "JID_5018.chk"
 Charge =  0 Multiplicity = 1

 SCF Done:  E(RB3LYP) =  -685.134705141     A.U. after   16 cycles
 Normal termination of Gaussian 16 at Thu Dec 10 15:21:27 2020.

 ----------------------------------------------------------------------
 # B3LYP/6-311++G(d,p) empiricaldispersion=gd3bj scf=xqc pop=npa geom=c
 heck
 ----------------------------------------------------------------------

 ------------------------------------
 CID_61177710_JID_5018_Energie_kation
 ------------------------------------
 Structure from the checkpoint file:  "JID_5018.chk"
 Charge =  1 Multiplicity = 2

 SCF Done:  E(UB3LYP) =  -684.872063247     A.U. after   25 cycles
 Normal termination of Gaussian 16 at Thu Dec 10 15:33:29 2020.
 Gaussian 16:  ES64L-G16RevA.03 25-Dec-2016

 ----------------------------------------------------------------------
 # B3LYP/6-311++G(d,p) empiricaldispersion=gd3bj scf=xqc pop=npa geom=c
 heck
 ----------------------------------------------------------------------

 -----------------------------------
 CID_61177710_JID_5018_Energie_anion
 -----------------------------------
 Structure from the checkpoint file:  "JID_5018.chk"
 Charge = -1 Multiplicity = 2

                         Standard orientation:
 ---------------------------------------------------------------------
 Center     Atomic      Atomic             Coordinates (Angstroms)
 Number     Number       Type             X           Y           Z
 ---------------------------------------------------------------------
      1          6           0       -0.714962   -2.868614   -0.171217
      2          6           0        0.183239   -1.662283   -0.077054
      3          6           0        1.566555   -1.825353    0.047385
      4          6           0        2.389748   -0.700747    0.056621
      5          7           0        1.902469    0.544835    0.042007
      6          6           0        0.572414    0.731078   -0.014818
      7          6           0       -0.334363   -0.361150   -0.149773
      8          6           0       -1.760935   -0.171096   -0.523408
      9          7           0       -2.804281   -0.479080    0.167413
     10          8           0       -2.439362   -0.866489    1.490646
     11          7           0       -1.981423    0.424986   -1.764218
     12          7           0        0.141979    2.037092    0.052278
     13          6           0        1.117965    3.110452   -0.040273
     14          6           0       -1.140353    2.396655    0.643185
     15          6           0        3.891692   -0.821838    0.096449
     16          1           0       -1.346900   -2.830448   -1.065883
     17          1           0       -0.127908   -3.790504   -0.203527
     18          1           0       -1.388306   -2.901366    0.690707
     19          1           0        1.995779   -2.821114    0.095009
     20          1           0       -3.308520   -1.056175    1.875529
     21          1           0       -1.331718    0.135143   -2.485604
     22          1           0       -2.951367    0.381578   -2.059869
     23          1           0        0.613256    4.009604   -0.409169
     24          1           0        1.580836    3.339400    0.931694
     25          1           0        1.912833    2.831566   -0.730875
     26          1           0       -1.893144    2.637792   -0.116991
     27          1           0       -1.519784    1.583460    1.265365
     28          1           0       -0.997436    3.271551    1.287771
     29          1           0        4.212710   -1.866774    0.135250
     30          1           0        4.333975   -0.352129   -0.789743
     31          1           0        4.293378   -0.297135    0.970237
 ---------------------------------------------------------------------

 SCF Done:  E(UB3LYP) =  -685.119955120     A.U. after   33 cycles
 SCF Done:  E(UB3LYP) =  -685.119955119     a.u. after    1 cycles

 The electronic state is 2-A.
 Alpha  occ. eigenvalues --  -19.05774 -14.23612 -14.22492 -14.21273 -14.18446
 Alpha  occ. eigenvalues --  -10.13732 -10.13711 -10.10223 -10.08957 -10.08816
 Alpha  occ. eigenvalues --  -10.08667 -10.07271 -10.06347 -10.06063 -10.05540
 Alpha  occ. eigenvalues --   -0.97075  -0.86753  -0.82991  -0.80525  -0.72135
 Alpha  occ. eigenvalues --   -0.70614  -0.67271  -0.62435  -0.60358  -0.59251
 Alpha  occ. eigenvalues --   -0.57250  -0.50261  -0.47674  -0.46464  -0.43856
 Alpha  occ. eigenvalues --   -0.40914  -0.40180  -0.38188  -0.36706  -0.36002
 Alpha  occ. eigenvalues --   -0.35464  -0.33890  -0.32662  -0.32255  -0.31578
 Alpha  occ. eigenvalues --   -0.31081  -0.29934  -0.29702  -0.29112  -0.28496
 Alpha  occ. eigenvalues --   -0.27088  -0.26769  -0.26272  -0.25647  -0.22209
 Alpha  occ. eigenvalues --   -0.18511  -0.18049  -0.15909  -0.14991  -0.12001
 Alpha  occ. eigenvalues --   -0.09770   0.04645
 Alpha virt. eigenvalues --    0.06776   0.06928   0.07103   0.07893   0.08577
 Alpha virt. eigenvalues --    0.09127   0.09619   0.09985   0.10516   0.10751
 Alpha virt. eigenvalues --    0.11312   0.11660   0.12539   0.13133   0.13409

  Beta  occ. eigenvalues --  -19.05766 -14.23593 -14.22492 -14.21197 -14.18423
  Beta  occ. eigenvalues --  -10.13727 -10.13709 -10.10159 -10.08941 -10.08797
  Beta  occ. eigenvalues --  -10.08601 -10.07244 -10.06335 -10.06049 -10.05550
  Beta  occ. eigenvalues --   -0.97057  -0.86720  -0.82909  -0.80477  -0.72040
  Beta  occ. eigenvalues --   -0.70534  -0.67204  -0.62388  -0.60316  -0.59218
  Beta  occ. eigenvalues --   -0.57210  -0.50171  -0.47622  -0.46384  -0.43811
  Beta  occ. eigenvalues --   -0.40868  -0.40133  -0.38130  -0.36654  -0.35960
  Beta  occ. eigenvalues --   -0.35421  -0.33863  -0.32547  -0.32197  -0.31531
  Beta  occ. eigenvalues --   -0.30998  -0.29898  -0.29677  -0.29083  -0.28465
  Beta  occ. eigenvalues --   -0.27052  -0.26736  -0.26187  -0.25597  -0.22154
  Beta  occ. eigenvalues --   -0.18445  -0.17933  -0.15687  -0.14931  -0.11948
  Beta  occ. eigenvalues --   -0.09697
  Beta virt. eigenvalues --    0.06687   0.07287   0.07400   0.07891   0.08418
  Beta virt. eigenvalues --    0.08960   0.09449   0.09864   0.10270   0.10841
  Beta virt. eigenvalues --    0.11054   0.11732   0.12011   0.12837   0.13167

 Mulliken charges and spin densities:
               1          2
     1  C    0.493307  -1.162562
     2  C    2.292350  -1.284939
     3  C   -2.055128   1.203972
     4  C    0.296668  -0.227215
     5  N   -0.174427   0.142686
     6  C   -2.696574   1.407977
     7  C    1.648371  -0.569316
     8  C   -0.159496  -0.503387
     9  N   -0.268911   0.047909
    10  O   -0.178446   0.003330
    11  N   -0.559045   0.362607
    12  N    0.115095   0.113034
    13  C    0.210530  -0.583467
    14  C    0.011581  -0.374892
    15  C    1.379441  -1.790662
    16  H   -0.253772   0.452045
    17  H   -0.073015   0.202781
    18  H    0.216086  -0.031276
    19  H   -0.357755   0.479809
    20  H    0.247905   0.017472
    21  H   -0.205904   0.463318
    22  H   -0.518231   0.787426
    23  H   -0.193856   0.328692
    24  H    0.001496   0.160346
    25  H   -0.004966   0.184104
    26  H   -0.012707   0.215815
    27  H    0.229612  -0.080415
    28  H   -0.260297   0.407868
    29  H   -0.113672   0.263791
    30  H    0.042342   0.107664
    31  H   -0.098582   0.255485
 Sum of Mulliken charges =  -1.00000   1.00000

 Dipole moment (field-independent basis, Debye):
    X=              0.1532    Y=             -1.0642    Z=              4.5076  Tot=              4.6340
 Quadrupole moment (field-independent basis, Debye-Ang):
   XX=           -142.1114   YY=           -136.1709   ZZ=           -127.3460
   XY=              4.7727   XZ=            -16.9858   YZ=             -1.7769

 Summary of Natural Population Analysis:

                                       Natural Population
                Natural  -----------------------------------------------
    Atom  No    Charge         Core      Valence    Rydberg      Total
 -----------------------------------------------------------------------
      C    1   -0.30119      0.99963     2.29565    0.00591     3.30119
      C    2    0.03974      0.99950     1.95072    0.01005     2.96026
      C    3   -0.15256      0.99945     2.14413    0.00898     3.15256
      C    4    0.13374      0.99954     1.85431    0.01241     2.86626
      N    5   -0.27212      0.99964     2.76159    0.01090     3.77212
      C    6    0.22982      0.99948     1.75611    0.01458     2.77018
      C    7   -0.09681      0.99937     2.08568    0.01176     3.09681
      C    8    0.20189      0.99958     1.77672    0.02180     2.79811
      N    9   -0.13542      0.99959     2.62238    0.01345     3.63542
      O   10   -0.29348      0.99990     3.28723    0.00635     4.29348
      N   11   -0.39124      0.99971     2.88073    0.01080     3.89124
      N   12   -0.24775      0.99965     2.73734    0.01076     3.74775
      C   13   -0.17135      0.99964     2.16450    0.00720     3.17135
      C   14   -0.17822      0.99963     2.17020    0.00839     3.17822
      C   15   -0.29593      0.99963     2.29088    0.00542     3.29593
      H   16    0.10990      0.00000     0.38857    0.00153     0.39010
      H   17    0.09931      0.00000     0.39984    0.00085     0.40069
      H   18    0.11381      0.00000     0.38496    0.00123     0.38619
      H   19    0.10026      0.00000     0.39879    0.00096     0.39974
      H   20    0.22988      0.00000     0.26735    0.00276     0.27012
      H   21    0.19195      0.00000     0.30281    0.00524     0.30805
      H   22    0.19124      0.00000     0.30177    0.00699     0.30876
      H   23    0.09138      0.00000     0.40736    0.00126     0.40862
      H   24    0.08770      0.00000     0.41027    0.00204     0.41230
      H   25    0.10860      0.00000     0.38982    0.00158     0.39140
      H   26    0.09981      0.00000     0.39866    0.00153     0.40019
      H   27    0.10626      0.00000     0.39221    0.00153     0.39374
      H   28    0.09182      0.00000     0.40724    0.00094     0.40818
      H   29    0.09773      0.00000     0.40129    0.00098     0.40227
      H   30    0.10492      0.00000     0.39375    0.00133     0.39508
      H   31    0.10632      0.00000     0.39199    0.00169     0.39368
 =======================================================================
   * Total *   -0.00000     14.99394    40.81484    0.19122    56.00000

 Normal termination of Gaussian 16 at Thu Dec 10 15:52:42 2020.
