 Gaussian 16, Revision A.03,

 -----------------------------------------------------------
 # opt freq B3LYP/6-31G(d) empiricaldispersion=gd3bj scf=xqc
 -----------------------------------------------------------

 ------------------------------
 CID_130490111_JID_971_neutraal
 ------------------------------
 Symbolic Z-matrix:
 Charge =  0 Multiplicity = 1

 SCF Done:  E(RB3LYP) =  -801.477296251     A.U. after   16 cycles
 SCF Done:  E(RB3LYP) =  -801.496946533     A.U. after   13 cycles
 SCF Done:  E(RB3LYP) =  -801.497847836     A.U. after   15 cycles
 SCF Done:  E(RB3LYP) =  -801.497583372     A.U. after   15 cycles
 SCF Done:  E(RB3LYP) =  -801.497132747     A.U. after   13 cycles
 SCF Done:  E(RB3LYP) =  -801.496086120     A.U. after   12 cycles
 SCF Done:  E(RB3LYP) =  -801.497973083     A.U. after   11 cycles
 SCF Done:  E(RB3LYP) =  -801.498807366     A.U. after   13 cycles
 SCF Done:  E(RB3LYP) =  -801.498718694     A.U. after   11 cycles
 SCF Done:  E(RB3LYP) =  -801.498871486     A.U. after   12 cycles
 SCF Done:  E(RB3LYP) =  -801.498892150     A.U. after    8 cycles
 SCF Done:  E(RB3LYP) =  -801.498893274     A.U. after    8 cycles
 SCF Done:  E(RB3LYP) =  -801.498894069     A.U. after    8 cycles
 SCF Done:  E(RB3LYP) =  -801.498894638     A.U. after    8 cycles
 SCF Done:  E(RB3LYP) =  -801.498894781     A.U. after    8 cycles
 Optimization completed.
    -- Stationary point found.
 Normal termination of Gaussian 16 at Tue Dec  8 13:36:24 2020.

 --------------------------------------------------------------------
 #N Geom=AllCheck Guess=TCheck SCRF=Check GenChk RB3LYP/6-31G(d) Freq
 --------------------------------------------------------------------

 Structure from the checkpoint file:  "JID_971.chk"
 ------------------------------
 CID_130490111_JID_971_neutraal
 ------------------------------
 Charge =  0 Multiplicity = 1

 SCF Done:  E(RB3LYP) =  -801.498894781     A.U. after    1 cycles

  Exact polarizability: 123.604  12.841  87.548  -7.332  -3.819  77.245
 Approx polarizability: 160.919  28.681 141.467 -13.598  -9.777 124.160

                      1                      2                      3
                      A                      A                      A
 Frequencies --     37.0694                46.4644                73.9470
 Red. masses --      5.2107                 4.5591                 2.0795
 Frc consts  --      0.0042                 0.0058                 0.0067
 IR Inten    --      1.0382                 2.1420                 0.1199

                      4                      5                      6
                      A                      A                      A
 Frequencies --     92.0286               104.8663               129.4963
 Red. masses --      2.7057                 1.5757                 1.2799
 Frc consts  --      0.0135                 0.0102                 0.0126
 IR Inten    --      4.9730                 1.4951                 0.6626

                      7                      8                      9
                      A                      A                      A
 Frequencies --    161.2646               199.6500               238.7091
 Red. masses --      3.2188                 4.5395                 3.2525
 Frc consts  --      0.0493                 0.1066                 0.1092
 IR Inten    --      2.4981                 3.2047                 5.1768

                     10                     11                     12
                      A                      A                      A
 Frequencies --    284.4068               332.7017               359.1076
 Red. masses --      4.7358                 2.7420                 3.0376
 Frc consts  --      0.2257                 0.1788                 0.2308
 IR Inten    --      3.4890                 5.1884                13.7060

                     13                     14                     15
                      A                      A                      A
 Frequencies --    430.0236               468.1414               471.3827
 Red. masses --      2.4129                 2.5598                 7.3112
 Frc consts  --      0.2629                 0.3305                 0.9572
 IR Inten    --      0.5259                 6.0411                 1.4915

                     16                     17                     18
                      A                      A                      A
 Frequencies --    574.6780               589.9461               611.8558
 Red. masses --      5.8023                 1.1998                 1.2781
 Frc consts  --      1.1290                 0.2460                 0.2819
 IR Inten    --     10.6110                46.5489                38.4902

                     19                     20                     21
                      A                      A                      A
 Frequencies --    659.0510               700.3368               749.4142
 Red. masses --      6.1411                 4.7121                 3.4350
 Frc consts  --      1.5716                 1.3617                 1.1366
 IR Inten    --      4.0475                20.7374                 4.0791

                     22                     23                     24
                      A                      A                      A
 Frequencies --    786.7468               876.0222               954.2133
 Red. masses --      6.1546                 1.5976                 2.3914
 Frc consts  --      2.2445                 0.7223                 1.2829
 IR Inten    --      3.5575                 2.9076                 2.6581

                     25                     26                     27
                      A                      A                      A
 Frequencies --    977.9745               997.7744              1089.9612
 Red. masses --      3.3320                 2.5038                 1.3850
 Frc consts  --      1.8777                 1.4687                 0.9694
 IR Inten    --      4.9448                15.6786                 5.7092

                     28                     29                     30
                      A                      A                      A
 Frequencies --   1129.1707              1136.4499              1185.2756
 Red. masses --      1.3009                 1.2451                 1.3703
 Frc consts  --      0.9773                 0.9475                 1.1343
 IR Inten    --    106.0390                 9.1550                 9.3974

                     31                     32                     33
                      A                      A                      A
 Frequencies --   1226.6409              1241.6030              1268.7003
 Red. masses --      1.3096                 1.3519                 1.3427
 Frc consts  --      1.1610                 1.2278                 1.2734
 IR Inten    --     10.9879                15.3947                 4.4891

                     34                     35                     36
                      A                      A                      A
 Frequencies --   1295.3736              1300.6725              1439.3356
 Red. masses --      2.2800                 1.6129                 2.4795
 Frc consts  --      2.2541                 1.6076                 3.0265
 IR Inten    --     21.5394                36.6687               139.5490

                     37                     38                     39
                      A                      A                      A
 Frequencies --   1453.4720              1478.5993              1487.3722
 Red. masses --      1.1576                 1.1007                 1.2096
 Frc consts  --      1.4409                 1.4178                 1.5767
 IR Inten    --      6.8798                10.3993                29.6457

                     40                     41                     42
                      A                      A                      A
 Frequencies --   1505.3394              1518.5895              1526.7020
 Red. masses --      1.1026                 1.0632                 1.0780
 Frc consts  --      1.4721                 1.4446                 1.4804
 IR Inten    --      8.2429                14.6046                 8.8560

                     43                     44                     45
                      A                      A                      A
 Frequencies --   1534.3167              1561.2231              1746.0615
 Red. masses --      1.0475                 1.2231                 9.0417
 Frc consts  --      1.4529                 1.7564                16.2413
 IR Inten    --     20.2285                46.6142               272.8541

                     46                     47                     48
                      A                      A                      A
 Frequencies --   2241.5253              3029.0434              3037.1627
 Red. masses --      5.9818                 1.0457                 1.0480
 Frc consts  --     17.7079                 5.6529                 5.6960
 IR Inten    --      0.0204                35.9590                60.2003

                     49                     50                     51
                      A                      A                      A
 Frequencies --   3074.7519              3094.0122              3098.1181
 Red. masses --      1.0578                 1.0954                 1.0964
 Frc consts  --      5.8920                 6.1783                 6.2004
 IR Inten    --      6.8986                40.5647                28.4636

                     52                     53                     54
                      A                      A                      A
 Frequencies --   3108.6240              3124.3997              3164.1877
 Red. masses --      1.0593                 1.1062                 1.1078
 Frc consts  --      6.0315                 6.3624                 6.5346
 IR Inten    --     11.8650                 0.6999                 2.0737

                     55                     56                     57
                      A                      A                      A
 Frequencies --   3183.5089              3197.2803              3496.9135
 Red. masses --      1.0951                 1.0966                 1.1600
 Frc consts  --      6.5390                 6.6051                 8.3574
 IR Inten    --     18.8596                 1.2781                58.4464

 - Thermochemistry -
 -------------------
 Temperature   298.150 Kelvin.  Pressure   1.00000 Atm.
 Atom     1 has atomic number  6 and mass  12.00000

 Molecular mass:   157.05614 amu.
 Principal axes and moments of inertia in atomic units:
                           1         2         3
     Eigenvalues --   841.425762712.754103144.88634
           X            0.99990   0.01250  -0.00712
           Y           -0.01229   0.99953   0.02791
           Z            0.00747  -0.02782   0.99959
 This molecule is an asymmetric top.
 Rotational symmetry number  1.
 Warning -- assumption of classical behavior for rotation
           may cause significant error
 Rotational temperatures (Kelvin)      0.10294     0.03193     0.02754
 Rotational constants (GHZ):           2.14486     0.66528     0.57387
 Zero-point vibrational energy     447891.8 (Joules/Mol)
                                  107.04871 (Kcal/Mol)
 Warning -- explicit consideration of  18 degrees of freedom as
           vibrations may cause significant error
 Vibrational temperatures:     53.33    66.85   106.39   132.41   150.88
          (Kelvin)            186.32   232.02   287.25   343.45   409.20
                              478.68   516.68   618.71   673.55   678.21
                              826.83   848.80   880.32   948.23  1007.63
                             1078.24  1131.95  1260.40  1372.90  1407.09
                             1435.57  1568.21  1624.62  1635.10  1705.35
                             1764.86  1786.39  1825.38  1863.75  1871.38
                             2070.88  2091.22  2127.37  2140.00  2165.85
                             2184.91  2196.58  2207.54  2246.25  2512.19
                             3225.06  4358.12  4369.80  4423.88  4451.59
                             4457.50  4472.62  4495.31  4552.56  4580.36
                             4600.17  5031.28

 Zero-point correction=                           0.170593 (Hartree/Particle)
 Thermal correction to Energy=                    0.182999
 Thermal correction to Enthalpy=                  0.183943
 Thermal correction to Gibbs Free Energy=         0.130756
 Sum of electronic and zero-point Energies=           -801.328302
 Sum of electronic and thermal Energies=              -801.315896
 Sum of electronic and thermal Enthalpies=            -801.314952
 Sum of electronic and thermal Free Energies=         -801.368139

                     E (Thermal)             CV                S
                      KCal/Mol        Cal/Mol-Kelvin    Cal/Mol-Kelvin
 Total                  114.834             42.727            111.942
 Electronic               0.000              0.000              0.000
 Translational            0.889              2.981             41.064
 Rotational               0.889              2.981             30.352
 Vibrational            113.056             36.765             40.526
 Vibration     1          0.594              1.982              5.410
 Vibration     2          0.595              1.979              4.962
 Vibration     3          0.599              1.966              4.045
 Vibration     4          0.602              1.955              3.616
 Vibration     5          0.605              1.945              3.362
 Vibration     6          0.612              1.924              2.954
 Vibration     7          0.622              1.890              2.535
 Vibration     8          0.638              1.840              2.136
 Vibration     9          0.657              1.781              1.812
 Vibration    10          0.683              1.703              1.507
 Vibration    11          0.715              1.610              1.247
 Vibration    12          0.734              1.557              1.126
 Vibration    13          0.791              1.405              0.859
 Vibration    14          0.825              1.321              0.743
 Vibration    15          0.828              1.314              0.734
 Vibration    16          0.931              1.086              0.495
 Vibration    17          0.947              1.053              0.467
 Vibration    18          0.971              1.007              0.430

                           ! Non-Optimized Parameters !
 Normal termination of Gaussian 16 at Tue Dec  8 13:41:14 2020.

 ----------------------------------------------------------------------
 # B3LYP/6-311++G(d,p) empiricaldispersion=gd3bj scf=xqc pop=npa geom=c
 heck
 ----------------------------------------------------------------------

 --------------------------------------
 CID_130490111_JID_971_Energie_neutraal
 --------------------------------------
 Structure from the checkpoint file:  "JID_971.chk"
 Charge =  0 Multiplicity = 1

 SCF Done:  E(RB3LYP) =  -801.647700994     A.U. after   15 cycles
 Normal termination of Gaussian 16 at Tue Dec  8 13:43:57 2020.

 ----------------------------------------------------------------------
 # B3LYP/6-311++G(d,p) empiricaldispersion=gd3bj scf=xqc pop=npa geom=c
 heck
 ----------------------------------------------------------------------

 ------------------------------------
 CID_130490111_JID_971_Energie_kation
 ------------------------------------
 Structure from the checkpoint file:  "JID_971.chk"
 Charge =  1 Multiplicity = 2

 SCF Done:  E(UB3LYP) =  -801.337435767     A.U. after   32 cycles
 Normal termination of Gaussian 16 at Tue Dec  8 13:49:25 2020.
 Gaussian 16:  ES64L-G16RevA.03 25-Dec-2016

 ----------------------------------------------------------------------
 # B3LYP/6-311++G(d,p) empiricaldispersion=gd3bj scf=xqc pop=npa geom=c
 heck
 ----------------------------------------------------------------------

 -----------------------------------
 CID_130490111_JID_971_Energie_anion
 -----------------------------------
 Structure from the checkpoint file:  "JID_971.chk"
 Charge = -1 Multiplicity = 2

                         Standard orientation:
 ---------------------------------------------------------------------
 Center     Atomic      Atomic             Coordinates (Angstroms)
 Number     Number       Type             X           Y           Z
 ---------------------------------------------------------------------
      1          6           0       -3.039420    1.044436    0.588696
      2          7           0       -2.150769    0.168196   -0.162460
      3          6           0       -2.579182   -1.218454   -0.245775
      4          6           0       -0.874285    0.606604   -0.408449
      5          8           0       -0.495138    1.736325   -0.101772
      6          6           0        0.114416   -0.355562   -1.050219
      7         16           0        0.904979   -1.411090    0.231855
      8          6           0        1.911251   -0.099045    1.066642
      9          6           0        2.957544    0.439558    0.213258
     10          6           0        3.801963    0.890333   -0.522467
     11          1           0       -3.103517    0.732584    1.640909
     12          1           0       -4.044263    1.010040    0.153620
     13          1           0       -2.646814    2.058544    0.543011
     14          1           0       -2.011789   -1.769500   -0.994165
     15          1           0       -2.465964   -1.733085    0.718451
     16          1           0       -3.635149   -1.248579   -0.534956
     17          1           0       -0.319537   -1.031682   -1.788646
     18          1           0        0.891049    0.241857   -1.531638
     19          1           0        1.234458    0.697455    1.390811
     20          1           0        2.327902   -0.584602    1.955171
     21          1           0        4.556725    1.289202   -1.160954
 ---------------------------------------------------------------------

 SCF Done:  E(UB3LYP) =  -801.633742616     A.U. after   33 cycles
 SCF Done:  E(UB3LYP) =  -801.633742616     a.u. after    1 cycles

 The electronic state is 2-A.
 Alpha  occ. eigenvalues --  -88.75500 -18.98330 -14.24098 -10.16950 -10.12961
 Alpha  occ. eigenvalues --  -10.10666 -10.09238 -10.09097 -10.08798 -10.07751
 Alpha  occ. eigenvalues --   -7.84061  -5.80470  -5.80123  -5.79371  -0.93620
 Alpha  occ. eigenvalues --   -0.83161  -0.73115  -0.67607  -0.63137  -0.61305
 Alpha  occ. eigenvalues --   -0.58611  -0.53145  -0.44877  -0.43926  -0.40620
 Alpha  occ. eigenvalues --   -0.38427  -0.37627  -0.37294  -0.36140  -0.33458
 Alpha  occ. eigenvalues --   -0.30732  -0.29846  -0.29525  -0.29324  -0.27722
 Alpha  occ. eigenvalues --   -0.26968  -0.23521  -0.19091  -0.18736  -0.16474
 Alpha  occ. eigenvalues --   -0.14138  -0.13370   0.04631
 Alpha virt. eigenvalues --    0.06321   0.07307   0.07975   0.08569   0.09065
 Alpha virt. eigenvalues --    0.09427   0.10105   0.10989   0.11722   0.12124
 Alpha virt. eigenvalues --    0.12644   0.13152   0.13798   0.13992   0.14863

  Beta  occ. eigenvalues --  -88.75493 -18.98307 -14.24098 -10.16933 -10.12948
  Beta  occ. eigenvalues --  -10.10646 -10.09166 -10.09097 -10.08753 -10.07730
  Beta  occ. eigenvalues --   -7.84052  -5.80464  -5.80118  -5.79364  -0.93582
  Beta  occ. eigenvalues --   -0.83139  -0.73087  -0.67572  -0.63098  -0.61215
  Beta  occ. eigenvalues --   -0.58540  -0.53090  -0.44828  -0.43848  -0.40554
  Beta  occ. eigenvalues --   -0.38388  -0.37580  -0.37245  -0.36106  -0.33425
  Beta  occ. eigenvalues --   -0.30680  -0.29777  -0.29460  -0.29278  -0.27656
  Beta  occ. eigenvalues --   -0.26917  -0.23473  -0.19052  -0.18711  -0.16438
  Beta  occ. eigenvalues --   -0.14085  -0.13346
  Beta virt. eigenvalues --    0.06600   0.07515   0.07820   0.08487   0.09111
  Beta virt. eigenvalues --    0.09262   0.10171   0.10701   0.11469   0.12081
  Beta virt. eigenvalues --    0.12489   0.12955   0.13433   0.13918   0.14425

 Mulliken charges and spin densities:
               1          2
     1  C    0.937911  -1.197774
     2  N   -0.261751   0.361520
     3  C    1.705214  -2.050875
     4  C   -0.504137   0.199426
     5  O   -0.340445   0.009546
     6  C   -0.155567  -0.201205
     7  S    0.527760  -0.342312
     8  C    0.088902  -0.578258
     9  C    2.691490  -1.716583
    10  C   -2.833820   1.705973
    11  H   -0.325595   0.474991
    12  H   -0.328093   0.479272
    13  H    0.000806   0.166741
    14  H   -0.516594   0.659160
    15  H   -0.412579   0.580072
    16  H   -0.788628   0.941579
    17  H   -0.382445   0.632342
    18  H    0.221139  -0.022465
    19  H    0.232010  -0.017142
    20  H   -0.126745   0.350776
    21  H   -0.428834   0.565215
 Sum of Mulliken charges =  -1.00000   1.00000

 Dipole moment (field-independent basis, Debye):
    X=              5.7963    Y=              2.0383    Z=              0.4780  Tot=              6.1628
 Quadrupole moment (field-independent basis, Debye-Ang):
   XX=           -143.0759   YY=           -108.0990   ZZ=            -96.2612
   XY=             -9.4599   XZ=             -0.5516   YZ=             -2.6861

 Summary of Natural Population Analysis:

                                       Natural Population
                Natural  -----------------------------------------------
    Atom  No    Charge         Core      Valence    Rydberg      Total
 -----------------------------------------------------------------------
      C    1   -0.17864      0.99963     2.17051    0.00850     3.17864
      N    2   -0.25008      0.99966     2.73872    0.01169     3.75008
      C    3   -0.17567      0.99963     2.16730    0.00874     3.17567
      C    4    0.33448      0.99961     1.64133    0.02458     2.66552
      O    5   -0.33158      0.99988     3.32608    0.00563     4.33158
      C    6   -0.29009      0.99955     2.27922    0.01132     3.29009
      S    7    0.10960      4.99966     2.87437    0.01638     7.89040
      C    8   -0.29143      0.99950     2.28064    0.01129     3.29143
      C    9   -0.00491      0.99938     1.99769    0.00785     3.00491
      C   10   -0.11903      0.99927     2.11631    0.00345     3.11903
      H   11    0.09389      0.00000     0.40443    0.00168     0.40611
      H   12    0.09661      0.00000     0.40196    0.00143     0.40339
      H   13    0.11256      0.00000     0.38629    0.00115     0.38744
      H   14    0.10138      0.00000     0.39585    0.00277     0.39862
      H   15    0.09770      0.00000     0.39862    0.00368     0.40230
      H   16    0.10163      0.00000     0.39458    0.00378     0.39837
      H   17    0.11669      0.00000     0.38159    0.00172     0.38331
      H   18    0.11884      0.00000     0.37961    0.00154     0.38116
      H   19    0.12873      0.00000     0.36948    0.00179     0.37127
      H   20    0.11891      0.00000     0.37961    0.00148     0.38109
      H   21    0.11043      0.00000     0.38833    0.00124     0.38957
 =======================================================================
   * Total *   -0.00000     13.99578    27.87252    0.13170    42.00000

 Normal termination of Gaussian 16 at Tue Dec  8 13:54:23 2020.
