 Gaussian 16, Revision A.03,

 -----------------------------------------------------------
 # opt freq B3LYP/6-31G(d) empiricaldispersion=gd3bj scf=xqc
 -----------------------------------------------------------

 ------------------------------
 CID_12946203_JID_3498_neutraal
 ------------------------------
 Symbolic Z-matrix:
 Charge =  0 Multiplicity = 1

 SCF Done:  E(RB3LYP) =  -647.476797182     A.U. after   15 cycles
 SCF Done:  E(RB3LYP) =  -647.483753931     A.U. after   13 cycles
 SCF Done:  E(RB3LYP) =  -647.484156863     A.U. after   12 cycles
 SCF Done:  E(RB3LYP) =  -647.484208204     A.U. after   12 cycles
 SCF Done:  E(RB3LYP) =  -647.484174235     A.U. after   11 cycles
 SCF Done:  E(RB3LYP) =  -647.484225783     A.U. after   10 cycles
 SCF Done:  E(RB3LYP) =  -647.484234708     A.U. after   10 cycles
 SCF Done:  E(RB3LYP) =  -647.484235722     A.U. after    8 cycles
 SCF Done:  E(RB3LYP) =  -647.484236022     A.U. after    8 cycles
 Optimization completed.
    -- Stationary point found.
 Normal termination of Gaussian 16 at Wed Dec  9 23:23:58 2020.

 --------------------------------------------------------------------
 #N Geom=AllCheck Guess=TCheck SCRF=Check GenChk RB3LYP/6-31G(d) Freq
 --------------------------------------------------------------------

 Structure from the checkpoint file:  "JID_3498.chk"
 ------------------------------
 CID_12946203_JID_3498_neutraal
 ------------------------------
 Charge =  0 Multiplicity = 1

 SCF Done:  E(RB3LYP) =  -647.484236022     A.U. after    1 cycles

  Exact polarizability: 178.364  -5.173  99.283  -0.007  -0.004  43.518
 Approx polarizability: 286.027 -24.851 180.048  -0.028   0.001  66.749

                      1                      2                      3
                      A                      A                      A
 Frequencies --     68.5740               109.6089               126.4689
 Red. masses --      4.2280                 6.7693                 5.8762
 Frc consts  --      0.0117                 0.0479                 0.0554
 IR Inten    --      0.0662                 0.9278                 5.7327

                      4                      5                      6
                      A                      A                      A
 Frequencies --    190.5429               228.6572               270.9413
 Red. masses --      5.1473                 1.4485                 5.3795
 Frc consts  --      0.1101                 0.0446                 0.2327
 IR Inten    --      1.7967                 0.0744                 0.2486

                      7                      8                      9
                      A                      A                      A
 Frequencies --    288.8463               300.9900               314.5214
 Red. masses --      2.7639                 7.0518                 5.8273
 Frc consts  --      0.1359                 0.3764                 0.3396
 IR Inten    --      0.0176                 1.3695                 4.7782

                     10                     11                     12
                      A                      A                      A
 Frequencies --    374.0142               444.4796               464.3614
 Red. masses --      7.9492                 4.3335                 5.3098
 Frc consts  --      0.6552                 0.5044                 0.6746
 IR Inten    --      1.9525                 3.1643                24.7159

                     13                     14                     15
                      A                      A                      A
 Frequencies --    518.6139               584.4267               626.3060
 Red. masses --      6.8271                 5.5621                 8.5633
 Frc consts  --      1.0819                 1.1193                 1.9791
 IR Inten    --      7.6758                16.1907                10.7090

                     16                     17                     18
                      A                      A                      A
 Frequencies --    649.9373               666.9978               706.8833
 Red. masses --      4.7352                 8.1833                 4.2399
 Frc consts  --      1.1785                 2.1450                 1.2483
 IR Inten    --      3.1892                 1.3371                 0.8021

                     19                     20                     21
                      A                      A                      A
 Frequencies --    737.1766               776.1001               789.1466
 Red. masses --      7.9969                 7.8678                 3.7957
 Frc consts  --      2.5604                 2.7921                 1.3927
 IR Inten    --      5.2118                14.4956                 9.3693

                     22                     23                     24
                      A                      A                      A
 Frequencies --    824.9159               863.8715               930.7842
 Red. masses --      1.8884                 1.4580                10.1392
 Frc consts  --      0.7571                 0.6411                 5.1755
 IR Inten    --     13.7218                37.1245                29.7220

                     25                     26                     27
                      A                      A                      A
 Frequencies --    958.8603               959.7656              1060.1346
 Red. masses --      3.9535                 1.3039                 3.1311
 Frc consts  --      2.1416                 0.7077                 2.0734
 IR Inten    --     12.8268                 0.4690                 9.0864

                     28                     29                     30
                      A                      A                      A
 Frequencies --   1073.1079              1147.9282              1183.5538
 Red. masses --      8.4476                 1.7562                 1.2681
 Frc consts  --      5.7315                 1.3635                 1.0466
 IR Inten    --    205.3263               110.8287                 0.8022

                     31                     32                     33
                      A                      A                      A
 Frequencies --   1197.6229              1225.1509              1237.1599
 Red. masses --      2.1462                 1.6627                 2.1043
 Frc consts  --      1.8137                 1.4705                 1.8976
 IR Inten    --    144.0615                27.5532                29.1799

                     34                     35                     36
                      A                      A                      A
 Frequencies --   1309.4005              1341.4913              1394.4591
 Red. masses --      2.8649                 2.8803                 6.9424
 Frc consts  --      2.8941                 3.0539                 7.9537
 IR Inten    --     91.2579               192.8837               189.3050

                     37                     38                     39
                      A                      A                      A
 Frequencies --   1494.3665              1498.8223              1523.5077
 Red. masses --      2.2163                 1.6669                 1.0471
 Frc consts  --      2.9161                 2.2062                 1.4319
 IR Inten    --     73.4392                13.4729                 7.4642

                     40                     41                     42
                      A                      A                      A
 Frequencies --   1530.9846              1550.2264              1641.2863
 Red. masses --      1.0971                 2.7022                 7.8418
 Frc consts  --      1.5151                 3.8261                12.4462
 IR Inten    --     72.5943                42.9927                48.5347

                     43                     44                     45
                      A                      A                      A
 Frequencies --   1684.2182              1827.8834              1923.3022
 Red. masses --      7.4594                13.0426                13.1170
 Frc consts  --     12.4668                25.6750                28.5877
 IR Inten    --    705.1904               319.6254               248.3196

                     46                     47                     48
                      A                      A                      A
 Frequencies --   3043.6866              3110.4875              3175.5509
 Red. masses --      1.0338                 1.1076                 1.1014
 Frc consts  --      5.6424                 6.3138                 6.5439
 IR Inten    --     49.6899                31.1044                17.9163

                     49                     50                     51
                      A                      A                      A
 Frequencies --   3215.5674              3245.4224              3247.4636
 Red. masses --      1.0903                 1.0918                 1.0928
 Frc consts  --      6.6424                 6.7756                 6.7901
 IR Inten    --      1.6224                 6.6747                 0.0871

 - Thermochemistry -
 -------------------
 Temperature   298.150 Kelvin.  Pressure   1.00000 Atm.
 Atom     1 has atomic number  6 and mass  12.00000

 Molecular mass:   178.02661 amu.
 Principal axes and moments of inertia in atomic units:
                           1         2         3
     Eigenvalues --   794.671043869.527264652.63832
           X            0.99998   0.00684   0.00002
           Y           -0.00684   0.99998  -0.00001
           Z           -0.00002   0.00001   1.00000
 This molecule is an asymmetric top.
 Rotational symmetry number  1.
 Warning -- assumption of classical behavior for rotation
           may cause significant error
 Rotational temperatures (Kelvin)      0.10899     0.02238     0.01862
 Rotational constants (GHZ):           2.27105     0.46640     0.38790
 Zero-point vibrational energy     356837.5 (Joules/Mol)
                                   85.28622 (Kcal/Mol)
 Warning -- explicit consideration of  14 degrees of freedom as
           vibrations may cause significant error
 Vibrational temperatures:     98.66   157.70   181.96   274.15   328.99
          (Kelvin)            389.82   415.59   433.06   452.53   538.12
                              639.51   668.11   746.17   840.86   901.11
                              935.11   959.66  1017.05  1060.63  1116.64
                             1135.41  1186.87  1242.92  1339.19  1379.59
                             1380.89  1525.30  1543.96  1651.61  1702.87
                             1723.11  1762.72  1780.00  1883.94  1930.11
                             2006.32  2150.06  2156.47  2191.99  2202.75
                             2230.43  2361.44  2423.21  2629.92  2767.20
                             4379.19  4475.30  4568.91  4626.48  4669.44
                             4672.38

 Zero-point correction=                           0.135912 (Hartree/Particle)
 Thermal correction to Energy=                    0.146234
 Thermal correction to Enthalpy=                  0.147179
 Thermal correction to Gibbs Free Energy=         0.099707
 Sum of electronic and zero-point Energies=           -647.348324
 Sum of electronic and thermal Energies=              -647.338002
 Sum of electronic and thermal Enthalpies=            -647.337057
 Sum of electronic and thermal Free Energies=         -647.384529

                     E (Thermal)             CV                S
                      KCal/Mol        Cal/Mol-Kelvin    Cal/Mol-Kelvin
 Total                   91.763             39.401             99.913
 Electronic               0.000              0.000              0.000
 Translational            0.889              2.981             41.437
 Rotational               0.889              2.981             31.037
 Vibrational             89.986             33.439             27.438
 Vibration     1          0.598              1.969              4.194
 Vibration     2          0.606              1.942              3.276
 Vibration     3          0.611              1.927              2.999
 Vibration     4          0.634              1.853              2.223
 Vibration     5          0.651              1.797              1.889
 Vibration     6          0.675              1.727              1.590
 Vibration     7          0.685              1.694              1.481
 Vibration     8          0.693              1.672              1.411
 Vibration     9          0.702              1.646              1.338
 Vibration    10          0.745              1.525              1.063
 Vibration    11          0.804              1.373              0.813
 Vibration    12          0.822              1.329              0.754
 Vibration    13          0.874              1.209              0.613
 Vibration    14          0.941              1.065              0.477

                           ! Non-Optimized Parameters !
 Normal termination of Gaussian 16 at Wed Dec  9 23:27:51 2020.

 ----------------------------------------------------------------------
 # B3LYP/6-311++G(d,p) empiricaldispersion=gd3bj scf=xqc pop=npa geom=c
 heck
 ----------------------------------------------------------------------

 --------------------------------------
 CID_12946203_JID_3498_Energie_neutraal
 --------------------------------------
 Structure from the checkpoint file:  "JID_3498.chk"
 Charge =  0 Multiplicity = 1

 SCF Done:  E(RB3LYP) =  -647.665182155     A.U. after   16 cycles
 Normal termination of Gaussian 16 at Wed Dec  9 23:29:10 2020.

 ----------------------------------------------------------------------
 # B3LYP/6-311++G(d,p) empiricaldispersion=gd3bj scf=xqc pop=npa geom=c
 heck
 ----------------------------------------------------------------------

 ------------------------------------
 CID_12946203_JID_3498_Energie_kation
 ------------------------------------
 Structure from the checkpoint file:  "JID_3498.chk"
 Charge =  1 Multiplicity = 2

 SCF Done:  E(UB3LYP) =  -647.332011009     A.U. after   33 cycles
 SCF Done:  E(UB3LYP) =  -647.332015651     a.u. after    6 cycles
 Normal termination of Gaussian 16 at Wed Dec  9 23:51:52 2020.
 Gaussian 16:  ES64L-G16RevA.03 25-Dec-2016

 ----------------------------------------------------------------------
 # B3LYP/6-311++G(d,p) empiricaldispersion=gd3bj scf=xqc pop=npa geom=c
 heck
 ----------------------------------------------------------------------

 -----------------------------------
 CID_12946203_JID_3498_Energie_anion
 -----------------------------------
 Structure from the checkpoint file:  "JID_3498.chk"
 Charge = -1 Multiplicity = 2

                         Standard orientation:
 ---------------------------------------------------------------------
 Center     Atomic      Atomic             Coordinates (Angstroms)
 Number     Number       Type             X           Y           Z
 ---------------------------------------------------------------------
      1          6           0        4.326612    0.068427    0.001353
      2          8           0        3.196230   -0.798405   -0.000886
      3          6           0        1.958751   -0.258024   -0.000524
      4          6           0        0.905866   -1.196078   -0.000327
      5          6           0       -0.374104   -0.693958   -0.000135
      6          6           0       -0.653504    0.682875   -0.000077
      7          6           0        0.398010    1.598875   -0.000363
      8          6           0        1.707845    1.131348   -0.000593
      9          6           0       -2.098416    0.831936    0.000220
     10          8           0       -2.819361    1.807343    0.000191
     11          6           0       -2.623223   -0.639950    0.000259
     12          8           0       -3.742533   -1.051597    0.000269
     13          8           0       -1.509783   -1.483388    0.000057
     14          1           0        5.198163   -0.586559    0.002761
     15          1           0        4.340109    0.699587    0.897598
     16          1           0        4.343419    0.699975   -0.894570
     17          1           0        1.118774   -2.257919   -0.000320
     18          1           0        0.187499    2.663773   -0.000432
     19          1           0        2.528587    1.836821   -0.000956
 ---------------------------------------------------------------------

 SCF Done:  E(UB3LYP) =  -647.716747559     A.U. after   22 cycles

 The electronic state is 2-A.
 Alpha  occ. eigenvalues --  -19.04805 -19.02909 -18.95264 -18.92434 -10.13649
 Alpha  occ. eigenvalues --  -10.12445 -10.10999 -10.09941 -10.06773 -10.04890
 Alpha  occ. eigenvalues --  -10.04566 -10.04450 -10.02602  -0.96776  -0.96302
 Alpha  occ. eigenvalues --   -0.88472  -0.86226  -0.72684  -0.65334  -0.62250
 Alpha  occ. eigenvalues --   -0.60597  -0.53850  -0.49561  -0.45257  -0.43918
 Alpha  occ. eigenvalues --   -0.38523  -0.38281  -0.37828  -0.36171  -0.32633
 Alpha  occ. eigenvalues --   -0.32369  -0.31454  -0.30244  -0.28711  -0.26943
 Alpha  occ. eigenvalues --   -0.26810  -0.25025  -0.24386  -0.23076  -0.22487
 Alpha  occ. eigenvalues --   -0.21667  -0.18374  -0.14803  -0.12047  -0.10137
 Alpha  occ. eigenvalues --   -0.07763   0.01498
 Alpha virt. eigenvalues --    0.06457   0.09127   0.10432   0.10492   0.11227
 Alpha virt. eigenvalues --    0.11808   0.12985   0.13992   0.14375   0.15699
 Alpha virt. eigenvalues --    0.16373   0.17555   0.17736   0.18107   0.18236

  Beta  occ. eigenvalues --  -19.04732 -19.02924 -18.94913 -18.91693 -10.13651
  Beta  occ. eigenvalues --  -10.12291 -10.10729 -10.09806 -10.06508 -10.04990
  Beta  occ. eigenvalues --  -10.04647 -10.04200 -10.02644  -0.96593  -0.96104
  Beta  occ. eigenvalues --   -0.87940  -0.84939  -0.72472  -0.65098  -0.62082
  Beta  occ. eigenvalues --   -0.60294  -0.53124  -0.49416  -0.45009  -0.43617
  Beta  occ. eigenvalues --   -0.38447  -0.37943  -0.37623  -0.35908  -0.32188
  Beta  occ. eigenvalues --   -0.31719  -0.31340  -0.29896  -0.28403  -0.26616
  Beta  occ. eigenvalues --   -0.26258  -0.24427  -0.24262  -0.21578  -0.21394
  Beta  occ. eigenvalues --   -0.20619  -0.16820  -0.14371  -0.11529  -0.08969
  Beta  occ. eigenvalues --   -0.07144
  Beta virt. eigenvalues --    0.06450   0.08450   0.09112   0.10428   0.10535
  Beta virt. eigenvalues --    0.11813   0.12099   0.13000   0.13983   0.15732
  Beta virt. eigenvalues --    0.15776   0.16378   0.17567   0.18086   0.18136

 Mulliken charges and spin densities:
               1          2
     1  C   -0.285586  -0.004538
     2  O   -0.167291   0.013731
     3  C   -0.784227   0.172441
     4  C   -0.714693  -0.071863
     5  C   -1.260114   0.028024
     6  C    2.574816   0.009902
     7  C   -0.657635   0.224317
     8  C    0.661138  -0.081767
     9  C   -0.698442   0.177686
    10  O   -0.440324   0.271322
    11  C    0.475221   0.141758
    12  O   -0.417541   0.123061
    13  O   -0.140351  -0.005576
    14  H    0.155730  -0.000352
    15  H    0.130503   0.004874
    16  H    0.130544   0.004812
    17  H    0.166494   0.002740
    18  H    0.132028  -0.015129
    19  H    0.139731   0.004558
 Sum of Mulliken charges =  -1.00000   1.00000

 Dipole moment (field-independent basis, Debye):
    X=             11.4010    Y=             -0.3305    Z=              0.0018  Tot=             11.4058
 Quadrupole moment (field-independent basis, Debye-Ang):
   XX=           -119.0152   YY=            -91.0158   ZZ=            -78.7614
   XY=              6.1539   XZ=              0.0132   YZ=             -0.0030

 Summary of Natural Population Analysis:

                                       Natural Population
                Natural  -----------------------------------------------
    Atom  No    Charge         Core      Valence    Rydberg      Total
 -----------------------------------------------------------------------
      C    1   -0.10034      0.99961     2.09273    0.00800     3.10034
      O    2   -0.26920      0.99985     3.25971    0.00964     4.26920
      C    3    0.21682      0.99944     1.77226    0.01147     2.78318
      C    4   -0.17787      0.99948     2.16932    0.00907     3.17787
      C    5    0.20586      0.99935     1.78161    0.01318     2.79414
      C    6   -0.11441      0.99943     2.10633    0.00865     3.11441
      C    7   -0.01795      0.99956     2.00939    0.00900     3.01795
      C    8   -0.19159      0.99954     2.18441    0.00764     3.19159
      C    9    0.24222      0.99957     1.73492    0.02329     2.75778
      O   10   -0.19659      0.99987     3.18971    0.00700     4.19659
      C   11    0.38632      0.99969     1.58466    0.02932     2.61368
      O   12   -0.25119      0.99986     3.24406    0.00727     4.25119
      O   13   -0.28077      0.99985     3.27169    0.00922     4.28077
      H   14    0.08718      0.00000     0.41202    0.00080     0.41282
      H   15    0.08189      0.00000     0.41649    0.00162     0.41811
      H   16    0.08185      0.00000     0.41653    0.00162     0.41815
      H   17    0.10572      0.00000     0.39253    0.00175     0.39428
      H   18    0.09662      0.00000     0.40122    0.00216     0.40338
      H   19    0.09541      0.00000     0.40350    0.00109     0.40459
 =======================================================================
   * Total *    0.00000     12.99511    32.84309    0.16181    46.00000

 Normal termination of Gaussian 16 at Wed Dec  9 23:54:24 2020.
