 Gaussian 16, Revision A.03,

 -----------------------------------------------------------
 # opt freq B3LYP/6-31G(d) empiricaldispersion=gd3bj scf=xqc
 -----------------------------------------------------------

 ------------------------------
 CID_96737860_JID_2533_neutraal
 ------------------------------
 Symbolic Z-matrix:
 Charge =  0 Multiplicity = 1

 SCF Done:  E(RB3LYP) =  -552.174766612     A.U. after   14 cycles
 SCF Done:  E(RB3LYP) =  -552.178630653     A.U. after   12 cycles
 SCF Done:  E(RB3LYP) =  -552.179107947     A.U. after   11 cycles
 SCF Done:  E(RB3LYP) =  -552.179178972     A.U. after   10 cycles
 SCF Done:  E(RB3LYP) =  -552.179197354     A.U. after    9 cycles
 SCF Done:  E(RB3LYP) =  -552.179208717     A.U. after    9 cycles
 SCF Done:  E(RB3LYP) =  -552.179217578     A.U. after    9 cycles
 SCF Done:  E(RB3LYP) =  -552.179221825     A.U. after    9 cycles
 SCF Done:  E(RB3LYP) =  -552.179223810     A.U. after    8 cycles
 SCF Done:  E(RB3LYP) =  -552.179224254     A.U. after    7 cycles
 Optimization completed.
    -- Stationary point found.
 Normal termination of Gaussian 16 at Wed Dec  9 17:30:23 2020.

 --------------------------------------------------------------------
 #N Geom=AllCheck Guess=TCheck SCRF=Check GenChk RB3LYP/6-31G(d) Freq
 --------------------------------------------------------------------

 Structure from the checkpoint file:  "JID_2533.chk"
 ------------------------------
 CID_96737860_JID_2533_neutraal
 ------------------------------
 Charge =  0 Multiplicity = 1

 SCF Done:  E(RB3LYP) =  -552.179224254     A.U. after    1 cycles

  Exact polarizability: 135.482   2.946 101.771  10.247  -4.250  71.996
 Approx polarizability: 172.003   4.304 161.508  18.576 -10.964 109.724

                      1                      2                      3
                      A                      A                      A
 Frequencies --     48.1152                59.7644               139.7985
 Red. masses --      4.1409                 4.4151                 2.8469
 Frc consts  --      0.0056                 0.0093                 0.0328
 IR Inten    --      1.0224                 0.3660                 0.7765

                      4                      5                      6
                      A                      A                      A
 Frequencies --    160.2937               177.3001               242.4203
 Red. masses --      1.0933                 4.1540                 2.3564
 Frc consts  --      0.0166                 0.0769                 0.0816
 IR Inten    --      0.3918                 2.0694                 1.6590

                      7                      8                      9
                      A                      A                      A
 Frequencies --    274.5973               306.5652               351.2577
 Red. masses --      2.8992                 3.2920                 2.3549
 Frc consts  --      0.1288                 0.1823                 0.1712
 IR Inten    --      9.6726                 5.6996                 0.3661

                     10                     11                     12
                      A                      A                      A
 Frequencies --    392.1224               457.8191               466.7347
 Red. masses --      2.5277                 2.7049                 2.9811
 Frc consts  --      0.2290                 0.3340                 0.3826
 IR Inten    --      5.3485                 2.2898                 4.0478

                     13                     14                     15
                      A                      A                      A
 Frequencies --    544.5394               591.0577               607.4373
 Red. masses --      3.6007                 3.4733                 1.9114
 Frc consts  --      0.6291                 0.7149                 0.4155
 IR Inten    --      4.2701                13.3543                 5.9926

                     16                     17                     18
                      A                      A                      A
 Frequencies --    610.7894               694.2504               737.1403
 Red. masses --      3.5303                 4.5839                 9.9441
 Frc consts  --      0.7760                 1.3017                 3.1836
 IR Inten    --      4.2661                 8.4619                13.8725

                     19                     20                     21
                      A                      A                      A
 Frequencies --    805.1408               841.6710               846.4753
 Red. masses --      2.1768                 1.2992                 1.6003
 Frc consts  --      0.8314                 0.5423                 0.6756
 IR Inten    --    144.8927                12.3753                 0.1146

                     22                     23                     24
                      A                      A                      A
 Frequencies --    864.0022               904.2198               933.6189
 Red. masses --      2.1895                 2.5607                 2.9978
 Frc consts  --      0.9630                 1.2336                 1.5395
 IR Inten    --     50.5563                 0.0407                 4.5673

                     25                     26                     27
                      A                      A                      A
 Frequencies --    971.6817               991.1132              1022.8588
 Red. masses --      3.1702                 2.9101                 2.2737
 Frc consts  --      1.7635                 1.6842                 1.4016
 IR Inten    --     11.4526                 2.5283                 4.2674

                     28                     29                     30
                      A                      A                      A
 Frequencies --   1040.3096              1045.5239              1056.4570
 Red. masses --      1.5469                 2.4476                 2.4446
 Frc consts  --      0.9864                 1.5764                 1.6075
 IR Inten    --     17.2237                26.5768                 8.4983

                     31                     32                     33
                      A                      A                      A
 Frequencies --   1083.4137              1142.4932              1164.0940
 Red. masses --      1.4217                 4.0379                 2.7672
 Frc consts  --      0.9832                 3.1054                 2.2094
 IR Inten    --      1.6694                23.9314                48.9414

                     34                     35                     36
                      A                      A                      A
 Frequencies --   1188.4576              1202.4694              1233.1618
 Red. masses --      2.5952                 1.6689                 1.6287
 Frc consts  --      2.1597                 1.4218                 1.4592
 IR Inten    --      4.4116                10.5247                 3.9297

                     37                     38                     39
                      A                      A                      A
 Frequencies --   1243.5303              1271.3828              1299.9453
 Red. masses --      3.5952                 2.1448                 1.3392
 Frc consts  --      3.2756                 2.0426                 1.3333
 IR Inten    --     51.2572                 2.7502                13.4398

                     40                     41                     42
                      A                      A                      A
 Frequencies --   1341.0056              1354.7571              1368.7614
 Red. masses --      1.8257                 1.2944                 1.2612
 Frc consts  --      1.9344                 1.3997                 1.3921
 IR Inten    --     94.7678                 3.1539                 1.9319

                     43                     44                     45
                      A                      A                      A
 Frequencies --   1390.7198              1411.9419              1419.3872
 Red. masses --      1.2675                 1.3766                 1.3753
 Frc consts  --      1.4443                 1.6169                 1.6324
 IR Inten    --      6.4060                 2.3826                13.4680

                     46                     47                     48
                      A                      A                      A
 Frequencies --   1446.7916              1450.5207              1496.9207
 Red. masses --      1.4878                 2.2136                 1.0969
 Frc consts  --      1.8348                 2.7441                 1.4482
 IR Inten    --      8.2303                43.4424                 7.9154

                     49                     50                     51
                      A                      A                      A
 Frequencies --   1500.3287              1503.4698              1509.6475
 Red. masses --      1.0426                 1.0892                 1.1419
 Frc consts  --      1.3827                 1.4506                 1.5333
 IR Inten    --      7.0582                 6.1822                 6.4317

                     52                     53                     54
                      A                      A                      A
 Frequencies --   1513.5039              1516.7073              1525.8598
 Red. masses --      1.1189                 1.1193                 1.0983
 Frc consts  --      1.5101                 1.5170                 1.5066
 IR Inten    --      3.3305                 3.7332                17.0911

                     55                     56                     57
                      A                      A                      A
 Frequencies --   1654.3580              1685.5312              3037.6284
 Red. masses --      8.0899                 6.6229                 1.0388
 Frc consts  --     13.0453                11.0859                 5.6477
 IR Inten    --    500.8490                36.2888                43.2296

                     58                     59                     60
                      A                      A                      A
 Frequencies --   3038.0805              3042.7439              3047.4936
 Red. masses --      1.0693                 1.0674                 1.0658
 Frc consts  --      5.8149                 5.8223                 5.8318
 IR Inten    --     34.6187                21.7986                60.8642

                     61                     62                     63
                      A                      A                      A
 Frequencies --   3056.4403              3084.5246              3094.0897
 Red. masses --      1.0600                 1.1018                 1.1042
 Frc consts  --      5.8344                 6.1764                 6.2282
 IR Inten    --     35.5498                21.0263                53.4206

                     64                     65                     66
                      A                      A                      A
 Frequencies --   3103.2204              3136.0662              3145.5694
 Red. masses --      1.1060                 1.0984                 1.0950
 Frc consts  --      6.2754                 6.3648                 6.3837
 IR Inten    --     47.9187                11.5442                10.8412

                     67                     68                     69
                      A                      A                      A
 Frequencies --   3151.0985              3268.5574              3458.6562
 Red. masses --      1.0951                 1.0978                 1.0736
 Frc consts  --      6.4069                 6.9098                 7.5664
 IR Inten    --      5.9440                13.0964                 4.3700

 - Thermochemistry -
 -------------------
 Temperature   298.150 Kelvin.  Pressure   1.00000 Atm.
 Atom     1 has atomic number  6 and mass  12.00000

 Molecular mass:   167.10586 amu.
 Principal axes and moments of inertia in atomic units:
                           1         2         3
     Eigenvalues --   854.497933002.610523404.75000
           X            0.99990   0.01202   0.00807
           Y           -0.01198   0.99991  -0.00534
           Z           -0.00814   0.00524   0.99995
 This molecule is an asymmetric top.
 Rotational symmetry number  1.
 Warning -- assumption of classical behavior for rotation
           may cause significant error
 Rotational temperatures (Kelvin)      0.10136     0.02885     0.02544
 Rotational constants (GHZ):           2.11205     0.60106     0.53007
 Zero-point vibrational energy     566840.9 (Joules/Mol)
                                  135.47824 (Kcal/Mol)
 Warning -- explicit consideration of  16 degrees of freedom as
           vibrations may cause significant error
 Vibrational temperatures:     69.23    85.99   201.14   230.63   255.10
          (Kelvin)            348.79   395.08   441.08   505.38   564.18
                              658.70   671.53   783.47   850.40   873.97
                              878.79   998.87  1060.58  1158.42  1210.98
                             1217.89  1243.11  1300.97  1343.27  1398.03
                             1425.99  1471.67  1496.77  1504.28  1520.01
                             1558.79  1643.79  1674.87  1709.93  1730.09
                             1774.24  1789.16  1829.24  1870.33  1929.41
                             1949.19  1969.34  2000.94  2031.47  2042.18
                             2081.61  2086.98  2153.73  2158.64  2163.16
                             2172.05  2177.59  2182.20  2195.37  2380.25
                             2425.10  4370.47  4371.12  4377.83  4384.66
                             4397.54  4437.94  4451.70  4464.84  4512.10
                             4525.77  4533.73  4702.73  4976.23

 Zero-point correction=                           0.215898 (Hartree/Particle)
 Thermal correction to Energy=                    0.226526
 Thermal correction to Enthalpy=                  0.227470
 Thermal correction to Gibbs Free Energy=         0.179081
 Sum of electronic and zero-point Energies=           -551.963326
 Sum of electronic and thermal Energies=              -551.952698
 Sum of electronic and thermal Enthalpies=            -551.951754
 Sum of electronic and thermal Free Energies=         -552.000143

                     E (Thermal)             CV                S
                      KCal/Mol        Cal/Mol-Kelvin    Cal/Mol-Kelvin
 Total                  142.147             41.047            101.844
 Electronic               0.000              0.000              0.000
 Translational            0.889              2.981             41.249
 Rotational               0.889              2.981             30.547
 Vibrational            140.370             35.085             30.049
 Vibration     1          0.595              1.978              4.893
 Vibration     2          0.597              1.973              4.465
 Vibration     3          0.615              1.914              2.807
 Vibration     4          0.622              1.891              2.546
 Vibration     5          0.628              1.870              2.357
 Vibration     6          0.659              1.775              1.785
 Vibration     7          0.677              1.720              1.567
 Vibration     8          0.697              1.661              1.381
 Vibration     9          0.728              1.573              1.161
 Vibration    10          0.760              1.487              0.992
 Vibration    11          0.816              1.344              0.772
 Vibration    12          0.824              1.324              0.747
 Vibration    13          0.900              1.152              0.556
 Vibration    14          0.948              1.051              0.465
 Vibration    15          0.966              1.016              0.437
 Vibration    16          0.970              1.009              0.431

                           ! Non-Optimized Parameters !
 Normal termination of Gaussian 16 at Wed Dec  9 17:36:53 2020.

 ----------------------------------------------------------------------
 # B3LYP/6-311++G(d,p) empiricaldispersion=gd3bj scf=xqc pop=npa geom=c
 heck
 ----------------------------------------------------------------------

 --------------------------------------
 CID_96737860_JID_2533_Energie_neutraal
 --------------------------------------
 Structure from the checkpoint file:  "JID_2533.chk"
 Charge =  0 Multiplicity = 1

 SCF Done:  E(RB3LYP) =  -552.332455273     A.U. after   14 cycles
 Normal termination of Gaussian 16 at Wed Dec  9 17:39:40 2020.

 ----------------------------------------------------------------------
 # B3LYP/6-311++G(d,p) empiricaldispersion=gd3bj scf=xqc pop=npa geom=c
 heck
 ----------------------------------------------------------------------

 ------------------------------------
 CID_96737860_JID_2533_Energie_kation
 ------------------------------------
 Structure from the checkpoint file:  "JID_2533.chk"
 Charge =  1 Multiplicity = 2

 SCF Done:  E(UB3LYP) =  -552.072229944     A.U. after   18 cycles
 Normal termination of Gaussian 16 at Wed Dec  9 17:44:32 2020.
 Gaussian 16:  ES64L-G16RevA.03 25-Dec-2016

 ----------------------------------------------------------------------
 # B3LYP/6-311++G(d,p) empiricaldispersion=gd3bj scf=xqc pop=npa geom=c
 heck
 ----------------------------------------------------------------------

 -----------------------------------
 CID_96737860_JID_2533_Energie_anion
 -----------------------------------
 Structure from the checkpoint file:  "JID_2533.chk"
 Charge = -1 Multiplicity = 2

                         Standard orientation:
 ---------------------------------------------------------------------
 Center     Atomic      Atomic             Coordinates (Angstroms)
 Number     Number       Type             X           Y           Z
 ---------------------------------------------------------------------
      1          6           0       -3.769574   -0.962895   -0.318764
      2          6           0       -2.594509   -0.073385   -0.156379
      3          6           0       -2.319816    1.232775   -0.376479
      4          7           0       -0.993707    1.520592   -0.048185
      5          6           0       -0.524984    0.378156    0.374321
      6          8           0       -1.420000   -0.648647    0.337776
      7          7           0        0.716272    0.116197    0.893675
      8          6           0        1.252295   -1.245723    0.788197
      9          6           0        1.973920   -1.438731   -0.555630
     10          7           0        2.986149   -0.412863   -0.824837
     11          6           0        2.440220    0.941017   -0.664488
     12          6           0        1.731205    1.155224    0.680632
     13          1           0       -3.565017   -1.786191   -1.015260
     14          1           0       -4.079948   -1.407784    0.635278
     15          1           0       -4.610478   -0.385606   -0.713710
     16          1           0       -2.981088    1.997374   -0.759975
     17          1           0        1.960167   -1.382575    1.616530
     18          1           0        0.438883   -1.961545    0.919488
     19          1           0        1.231293   -1.398508   -1.363675
     20          1           0        2.450334   -2.425299   -0.595968
     21          1           0        3.759618   -0.535567   -0.170260
     22          1           0        1.716746    1.112297   -1.471143
     23          1           0        3.252960    1.665278   -0.790720
     24          1           0        1.240599    2.128746    0.728315
     25          1           0        2.452386    1.082447    1.505860
 ---------------------------------------------------------------------

 SCF Done:  E(UB3LYP) =  -552.317779548     A.U. after   31 cycles

 The electronic state is 2-A.
 Alpha  occ. eigenvalues --  -19.08742 -14.24141 -14.20044 -14.19292 -10.18451
 Alpha  occ. eigenvalues --  -10.12386 -10.10254 -10.10200 -10.09582 -10.09486
 Alpha  occ. eigenvalues --  -10.08981 -10.07856  -1.02587  -0.86860  -0.81315
 Alpha  occ. eigenvalues --   -0.79667  -0.68708  -0.67090  -0.61798  -0.57256
 Alpha  occ. eigenvalues --   -0.55459  -0.52093  -0.49816  -0.46123  -0.43834
 Alpha  occ. eigenvalues --   -0.38738  -0.37907  -0.36912  -0.35895  -0.35078
 Alpha  occ. eigenvalues --   -0.34762  -0.32989  -0.31874  -0.31095  -0.30515
 Alpha  occ. eigenvalues --   -0.30031  -0.28553  -0.26221  -0.25415  -0.25194
 Alpha  occ. eigenvalues --   -0.22162  -0.19752  -0.18689  -0.13593  -0.09464
 Alpha  occ. eigenvalues --    0.04421
 Alpha virt. eigenvalues --    0.05903   0.07618   0.08451   0.08583   0.09229
 Alpha virt. eigenvalues --    0.09804   0.10921   0.11024   0.11651   0.11886
 Alpha virt. eigenvalues --    0.12266   0.13317   0.13936   0.14591   0.14779

  Beta  occ. eigenvalues --  -19.08732 -14.24142 -14.20017 -14.19290 -10.18447
  Beta  occ. eigenvalues --  -10.12384 -10.10226 -10.10183 -10.09572 -10.09466
  Beta  occ. eigenvalues --  -10.08972 -10.07806  -1.02575  -0.86845  -0.81294
  Beta  occ. eigenvalues --   -0.79631  -0.68677  -0.67054  -0.61746  -0.57214
  Beta  occ. eigenvalues --   -0.55414  -0.52045  -0.49770  -0.46093  -0.43793
  Beta  occ. eigenvalues --   -0.38708  -0.37858  -0.36870  -0.35858  -0.35043
  Beta  occ. eigenvalues --   -0.34731  -0.32949  -0.31845  -0.31047  -0.30469
  Beta  occ. eigenvalues --   -0.29995  -0.28522  -0.26175  -0.25378  -0.25152
  Beta  occ. eigenvalues --   -0.22143  -0.19730  -0.18682  -0.13559  -0.09440
  Beta virt. eigenvalues --    0.06780   0.07348   0.08350   0.08852   0.09194
  Beta virt. eigenvalues --    0.09833   0.10276   0.11275   0.11445   0.11939
  Beta virt. eigenvalues --    0.12227   0.12677   0.13588   0.14326   0.14640

 Mulliken charges and spin densities:
               1          2
     1  C    2.444322  -3.013124
     2  C   -1.145716   1.548959
     3  C   -0.413151   0.144173
     4  N   -0.186249   0.073840
     5  C   -0.221240  -0.210366
     6  O   -0.108905   0.050245
     7  N    0.112245   0.049840
     8  C    0.065139  -0.416642
     9  C    0.859700  -1.165162
    10  N   -0.271903   0.157271
    11  C    0.244596  -0.607174
    12  C    0.096845  -0.383019
    13  H   -0.311323   0.468683
    14  H   -0.283674   0.440367
    15  H   -0.547224   0.715650
    16  H   -0.344498   0.492625
    17  H   -0.454557   0.632228
    18  H   -0.014856   0.215105
    19  H    0.140880   0.022665
    20  H   -0.466767   0.650660
    21  H   -0.085961   0.321258
    22  H    0.139008   0.032622
    23  H   -0.101117   0.267389
    24  H    0.235180  -0.046468
    25  H   -0.380776   0.558374
 Sum of Mulliken charges =  -1.00000   1.00000

 Dipole moment (field-independent basis, Debye):
    X=              0.2797    Y=              2.8198    Z=             -0.3855  Tot=              2.8598
 Quadrupole moment (field-independent basis, Debye-Ang):
   XX=           -160.7504   YY=           -110.2435   ZZ=           -102.7700
   XY=              2.4801   XZ=             -7.0325   YZ=              0.7247

 Summary of Natural Population Analysis:

                                       Natural Population
                Natural  -----------------------------------------------
    Atom  No    Charge         Core      Valence    Rydberg      Total
 -----------------------------------------------------------------------
      C    1   -0.30568      0.99963     2.30038    0.00567     3.30568
      C    2    0.12081      0.99946     1.86577    0.01396     2.87919
      C    3   -0.04255      0.99948     2.02943    0.01364     3.04255
      N    4   -0.29306      0.99968     2.78423    0.00915     3.79306
      C    5    0.36148      0.99956     1.61902    0.01994     2.63852
      O    6   -0.25320      0.99985     3.24618    0.00717     4.25320
      N    7   -0.25831      0.99965     2.74642    0.01224     3.75831
      C    8   -0.09446      0.99961     2.08322    0.01164     3.09446
      C    9   -0.09691      0.99962     2.08553    0.01176     3.09691
      N   10   -0.33670      0.99976     2.82306    0.01387     3.83670
      C   11   -0.09804      0.99962     2.08712    0.01130     3.09804
      C   12   -0.09405      0.99961     2.08333    0.01111     3.09405
      H   13    0.10749      0.00000     0.39065    0.00186     0.39251
      H   14    0.10649      0.00000     0.39187    0.00164     0.39351
      H   15    0.11126      0.00000     0.38678    0.00197     0.38874
      H   16    0.09960      0.00000     0.39932    0.00108     0.40040
      H   17    0.09682      0.00000     0.40064    0.00255     0.40318
      H   18    0.10912      0.00000     0.38907    0.00181     0.39088
      H   19    0.09067      0.00000     0.40791    0.00141     0.40933
      H   20    0.09969      0.00000     0.39881    0.00150     0.40031
      H   21    0.17253      0.00000     0.32284    0.00463     0.32747
      H   22    0.09448      0.00000     0.40418    0.00134     0.40552
      H   23    0.09612      0.00000     0.40295    0.00093     0.40388
      H   24    0.11175      0.00000     0.38653    0.00171     0.38825
      H   25    0.09465      0.00000     0.40375    0.00160     0.40535
 =======================================================================
   * Total *   -0.00000     11.99554    32.83898    0.16548    45.00000

 Normal termination of Gaussian 16 at Wed Dec  9 17:53:28 2020.
