 Gaussian 16, Revision A.03,

 -----------------------------------------------------------
 # opt freq B3LYP/6-31G(d) empiricaldispersion=gd3bj scf=xqc
 -----------------------------------------------------------

 -------------------------------
 CID_151441749_JID_5578_neutraal
 -------------------------------
 Symbolic Z-matrix:
 Charge =  0 Multiplicity = 1

 SCF Done:  E(RB3LYP) =  -1347.08153078     A.U. after   16 cycles
 SCF Done:  E(RB3LYP) =  -1347.08559427     A.U. after   14 cycles
 SCF Done:  E(RB3LYP) =  -1347.08713293     A.U. after   14 cycles
 SCF Done:  E(RB3LYP) =  -1347.08760903     A.U. after   13 cycles
 SCF Done:  E(RB3LYP) =  -1347.08778294     A.U. after   13 cycles
 SCF Done:  E(RB3LYP) =  -1347.08782772     A.U. after   13 cycles
 SCF Done:  E(RB3LYP) =  -1347.08786108     A.U. after   11 cycles
 SCF Done:  E(RB3LYP) =  -1347.08787958     A.U. after   11 cycles
 SCF Done:  E(RB3LYP) =  -1347.08788237     A.U. after    9 cycles
 SCF Done:  E(RB3LYP) =  -1347.08788672     A.U. after   11 cycles
 SCF Done:  E(RB3LYP) =  -1347.08789141     A.U. after   10 cycles
 SCF Done:  E(RB3LYP) =  -1347.08789236     A.U. after    9 cycles
 SCF Done:  E(RB3LYP) =  -1347.08789275     A.U. after    8 cycles
 SCF Done:  E(RB3LYP) =  -1347.08789290     A.U. after    9 cycles
 SCF Done:  E(RB3LYP) =  -1347.08789309     A.U. after    9 cycles
 SCF Done:  E(RB3LYP) =  -1347.08789314     A.U. after    8 cycles
 Optimization completed.
    -- Stationary point found.
 Normal termination of Gaussian 16 at Thu Dec 10 16:34:46 2020.

 --------------------------------------------------------------------
 #N Geom=AllCheck Guess=TCheck SCRF=Check GenChk RB3LYP/6-31G(d) Freq
 --------------------------------------------------------------------

 Structure from the checkpoint file:  "JID_5578.chk"
 -------------------------------
 CID_151441749_JID_5578_neutraal
 -------------------------------
 Charge =  0 Multiplicity = 1

 SCF Done:  E(RB3LYP) =  -1347.08789314     A.U. after    1 cycles

  Exact polarizability: 247.496   9.784 138.107  -7.232  13.806 109.452
 Approx polarizability: 354.291  11.549 256.913 -21.235  45.014 223.605

                      1                      2                      3
                      A                      A                      A
 Frequencies --     19.3655                33.3529                47.5640
 Red. masses --      7.6430                 6.9321                 6.4656
 Frc consts  --      0.0017                 0.0045                 0.0086
 IR Inten    --      0.3528                 0.1579                 0.1781

                      4                      5                      6
                      A                      A                      A
 Frequencies --     62.8475                78.3064               106.9143
 Red. masses --      7.2797                 5.7711                 1.1078
 Frc consts  --      0.0169                 0.0208                 0.0075
 IR Inten    --      1.1000                 0.9130                 0.2014

                      7                      8                      9
                      A                      A                      A
 Frequencies --    133.7479               156.4328               220.8359
 Red. masses --      5.6339                 6.6527                 5.1263
 Frc consts  --      0.0594                 0.0959                 0.1473
 IR Inten    --      2.1010                 2.3616                 0.7267

                     10                     11                     12
                      A                      A                      A
 Frequencies --    257.0758               278.3797               298.7004
 Red. masses --      4.3322                 4.4373                 3.7227
 Frc consts  --      0.1687                 0.2026                 0.1957
 IR Inten    --      1.5583                 1.8629                 1.8014

                     13                     14                     15
                      A                      A                      A
 Frequencies --    333.9401               372.1875               416.7111
 Red. masses --      3.9132                 5.5460                 5.8280
 Frc consts  --      0.2571                 0.4526                 0.5963
 IR Inten    --      2.7627                 1.9956                 1.8893

                     16                     17                     18
                      A                      A                      A
 Frequencies --    498.6997               541.3863               574.8760
 Red. masses --      6.0217                 4.8491                 4.5731
 Frc consts  --      0.8824                 0.8374                 0.8904
 IR Inten    --      9.6687                 0.4230                 0.1514

                     19                     20                     21
                      A                      A                      A
 Frequencies --    576.1566               584.5809               591.0970
 Red. masses --      8.5503                 4.8591                 3.6196
 Frc consts  --      1.6723                 0.9784                 0.7451
 IR Inten    --     12.4925                 6.4445                 0.2436

                     22                     23                     24
                      A                      A                      A
 Frequencies --    618.0383               675.6228               679.5485
 Red. masses --      6.2738                 6.6296                 6.9020
 Frc consts  --      1.4119                 1.7830                 1.8779
 IR Inten    --      8.6125                 3.9715                 2.1481

                     25                     26                     27
                      A                      A                      A
 Frequencies --    709.4128               748.4738               758.5707
 Red. masses --      5.3475                 6.9024                 6.1982
 Frc consts  --      1.5856                 2.2783                 2.1014
 IR Inten    --     20.6648                 1.5469                 3.3125

                     28                     29                     30
                      A                      A                      A
 Frequencies --    808.6293               812.5293               877.4667
 Red. masses --      1.2279                 1.3337                 2.9894
 Frc consts  --      0.4731                 0.5188                 1.3561
 IR Inten    --     49.4058                12.4776                22.6893

                     31                     32                     33
                      A                      A                      A
 Frequencies --    884.6160               897.9553               915.8958
 Red. masses --      1.4316                 1.8155                 4.9112
 Frc consts  --      0.6600                 0.8625                 2.4273
 IR Inten    --      0.5097                 7.0154                14.5152

                     34                     35                     36
                      A                      A                      A
 Frequencies --    986.6120              1003.9875              1068.9191
 Red. masses --      2.0165                 1.7917                 1.4397
 Frc consts  --      1.1565                 1.0641                 0.9692
 IR Inten    --     12.7979                 2.9063                17.9121

                     37                     38                     39
                      A                      A                      A
 Frequencies --   1071.4904              1083.5201              1174.9368
 Red. masses --      1.3977                 1.3299                 3.1385
 Frc consts  --      0.9455                 0.9199                 2.5527
 IR Inten    --      1.3834                 0.7569                11.0545

                     40                     41                     42
                      A                      A                      A
 Frequencies --   1190.0172              1198.0341              1242.7515
 Red. masses --      4.0109                 2.7232                 1.4153
 Frc consts  --      3.3466                 2.3029                 1.2878
 IR Inten    --      5.7130                 8.9174                26.0110

                     43                     44                     45
                      A                      A                      A
 Frequencies --   1267.8186              1291.4755              1301.6369
 Red. masses --      1.5021                 2.6499                 1.7701
 Frc consts  --      1.4225                 2.6041                 1.7669
 IR Inten    --      4.5525                91.8568                91.6566

                     46                     47                     48
                      A                      A                      A
 Frequencies --   1377.2323              1388.9189              1395.1302
 Red. masses --      3.0822                 2.7743                 1.6088
 Frc consts  --      3.4445                 3.1533                 1.8449
 IR Inten    --      1.4841                 7.4914                20.5862

                     49                     50                     51
                      A                      A                      A
 Frequencies --   1444.6469              1505.4133              1507.1999
 Red. masses --      1.2426                 5.6449                 1.0422
 Frc consts  --      1.5279                 7.5374                 1.3950
 IR Inten    --      4.8822                 7.4888                 7.8789

                     52                     53                     54
                      A                      A                      A
 Frequencies --   1516.7653              1519.5358              1546.0954
 Red. masses --      1.1049                 1.2421                 4.4988
 Frc consts  --      1.4977                 1.6898                 6.3361
 IR Inten    --      4.1540                 7.3998                37.2162

                     55                     56                     57
                      A                      A                      A
 Frequencies --   1598.8449              1619.0082              2260.0886
 Red. masses --      5.2539                 5.6287                13.6811
 Frc consts  --      7.9130                 8.6927                41.1740
 IR Inten    --      4.0980                 1.1082               424.5758

                     58                     59                     60
                      A                      A                      A
 Frequencies --   3045.4107              3052.2800              3097.2202
 Red. masses --      1.0365                 1.0691                 1.1017
 Frc consts  --      5.6638                 5.8681                 6.2270
 IR Inten    --     46.6762                38.0676                14.8799

                     61                     62                     63
                      A                      A                      A
 Frequencies --   3130.5040              3137.1491              3211.9226
 Red. masses --      1.1008                 1.0965                 1.0898
 Frc consts  --      6.3562                 6.3579                 6.6241
 IR Inten    --     12.0992                 9.4181                25.1018

                     64                     65                     66
                      A                      A                      A
 Frequencies --   3213.0131              3229.8262              3234.6518
 Red. masses --      1.0906                 1.0963                 1.0955
 Frc consts  --      6.6332                 6.7383                 6.7535
 IR Inten    --      2.9249                 3.3486                 6.4383

 - Thermochemistry -
 -------------------
 Temperature   298.150 Kelvin.  Pressure   1.00000 Atm.
 Atom     1 has atomic number  6 and mass  12.00000

 Molecular mass:   235.02379 amu.
 Principal axes and moments of inertia in atomic units:
                           1         2         3
     Eigenvalues --  1385.057468150.413768551.05365
           X            0.99991   0.01059  -0.00790
           Y           -0.01031   0.99933   0.03512
           Z            0.00827  -0.03504   0.99935
 This molecule is an asymmetric top.
 Rotational symmetry number  1.
 Warning -- assumption of classical behavior for rotation
           may cause significant error
 Rotational temperatures (Kelvin)      0.06253     0.01063     0.01013
 Rotational constants (GHZ):           1.30301     0.22143     0.21105
 Zero-point vibrational energy     457463.8 (Joules/Mol)
                                  109.33647 (Kcal/Mol)
 Warning -- explicit consideration of  22 degrees of freedom as
           vibrations may cause significant error
 Vibrational temperatures:     27.86    47.99    68.43    90.42   112.67
          (Kelvin)            153.83   192.43   225.07   317.73   369.87
                              400.53   429.76   480.47   535.49   599.55
                              717.52   778.93   827.12   828.96   841.08
                              850.46   889.22   972.07   977.72  1020.69
                             1076.89  1091.41  1163.44  1169.05  1262.48
                             1272.77  1291.96  1317.77  1419.51  1444.51
                             1537.94  1541.64  1558.94  1690.47  1712.17
                             1723.70  1788.04  1824.11  1858.15  1872.77
                             1981.53  1998.34  2007.28  2078.52  2165.95
                             2168.52  2182.29  2186.27  2224.49  2300.38
                             2329.39  3251.76  4381.67  4391.55  4456.21
                             4504.10  4513.66  4621.24  4622.81  4647.00
                             4653.94

 Zero-point correction=                           0.174239 (Hartree/Particle)
 Thermal correction to Energy=                    0.188661
 Thermal correction to Enthalpy=                  0.189605
 Thermal correction to Gibbs Free Energy=         0.129666
 Sum of electronic and zero-point Energies=          -1346.913654
 Sum of electronic and thermal Energies=             -1346.899233
 Sum of electronic and thermal Enthalpies=           -1346.898288
 Sum of electronic and thermal Free Energies=        -1346.958227

                     E (Thermal)             CV                S
                      KCal/Mol        Cal/Mol-Kelvin    Cal/Mol-Kelvin
 Total                  118.386             51.967            126.152
 Electronic               0.000              0.000              0.000
 Translational            0.889              2.981             42.265
 Rotational               0.889              2.981             32.934
 Vibrational            116.609             46.006             50.952
 Vibration     1          0.593              1.986              6.698
 Vibration     2          0.594              1.983              5.619
 Vibration     3          0.595              1.979              4.916
 Vibration     4          0.597              1.972              4.366
 Vibration     5          0.600              1.964              3.933
 Vibration     6          0.606              1.944              3.324
 Vibration     7          0.613              1.920              2.891
 Vibration     8          0.620              1.895              2.592
 Vibration     9          0.648              1.809              1.952
 Vibration    10          0.667              1.751              1.682
 Vibration    11          0.679              1.714              1.544
 Vibration    12          0.692              1.676              1.424
 Vibration    13          0.715              1.608              1.241
 Vibration    14          0.744              1.529              1.071
 Vibration    15          0.780              1.434              0.903
 Vibration    16          0.854              1.253              0.661
 Vibration    17          0.896              1.159              0.562
 Vibration    18          0.931              1.086              0.495
 Vibration    19          0.933              1.083              0.493
 Vibration    20          0.942              1.065              0.477
 Vibration    21          0.949              1.051              0.465
 Vibration    22          0.978              0.994              0.420

                           ! Non-Optimized Parameters !
 Normal termination of Gaussian 16 at Thu Dec 10 16:41:40 2020.

 ----------------------------------------------------------------------
 # B3LYP/6-311++G(d,p) empiricaldispersion=gd3bj scf=xqc pop=npa geom=c
 heck
 ----------------------------------------------------------------------

 ---------------------------------------
 CID_151441749_JID_5578_Energie_neutraal
 ---------------------------------------
 Structure from the checkpoint file:  "JID_5578.chk"
 Charge =  0 Multiplicity = 1

 SCF Done:  E(RB3LYP) =  -1347.28455734     A.U. after   16 cycles
 Normal termination of Gaussian 16 at Thu Dec 10 16:45:41 2020.

 ----------------------------------------------------------------------
 # B3LYP/6-311++G(d,p) empiricaldispersion=gd3bj scf=xqc pop=npa geom=c
 heck
 ----------------------------------------------------------------------

 -------------------------------------
 CID_151441749_JID_5578_Energie_kation
 -------------------------------------
 Structure from the checkpoint file:  "JID_5578.chk"
 Charge =  1 Multiplicity = 2

 SCF Done:  E(UB3LYP) =  -1347.01168286     A.U. after   24 cycles
 Normal termination of Gaussian 16 at Thu Dec 10 16:54:56 2020.
 Gaussian 16:  ES64L-G16RevA.03 25-Dec-2016

 ----------------------------------------------------------------------
 # B3LYP/6-311++G(d,p) empiricaldispersion=gd3bj scf=xqc pop=npa geom=c
 heck
 ----------------------------------------------------------------------

 ------------------------------------
 CID_151441749_JID_5578_Energie_anion
 ------------------------------------
 Structure from the checkpoint file:  "JID_5578.chk"
 Charge = -1 Multiplicity = 2

                         Standard orientation:
 ---------------------------------------------------------------------
 Center     Atomic      Atomic             Coordinates (Angstroms)
 Number     Number       Type             X           Y           Z
 ---------------------------------------------------------------------
      1          6           0       -5.132710   -1.245250    0.186972
      2          6           0       -3.922175   -0.364265    0.169757
      3          6           0       -3.855160    0.996749    0.316555
      4          6           0       -2.533656    1.519805    0.233380
      5          6           0       -1.576056    0.552854    0.030108
      6         16           0       -2.323469   -1.033389   -0.057991
      7          6           0       -0.143667    0.733648   -0.080787
      8          6           0        0.619992    1.751260    0.449018
      9          6           0        2.000472    1.643039    0.127712
     10          6           0        2.299469    0.550266   -0.646283
     11         16           0        0.860461   -0.375362   -0.995225
     12          6           0        3.650712    0.084712   -1.080499
     13          7           0        4.172753   -1.079008   -0.298928
     14          7           0        4.149636   -0.918166    0.926207
     15          7           0        4.163064   -0.874406    2.066863
     16          1           0       -5.257978   -1.785824   -0.758966
     17          1           0       -5.083894   -1.992452    0.988203
     18          1           0       -6.028011   -0.637249    0.348354
     19          1           0       -4.736833    1.610814    0.468216
     20          1           0       -2.294331    2.575474    0.293758
     21          1           0        0.200533    2.532742    1.071794
     22          1           0        2.755777    2.344366    0.467394
     23          1           0        3.654839   -0.265763   -2.114246
     24          1           0        4.356518    0.922048   -1.007633
 ---------------------------------------------------------------------

 SCF Done:  E(UB3LYP) =  -1347.29512458     A.U. after   26 cycles

 The electronic state is 2-A.
 Alpha  occ. eigenvalues --  -88.73108 -88.72760 -14.35172 -14.25385 -14.23506
 Alpha  occ. eigenvalues --  -10.10635 -10.06853 -10.06209 -10.06161 -10.05865
 Alpha  occ. eigenvalues --  -10.05508 -10.04228 -10.04165 -10.02953 -10.02882
 Alpha  occ. eigenvalues --   -7.81776  -7.81429  -5.78074  -5.77729  -5.77720
 Alpha  occ. eigenvalues --   -5.77374  -5.77360  -5.77018  -1.01558  -0.85714
 Alpha  occ. eigenvalues --   -0.75368  -0.73577  -0.66034  -0.63829  -0.60561
 Alpha  occ. eigenvalues --   -0.58997  -0.58229  -0.53460  -0.45901  -0.43536
 Alpha  occ. eigenvalues --   -0.41106  -0.40223  -0.39963  -0.38940  -0.38162
 Alpha  occ. eigenvalues --   -0.36700  -0.33860  -0.32624  -0.31736  -0.31118
 Alpha  occ. eigenvalues --   -0.30193  -0.27949  -0.27350  -0.26067  -0.25536
 Alpha  occ. eigenvalues --   -0.23931  -0.22921  -0.22465  -0.21287  -0.19884
 Alpha  occ. eigenvalues --   -0.18883  -0.14026  -0.13356  -0.12379  -0.11829
 Alpha  occ. eigenvalues --   -0.07244   0.04160
 Alpha virt. eigenvalues --    0.07266   0.07535   0.08858   0.09473   0.10414
 Alpha virt. eigenvalues --    0.10723   0.11162   0.11805   0.12088   0.12856
 Alpha virt. eigenvalues --    0.13080   0.13390   0.13754   0.14169   0.14752

  Beta  occ. eigenvalues --  -88.73074 -88.72713 -14.35042 -14.25201 -14.23496
  Beta  occ. eigenvalues --  -10.10594 -10.06875 -10.06060 -10.05916 -10.05649
  Beta  occ. eigenvalues --  -10.05229 -10.04312 -10.04193 -10.02782 -10.02780
  Beta  occ. eigenvalues --   -7.81746  -7.81388  -5.78058  -5.77710  -5.77706
  Beta  occ. eigenvalues --   -5.77356  -5.77248  -5.76861  -1.01288  -0.85543
  Beta  occ. eigenvalues --   -0.75055  -0.73298  -0.65637  -0.63588  -0.60336
  Beta  occ. eigenvalues --   -0.58791  -0.57962  -0.53235  -0.45447  -0.43300
  Beta  occ. eigenvalues --   -0.40813  -0.39984  -0.39596  -0.38599  -0.37984
  Beta  occ. eigenvalues --   -0.36538  -0.33545  -0.32425  -0.31423  -0.30859
  Beta  occ. eigenvalues --   -0.30094  -0.27704  -0.27209  -0.25642  -0.25008
  Beta  occ. eigenvalues --   -0.23743  -0.22749  -0.21840  -0.21088  -0.19649
  Beta  occ. eigenvalues --   -0.18567  -0.13789  -0.12334  -0.11537  -0.11117
  Beta  occ. eigenvalues --   -0.05886
  Beta virt. eigenvalues --    0.07431   0.08028   0.08660   0.09167   0.09578
  Beta virt. eigenvalues --    0.10534   0.10855   0.11489   0.11890   0.12078
  Beta virt. eigenvalues --    0.12877   0.13178   0.13526   0.14191   0.14370

 Mulliken charges and spin densities:
               1          2
     1  C   -0.642781  -0.041901
     2  C    0.169914   0.147527
     3  C    0.030971  -0.030832
     4  C   -0.022742   0.170139
     5  C    0.249414  -0.012391
     6  S   -0.723964   0.096865
     7  C    0.144936   0.072177
     8  C   -0.102318   0.127959
     9  C   -0.053067  -0.006333
    10  C    0.583074   0.129289
    11  S   -0.736644   0.114605
    12  C   -0.902036   0.032755
    13  N   -0.383632  -0.003688
    14  N    0.542373   0.031009
    15  N   -0.228525   0.099703
    16  H    0.088078   0.056603
    17  H    0.135776   0.008469
    18  H    0.121650   0.006505
    19  H    0.112232   0.002552
    20  H    0.067921   0.000627
    21  H    0.092364  -0.007775
    22  H    0.118425   0.007392
    23  H    0.197916  -0.000391
    24  H    0.140663  -0.000867
 Sum of Mulliken charges =  -1.00000   1.00000

 Dipole moment (field-independent basis, Debye):
    X=             -1.0793    Y=              1.2115    Z=             -1.0860  Tot=              1.9524
 Quadrupole moment (field-independent basis, Debye-Ang):
   XX=           -148.4139   YY=           -115.1202   ZZ=           -119.5053
   XY=              7.3903   XZ=             -8.5847   YZ=              2.1990

 Summary of Natural Population Analysis:

                                       Natural Population
                Natural  -----------------------------------------------
    Atom  No    Charge         Core      Valence    Rydberg      Total
 -----------------------------------------------------------------------
      C    1   -0.29723      0.99962     2.29251    0.00510     3.29723
      C    2   -0.05671      0.99952     2.04559    0.01160     3.05671
      C    3   -0.15604      0.99949     2.14707    0.00949     3.15604
      C    4   -0.08633      0.99940     2.07502    0.01191     3.08633
      C    5   -0.10143      0.99945     2.08703    0.01495     3.10143
      S    6    0.20101      4.99940     2.77988    0.01971     7.79899
      C    7   -0.07073      0.99934     2.05439    0.01700     3.07073
      C    8   -0.10386      0.99941     2.09596    0.00849     3.10386
      C    9   -0.13427      0.99949     2.12489    0.00990     3.13427
      C   10   -0.07965      0.99949     2.06856    0.01160     3.07965
      S   11    0.21092      4.99940     2.76909    0.02059     7.78908
      C   12   -0.10079      0.99952     2.08990    0.01137     3.10079
      N   13   -0.19734      0.99972     2.68048    0.01714     3.69734
      N   14    0.12572      0.99971     2.35773    0.01685     3.37428
      N   15   -0.03643      0.99982     2.52332    0.01329     3.53643
      H   16    0.10130      0.00000     0.39754    0.00116     0.39870
      H   17    0.10036      0.00000     0.39850    0.00113     0.39964
      H   18    0.09934      0.00000     0.39974    0.00092     0.40066
      H   19    0.09575      0.00000     0.40316    0.00109     0.40425
      H   20    0.09863      0.00000     0.40025    0.00112     0.40137
      H   21    0.09918      0.00000     0.39962    0.00120     0.40082
      H   22    0.09692      0.00000     0.40188    0.00120     0.40308
      H   23    0.09950      0.00000     0.39938    0.00112     0.40050
      H   24    0.09234      0.00000     0.40629    0.00137     0.40766
 =======================================================================
   * Total *    0.00014     22.99277    37.79778    0.20931    60.99986

 Normal termination of Gaussian 16 at Thu Dec 10 17:07:25 2020.
