 Gaussian 16, Revision A.03,

 -----------------------------------------------------------
 # opt freq B3LYP/6-31G(d) empiricaldispersion=gd3bj scf=xqc
 -----------------------------------------------------------

 ------------------------------
 CID_65951846_JID_7872_neutraal
 ------------------------------
 Symbolic Z-matrix:
 Charge =  0 Multiplicity = 1

 SCF Done:  E(RB3LYP) =  -750.140821251     A.U. after   13 cycles
 SCF Done:  E(RB3LYP) =  -750.147153383     A.U. after   12 cycles
 SCF Done:  E(RB3LYP) =  -750.143505691     A.U. after   12 cycles
 SCF Done:  E(RB3LYP) =  -750.145403988     A.U. after   12 cycles
 SCF Done:  E(RB3LYP) =  -750.148366691     A.U. after   10 cycles
 SCF Done:  E(RB3LYP) =  -750.149867982     A.U. after   12 cycles
 SCF Done:  E(RB3LYP) =  -750.150370339     A.U. after   11 cycles
 SCF Done:  E(RB3LYP) =  -750.150485859     A.U. after   11 cycles
 SCF Done:  E(RB3LYP) =  -750.150501458     A.U. after   10 cycles
 SCF Done:  E(RB3LYP) =  -750.150525388     A.U. after   10 cycles
 SCF Done:  E(RB3LYP) =  -750.150527695     A.U. after    9 cycles
 SCF Done:  E(RB3LYP) =  -750.150528618     A.U. after    8 cycles
 SCF Done:  E(RB3LYP) =  -750.150528662     A.U. after    6 cycles
 Optimization completed.
    -- Stationary point found.
 Normal termination of Gaussian 16 at Sun Dec 13 16:08:53 2020.

 --------------------------------------------------------------------
 #N Geom=AllCheck Guess=TCheck SCRF=Check GenChk RB3LYP/6-31G(d) Freq
 --------------------------------------------------------------------

 Structure from the checkpoint file:  "JID_7872.chk"
 ------------------------------
 CID_65951846_JID_7872_neutraal
 ------------------------------
 Charge =  0 Multiplicity = 1

 SCF Done:  E(RB3LYP) =  -750.150528662     A.U. after    1 cycles

  Exact polarizability: 166.510 -11.505 148.397 -18.690  -6.992 135.796
 Approx polarizability: 221.637 -22.234 236.905 -37.209 -20.413 212.682

                      1                      2                      3
                      A                      A                      A
 Frequencies --     41.3325                63.9865                86.9301
 Red. masses --      4.8620                 3.8311                 3.8323
 Frc consts  --      0.0049                 0.0092                 0.0171
 IR Inten    --      0.0924                 0.9182                 0.3292

                      4                      5                      6
                      A                      A                      A
 Frequencies --    102.7967               150.3093               161.0110
 Red. masses --      3.7616                 3.5291                 3.6579
 Frc consts  --      0.0234                 0.0470                 0.0559
 IR Inten    --      0.1060                 0.1369                 1.9198

                      7                      8                      9
                      A                      A                      A
 Frequencies --    196.5716               228.0169               240.3557
 Red. masses --      3.4054                 3.5188                 1.1322
 Frc consts  --      0.0775                 0.1078                 0.0385
 IR Inten    --      2.6815                 9.0127                 0.2427

                     10                     11                     12
                      A                      A                      A
 Frequencies --    285.4476               312.1999               345.5286
 Red. masses --      2.6365                 2.8397                 2.6823
 Frc consts  --      0.1266                 0.1631                 0.1887
 IR Inten    --      1.6193                 0.9165                 3.4779

                     13                     14                     15
                      A                      A                      A
 Frequencies --    371.6138               374.8813               398.0603
 Red. masses --      3.1136                 3.2831                 2.2231
 Frc consts  --      0.2533                 0.2718                 0.2075
 IR Inten    --      5.6186                 2.5876                 0.2801

                     16                     17                     18
                      A                      A                      A
 Frequencies --    437.1142               440.9856               456.0848
 Red. masses --      2.7162                 2.7632                 2.9204
 Frc consts  --      0.3058                 0.3166                 0.3579
 IR Inten    --      0.7297                 0.3726                 2.8785

                     19                     20                     21
                      A                      A                      A
 Frequencies --    468.8130               479.2115               516.0716
 Red. masses --      3.1975                 3.5347                 4.0263
 Frc consts  --      0.4141                 0.4783                 0.6318
 IR Inten    --      3.2870                 0.5574                 2.5001

                     22                     23                     24
                      A                      A                      A
 Frequencies --    582.6582               605.3383               623.6592
 Red. masses --      4.6515                 4.1133                 1.2342
 Frc consts  --      0.9304                 0.8881                 0.2828
 IR Inten    --      2.1501                 0.2171                75.6189

                     25                     26                     27
                      A                      A                      A
 Frequencies --    639.2047               692.1648               714.9212
 Red. masses --      2.0484                 4.4023                 4.4438
 Frc consts  --      0.4931                 1.2427                 1.3382
 IR Inten    --     55.0608                11.4454                 3.3513

                     28                     29                     30
                      A                      A                      A
 Frequencies --    748.5738               763.4806               798.8538
 Red. masses --      2.9904                 1.3610                 3.3919
 Frc consts  --      0.9873                 0.4674                 1.2754
 IR Inten    --     11.9643                27.0535                 1.2564

                     31                     32                     33
                      A                      A                      A
 Frequencies --    830.1368               866.5156               878.9310
 Red. masses --      3.1405                 1.6978                 1.4525
 Frc consts  --      1.2751                 0.7511                 0.6611
 IR Inten    --      3.5135                 0.2688                 1.7980

                     34                     35                     36
                      A                      A                      A
 Frequencies --    895.0040               904.7012               935.7940
 Red. masses --      2.6782                 2.3783                 2.6226
 Frc consts  --      1.2640                 1.1469                 1.3532
 IR Inten    --      3.4255                 5.6900                 5.2854

                     37                     38                     39
                      A                      A                      A
 Frequencies --    945.4319               948.4966               971.7919
 Red. masses --      2.2317                 1.5509                 1.9593
 Frc consts  --      1.1753                 0.8221                 1.0902
 IR Inten    --     27.4379                 0.3372                 9.6132

                     40                     41                     42
                      A                      A                      A
 Frequencies --    976.8290               984.2139               993.2671
 Red. masses --      1.9370                 1.2700                 2.3827
 Frc consts  --      1.0890                 0.7248                 1.3850
 IR Inten    --      2.8035                 0.0515                 8.6468

                     43                     44                     45
                      A                      A                      A
 Frequencies --    999.2573              1037.0425              1075.3383
 Red. masses --      1.6708                 3.1777                 2.5222
 Frc consts  --      0.9829                 2.0135                 1.7184
 IR Inten    --      9.6304                49.5916                 4.9360

                     46                     47                     48
                      A                      A                      A
 Frequencies --   1096.0038              1112.3412              1122.6764
 Red. masses --      2.1563                 2.5064                 1.9917
 Frc consts  --      1.5261                 1.8272                 1.4790
 IR Inten    --     34.4625                15.4890                 7.6607

                     49                     50                     51
                      A                      A                      A
 Frequencies --   1133.1713              1151.5800              1152.5824
 Red. masses --      2.7523                 1.5175                 1.3435
 Frc consts  --      2.0823                 1.1857                 1.0515
 IR Inten    --     48.0252                 2.3285                 3.3548

                     52                     53                     54
                      A                      A                      A
 Frequencies --   1173.2757              1198.2977              1199.2908
 Red. masses --      1.9004                 2.1016                 1.1982
 Frc consts  --      1.5413                 1.7780                 1.0154
 IR Inten    --     13.2511                 4.2073                 2.2602

                     55                     56                     57
                      A                      A                      A
 Frequencies --   1219.7911              1230.0545              1257.4540
 Red. masses --      2.2630                 1.8736                 1.4726
 Frc consts  --      1.9838                 1.6702                 1.3719
 IR Inten    --      1.1154                 4.5214                14.3870

                     58                     59                     60
                      A                      A                      A
 Frequencies --   1266.0413              1276.5635              1287.0677
 Red. masses --      1.4309                 2.2453                 1.4202
 Frc consts  --      1.3513                 2.1558                 1.3861
 IR Inten    --     15.2038                52.2229                12.2071

                     61                     62                     63
                      A                      A                      A
 Frequencies --   1297.7224              1321.5923              1336.1208
 Red. masses --      2.2149                 1.5436                 1.7250
 Frc consts  --      2.1977                 1.5884                 1.8144
 IR Inten    --     29.2260                10.9231                 4.6305

                     64                     65                     66
                      A                      A                      A
 Frequencies --   1340.1373              1349.4754              1363.5604
 Red. masses --      1.6101                 1.6918                 1.6815
 Frc consts  --      1.7037                 1.8152                 1.8420
 IR Inten    --      4.1544                11.6442                 2.6441

                     67                     68                     69
                      A                      A                      A
 Frequencies --   1383.9419              1398.8516              1416.2508
 Red. masses --      1.3712                 1.6053                 1.3010
 Frc consts  --      1.5473                 1.8508                 1.5375
 IR Inten    --      8.3434                 8.9541                47.8173

                     70                     71                     72
                      A                      A                      A
 Frequencies --   1426.2744              1430.2504              1495.5488
 Red. masses --      1.2811                 1.2584                 1.4780
 Frc consts  --      1.5355                 1.5167                 1.9477
 IR Inten    --     10.1029                10.5522                40.2532

                     73                     74                     75
                      A                      A                      A
 Frequencies --   1501.0440              1507.4029              1508.1141
 Red. masses --      2.2705                 1.1107                 1.1403
 Frc consts  --      3.0141                 1.4870                 1.5280
 IR Inten    --     13.3155                 4.2398                 5.3997

                     76                     77                     78
                      A                      A                      A
 Frequencies --   1513.8789              1527.4641              1530.0302
 Red. masses --      1.0561                 1.0737                 1.0854
 Frc consts  --      1.4261                 1.4759                 1.4970
 IR Inten    --      2.9298                 0.5627                 2.0375

                     79                     80                     81
                      A                      A                      A
 Frequencies --   1533.5257              1542.6283              1550.1051
 Red. masses --      1.1440                 2.1961                 1.1052
 Frc consts  --      1.5851                 3.0791                 1.5647
 IR Inten    --      4.9954                15.6129                 0.9002

                     82                     83                     84
                      A                      A                      A
 Frequencies --   1639.3596              1667.5878              2955.8585
 Red. masses --      6.1555                 5.7879                 1.0823
 Frc consts  --      9.7469                 9.4830                 5.5713
 IR Inten    --      0.6554                 1.2050                44.6955

                     85                     86                     87
                      A                      A                      A
 Frequencies --   3021.1285              3025.2936              3036.8964
 Red. masses --      1.0701                 1.0603                 1.0663
 Frc consts  --      5.7544                 5.7174                 5.7941
 IR Inten    --     58.8852                91.1837                61.4195

                     88                     89                     90
                      A                      A                      A
 Frequencies --   3042.6149              3043.9565              3055.0307
 Red. masses --      1.0612                 1.0669                 1.0368
 Frc consts  --      5.7883                 5.8246                 5.7014
 IR Inten    --     13.6389                44.4178                32.0968

                     91                     92                     93
                      A                      A                      A
 Frequencies --   3083.5868              3085.2168              3091.1267
 Red. masses --      1.1039                 1.1010                 1.0995
 Frc consts  --      6.1842                 6.1744                 6.1900
 IR Inten    --     29.4109                21.5441                32.2005

                     94                     95                     96
                      A                      A                      A
 Frequencies --   3119.2632              3124.1424              3125.5296
 Red. masses --      1.0978                 1.1024                 1.0959
 Frc consts  --      6.2930                 6.3395                 6.3077
 IR Inten    --     32.8611                25.7963                12.7505

                     97                     98                     99
                      A                      A                      A
 Frequencies --   3131.0722              3176.6907              3188.3203
 Red. masses --      1.1028                 1.0872                 1.0870
 Frc consts  --      6.3700                 6.4639                 6.5102
 IR Inten    --     31.8956                 8.9969                 2.9745

                    100                    101                    102
                      A                      A                      A
 Frequencies --   3200.0917              3211.7851              3655.5446
 Red. masses --      1.0917                 1.0974                 1.0651
 Frc consts  --      6.5870                 6.6694                 8.3858
 IR Inten    --     28.9603                25.4141               216.4559

 - Thermochemistry -
 -------------------
 Temperature   298.150 Kelvin.  Pressure   1.00000 Atm.
 Atom     1 has atomic number  6 and mass  12.00000

 Molecular mass:   233.14158 amu.
 Principal axes and moments of inertia in atomic units:
                           1         2         3
     Eigenvalues --  2333.707065069.770285324.73345
           X            0.99996   0.00742   0.00491
           Y           -0.00743   0.99997   0.00130
           Z           -0.00490  -0.00133   0.99999
 This molecule is an asymmetric top.
 Rotational symmetry number  1.
 Warning -- assumption of classical behavior for rotation
           may cause significant error
 Rotational temperatures (Kelvin)      0.03711     0.01708     0.01627
 Rotational constants (GHZ):           0.77334     0.35598     0.33894
 Zero-point vibrational energy     821829.3 (Joules/Mol)
                                  196.42193 (Kcal/Mol)
 Warning -- explicit consideration of  23 degrees of freedom as
           vibrations may cause significant error
 Vibrational temperatures:     59.47    92.06   125.07   147.90   216.26
          (Kelvin)            231.66   282.82   328.07   345.82   410.70
                              449.19   497.14   534.67   539.37   572.72
                              628.91   634.48   656.20   674.52   689.48
                              742.51   838.32   870.95   897.31   919.67
                              995.87  1028.61  1077.03  1098.48  1149.37
                             1194.38  1246.72  1264.59  1287.71  1301.66
                             1346.40  1360.27  1364.67  1398.19  1405.44
                             1416.06  1429.09  1437.71  1492.07  1547.17
                             1576.90  1600.41  1615.28  1630.38  1656.87
                             1658.31  1688.08  1724.08  1725.51  1755.01
                             1769.77  1809.20  1821.55  1836.69  1851.80
                             1867.13  1901.48  1922.38  1928.16  1941.59
                             1961.86  1991.18  2012.64  2037.67  2052.09
                             2057.81  2151.76  2159.67  2168.82  2169.84
                             2178.13  2197.68  2201.37  2206.40  2219.50
                             2230.26  2358.67  2399.29  4252.82  4346.73
                             4352.72  4369.42  4377.64  4379.57  4395.51
                             4436.59  4438.94  4447.44  4487.92  4494.94
                             4496.94  4504.91  4570.55  4587.28  4604.22
                             4621.04  5259.51

 Zero-point correction=                           0.313018 (Hartree/Particle)
 Thermal correction to Energy=                    0.327752
 Thermal correction to Enthalpy=                  0.328696
 Thermal correction to Gibbs Free Energy=         0.271714
 Sum of electronic and zero-point Energies=           -749.837510
 Sum of electronic and thermal Energies=              -749.822777
 Sum of electronic and thermal Enthalpies=            -749.821833
 Sum of electronic and thermal Free Energies=         -749.878814

                     E (Thermal)             CV                S
                      KCal/Mol        Cal/Mol-Kelvin    Cal/Mol-Kelvin
 Total                  205.667             60.132            119.928
 Electronic               0.000              0.000              0.000
 Translational            0.889              2.981             42.241
 Rotational               0.889              2.981             32.510
 Vibrational            203.890             54.171             45.177
 Vibration     1          0.594              1.981              5.194
 Vibration     2          0.597              1.971              4.330
 Vibration     3          0.601              1.958              3.728
 Vibration     4          0.605              1.947              3.401
 Vibration     5          0.618              1.902              2.668
 Vibration     6          0.622              1.890              2.538
 Vibration     7          0.636              1.845              2.165
 Vibration     8          0.651              1.798              1.895
 Vibration     9          0.657              1.779              1.800
 Vibration    10          0.683              1.701              1.501
 Vibration    11          0.701              1.650              1.351
 Vibration    12          0.724              1.584              1.187
 Vibration    13          0.743              1.530              1.073
 Vibration    14          0.746              1.524              1.060
 Vibration    15          0.764              1.474              0.970
 Vibration    16          0.797              1.389              0.836
 Vibration    17          0.801              1.381              0.824
 Vibration    18          0.814              1.347              0.778
 Vibration    19          0.826              1.319              0.741
 Vibration    20          0.836              1.296              0.712
 Vibration    21          0.871              1.214              0.619
 Vibration    22          0.939              1.069              0.480
 Vibration    23          0.964              1.020              0.441

 Optimization completed.
    -- Stationary point found.
 Normal termination of Gaussian 16 at Sun Dec 13 16:24:38 2020.

 ----------------------------------------------------------------------
 # B3LYP/6-311++G(d,p) empiricaldispersion=gd3bj scf=xqc pop=npa geom=c
 heck
 ----------------------------------------------------------------------

 --------------------------------------
 CID_65951846_JID_7872_Energie_neutraal
 --------------------------------------
 Structure from the checkpoint file:  "JID_7872.chk"
 Charge =  0 Multiplicity = 1

 SCF Done:  E(RB3LYP) =  -750.358692671     A.U. after   15 cycles
 Normal termination of Gaussian 16 at Sun Dec 13 16:32:18 2020.

 ----------------------------------------------------------------------
 # B3LYP/6-311++G(d,p) empiricaldispersion=gd3bj scf=xqc pop=npa geom=c
 heck
 ----------------------------------------------------------------------

 ------------------------------------
 CID_65951846_JID_7872_Energie_kation
 ------------------------------------
 Structure from the checkpoint file:  "JID_7872.chk"
 Charge =  1 Multiplicity = 2

 SCF Done:  E(UB3LYP) =  -750.085006794     A.U. after   24 cycles
 Normal termination of Gaussian 16 at Sun Dec 13 16:49:37 2020.
 Gaussian 16:  ES64L-G16RevA.03 25-Dec-2016

 ----------------------------------------------------------------------
 # B3LYP/6-311++G(d,p) empiricaldispersion=gd3bj scf=xqc pop=npa geom=c
 heck
 ----------------------------------------------------------------------

 -----------------------------------
 CID_65951846_JID_7872_Energie_anion
 -----------------------------------
 Structure from the checkpoint file:  "JID_7872.chk"
 Charge = -1 Multiplicity = 2

                         Standard orientation:
 ---------------------------------------------------------------------
 Center     Atomic      Atomic             Coordinates (Angstroms)
 Number     Number       Type             X           Y           Z
 ---------------------------------------------------------------------
      1          6           0       -3.665409   -0.439877   -1.786522
      2          6           0       -2.571323   -0.142310   -0.783610
      3          6           0       -2.839654   -0.466838    0.714738
      4          7           0       -1.639709   -1.333819    0.755840
      5          6           0       -1.380256   -1.141501   -0.692191
      6          6           0       -0.627133   -1.106188    1.760603
      7          6           0        0.401360    0.038257    1.557492
      8          6           0        1.492536   -0.230275    0.525350
      9          6           0        2.188538   -1.445841    0.536775
     10          6           0        3.203460   -1.701711   -0.381486
     11          6           0        3.549455   -0.730976   -1.322311
     12          6           0        2.883168    0.491370   -1.321261
     13          6           0        1.861476    0.757737   -0.404241
     14          6           0        1.155765    2.094725   -0.404535
     15          6           0        0.514774    2.342181    0.954637
     16          8           0       -0.330777    1.237396    1.283169
     17          8           0       -2.156262    1.201438   -0.979046
     18          1           0       -3.291199   -0.297575   -2.806268
     19          1           0       -4.511610    0.239128   -1.636335
     20          1           0       -4.018070   -1.471194   -1.683786
     21          1           0       -2.805828    0.417130    1.361834
     22          1           0       -3.764765   -1.023156    0.918950
     23          1           0       -1.490802   -2.071930   -1.264791
     24          1           0       -0.422417   -0.684613   -0.952300
     25          1           0       -1.154696   -0.902631    2.699131
     26          1           0       -0.050823   -2.025952    1.925793
     27          1           0        0.901786    0.168971    2.533572
     28          1           0        1.935809   -2.206402    1.269383
     29          1           0        3.722409   -2.655749   -0.361162
     30          1           0        4.340209   -0.920550   -2.042399
     31          1           0        3.158588    1.260851   -2.038836
     32          1           0        0.370740    2.107206   -1.172742
     33          1           0        1.859601    2.899714   -0.648442
     34          1           0       -0.128885    3.225908    0.951296
     35          1           0        1.278300    2.468648    1.736676
     36          1           0       -1.554614    1.385750   -0.234072
 ---------------------------------------------------------------------

 SCF Done:  E(UB3LYP) =  -750.345511501     A.U. after   33 cycles
 SCF Done:  E(UB3LYP) =  -750.345511501     a.u. after    1 cycles

 The electronic state is 2-A.
 Alpha  occ. eigenvalues --  -19.04158 -19.01768 -14.20216 -10.13316 -10.13014
 Alpha  occ. eigenvalues --  -10.12599 -10.09804 -10.09300 -10.08908 -10.08202
 Alpha  occ. eigenvalues --  -10.07774 -10.07771 -10.07312 -10.07181 -10.07039
 Alpha  occ. eigenvalues --  -10.06955 -10.06857  -0.95493  -0.92814  -0.83413
 Alpha  occ. eigenvalues --   -0.76104  -0.70242  -0.68323  -0.66400  -0.63838
 Alpha  occ. eigenvalues --   -0.61863  -0.58650  -0.56432  -0.54182  -0.51493
 Alpha  occ. eigenvalues --   -0.48915  -0.46265  -0.45962  -0.42154  -0.41766
 Alpha  occ. eigenvalues --   -0.39982  -0.39040  -0.37760  -0.37123  -0.36438
 Alpha  occ. eigenvalues --   -0.35093  -0.33882  -0.33101  -0.32004  -0.31669
 Alpha  occ. eigenvalues --   -0.31293  -0.30503  -0.29757  -0.29439  -0.29027
 Alpha  occ. eigenvalues --   -0.27077  -0.26863  -0.25803  -0.25495  -0.24020
 Alpha  occ. eigenvalues --   -0.23549  -0.23405  -0.21625  -0.17634  -0.16823
 Alpha  occ. eigenvalues --   -0.14971  -0.14712  -0.11021   0.04440
 Alpha virt. eigenvalues --    0.06568   0.06714   0.06902   0.07937   0.08507
 Alpha virt. eigenvalues --    0.08595   0.08967   0.09302   0.09568   0.09863
 Alpha virt. eigenvalues --    0.10847   0.11127   0.11701   0.11852   0.12072

  Beta  occ. eigenvalues --  -19.04149 -19.01766 -14.20216 -10.13315 -10.13002
  Beta  occ. eigenvalues --  -10.12576 -10.09785 -10.09292 -10.08899 -10.08210
  Beta  occ. eigenvalues --  -10.07758 -10.07703 -10.07305 -10.07185 -10.07013
  Beta  occ. eigenvalues --  -10.06912 -10.06787  -0.95476  -0.92810  -0.83408
  Beta  occ. eigenvalues --   -0.76018  -0.70199  -0.68267  -0.66336  -0.63761
  Beta  occ. eigenvalues --   -0.61822  -0.58631  -0.56385  -0.54117  -0.51393
  Beta  occ. eigenvalues --   -0.48873  -0.46212  -0.45921  -0.42106  -0.41743
  Beta  occ. eigenvalues --   -0.39929  -0.38999  -0.37705  -0.37096  -0.36401
  Beta  occ. eigenvalues --   -0.35050  -0.33830  -0.33063  -0.31956  -0.31637
  Beta  occ. eigenvalues --   -0.31266  -0.30476  -0.29739  -0.29377  -0.28999
  Beta  occ. eigenvalues --   -0.27039  -0.26827  -0.25776  -0.25386  -0.23966
  Beta  occ. eigenvalues --   -0.23509  -0.23372  -0.21589  -0.17560  -0.16805
  Beta  occ. eigenvalues --   -0.14741  -0.14518  -0.10985
  Beta virt. eigenvalues --    0.06388   0.07055   0.07516   0.07611   0.08198
  Beta virt. eigenvalues --    0.08863   0.08946   0.09200   0.09745   0.09924
  Beta virt. eigenvalues --    0.10187   0.11149   0.11330   0.11971   0.12068

 Mulliken charges and spin densities:
               1          2
     1  C   -0.122346  -0.623272
     2  C   -0.684759   0.410421
     3  C    0.008860  -0.049223
     4  N   -0.063466   0.129300
     5  C   -0.196844  -0.048660
     6  C    0.785567  -1.439213
     7  C    0.881906  -1.310981
     8  C   -0.196045   1.198267
     9  C   -0.776885   0.336010
    10  C    0.772555  -1.128794
    11  C    0.725926  -1.046542
    12  C   -0.708511   0.588393
    13  C   -0.260266   0.505785
    14  C    0.085241  -0.607324
    15  C    0.342100  -0.614414
    16  O   -0.078825   0.032018
    17  O   -0.106419  -0.009682
    18  H    0.068826   0.081178
    19  H    0.092377   0.050850
    20  H    0.081541   0.060791
    21  H    0.126962   0.027511
    22  H   -0.046743   0.205016
    23  H    0.059379   0.105818
    24  H    0.379594  -0.213719
    25  H   -0.292823   0.484742
    26  H    0.088018   0.089691
    27  H   -0.518810   0.749379
    28  H   -0.369375   0.488602
    29  H   -0.349235   0.518463
    30  H   -0.362553   0.515483
    31  H   -0.279132   0.448640
    32  H    0.201616  -0.021600
    33  H   -0.239115   0.407917
    34  H   -0.189722   0.377555
    35  H   -0.193872   0.349330
    36  H    0.335279  -0.047734
 Sum of Mulliken charges =  -1.00000   1.00000

 Dipole moment (field-independent basis, Debye):
    X=             -4.8649    Y=              0.2234    Z=             -2.7501  Tot=              5.5929
 Quadrupole moment (field-independent basis, Debye-Ang):
   XX=           -166.7062   YY=           -145.1976   ZZ=           -151.0929
   XY=              3.4888   XZ=              1.6326   YZ=              0.8060

 Summary of Natural Population Analysis:

                                       Natural Population
                Natural  -----------------------------------------------
    Atom  No    Charge         Core      Valence    Rydberg      Total
 -----------------------------------------------------------------------
      C    1   -0.28973      0.99961     2.28484    0.00527     3.28973
      C    2    0.12056      0.99953     1.86620    0.01371     2.87944
      C    3   -0.08755      0.99960     2.07735    0.01060     3.08755
      N    4   -0.28512      0.99974     2.77269    0.01269     3.78512
      C    5   -0.08961      0.99959     2.08080    0.00923     3.08961
      C    6   -0.08292      0.99958     2.06862    0.01473     3.08292
      C    7    0.05561      0.99950     1.92801    0.01688     2.94439
      C    8   -0.02658      0.99945     2.01528    0.01185     3.02658
      C    9   -0.09125      0.99950     2.08196    0.00979     3.09125
      C   10   -0.10184      0.99956     2.09243    0.00985     3.10184
      C   11   -0.09101      0.99956     2.08142    0.01003     3.09101
      C   12   -0.09376      0.99951     2.08437    0.00988     3.09376
      C   13   -0.01900      0.99945     2.00847    0.01107     3.01900
      C   14   -0.21218      0.99959     2.20396    0.00863     3.21218
      C   15   -0.00701      0.99958     1.99572    0.01171     3.00701
      O   16   -0.31586      0.99988     3.30524    0.01074     4.31586
      O   17   -0.38592      0.99988     3.37944    0.00659     4.38592
      H   18    0.10241      0.00000     0.39669    0.00090     0.39759
      H   19    0.10100      0.00000     0.39800    0.00100     0.39900
      H   20    0.09901      0.00000     0.40015    0.00085     0.40099
      H   21    0.09712      0.00000     0.40143    0.00145     0.40288
      H   22    0.08770      0.00000     0.41102    0.00128     0.41230
      H   23    0.08963      0.00000     0.40910    0.00127     0.41037
      H   24    0.10215      0.00000     0.39623    0.00162     0.39785
      H   25    0.10078      0.00000     0.39768    0.00154     0.39922
      H   26    0.09587      0.00000     0.40209    0.00204     0.40413
      H   27    0.09745      0.00000     0.39848    0.00407     0.40255
      H   28    0.10077      0.00000     0.39780    0.00142     0.39923
      H   29    0.10017      0.00000     0.39873    0.00110     0.39983
      H   30    0.09922      0.00000     0.39965    0.00113     0.40078
      H   31    0.09862      0.00000     0.40035    0.00103     0.40138
      H   32    0.10779      0.00000     0.39081    0.00140     0.39221
      H   33    0.10574      0.00000     0.39301    0.00124     0.39426
      H   34    0.09144      0.00000     0.40747    0.00109     0.40856
      H   35    0.08665      0.00000     0.41135    0.00199     0.41335
      H   36    0.23963      0.00000     0.25600    0.00437     0.26037
 =======================================================================
   * Total *    0.00000     16.99310    45.79284    0.21405    63.00000

 Normal termination of Gaussian 16 at Sun Dec 13 17:14:08 2020.
