 Gaussian 16, Revision A.03,

 -----------------------------------------------------------
 # opt freq B3LYP/6-31G(d) empiricaldispersion=gd3bj scf=xqc
 -----------------------------------------------------------

 -----------------------------
 CID_70641625_JID_472_neutraal
 -----------------------------
 Symbolic Z-matrix:
 Charge =  0 Multiplicity = 1

 SCF Done:  E(RB3LYP) =  -442.689960422     A.U. after   14 cycles
 SCF Done:  E(RB3LYP) =  -442.691872612     A.U. after   12 cycles
 SCF Done:  E(RB3LYP) =  -442.692508733     A.U. after   11 cycles
 SCF Done:  E(RB3LYP) =  -442.692827021     A.U. after   12 cycles
 SCF Done:  E(RB3LYP) =  -442.693200524     A.U. after   14 cycles
 SCF Done:  E(RB3LYP) =  -442.693472074     A.U. after   10 cycles
 SCF Done:  E(RB3LYP) =  -442.693685482     A.U. after   11 cycles
 SCF Done:  E(RB3LYP) =  -442.693728347     A.U. after   11 cycles
 SCF Done:  E(RB3LYP) =  -442.693744914     A.U. after   10 cycles
 SCF Done:  E(RB3LYP) =  -442.693746092     A.U. after    8 cycles
 SCF Done:  E(RB3LYP) =  -442.693746321     A.U. after    7 cycles
 SCF Done:  E(RB3LYP) =  -442.693746554     A.U. after    7 cycles
 SCF Done:  E(RB3LYP) =  -442.693746784     A.U. after    7 cycles
 SCF Done:  E(RB3LYP) =  -442.693746989     A.U. after    7 cycles
 SCF Done:  E(RB3LYP) =  -442.693747174     A.U. after    7 cycles
 SCF Done:  E(RB3LYP) =  -442.693747206     A.U. after    6 cycles
 Optimization completed.
    -- Stationary point found.
 Normal termination of Gaussian 16 at Tue Dec  8 10:55:06 2020.

 --------------------------------------------------------------------
 #N Geom=AllCheck Guess=TCheck SCRF=Check GenChk RB3LYP/6-31G(d) Freq
 --------------------------------------------------------------------

 Structure from the checkpoint file:  "JID_472.chk"
 -----------------------------
 CID_70641625_JID_472_neutraal
 -----------------------------
 Charge =  0 Multiplicity = 1

 SCF Done:  E(RB3LYP) =  -442.693747206     A.U. after    1 cycles

  Exact polarizability: 118.932   2.039  86.497   0.183   4.749  65.238
 Approx polarizability: 144.617  -1.024 138.403  -0.859  14.577  99.543

                      1                      2                      3
                      A                      A                      A
 Frequencies --     43.6371                86.5061               111.7411
 Red. masses --      3.1828                 2.0496                 1.0979
 Frc consts  --      0.0036                 0.0090                 0.0081
 IR Inten    --      0.2612                 0.0698                 0.0067

                      4                      5                      6
                      A                      A                      A
 Frequencies --    124.0989               145.0830               222.9010
 Red. masses --      3.1616                 2.7828                 1.0483
 Frc consts  --      0.0287                 0.0345                 0.0307
 IR Inten    --      0.1964                 0.4517                 0.0524

                      7                      8                      9
                      A                      A                      A
 Frequencies --    235.5392               269.4899               289.1199
 Red. masses --      2.2698                 2.6047                 1.5516
 Frc consts  --      0.0742                 0.1115                 0.0764
 IR Inten    --      2.3793                 1.5219                 0.7390

                     10                     11                     12
                      A                      A                      A
 Frequencies --    328.6386               361.0221               440.9047
 Red. masses --      2.8884                 2.9973                 3.1733
 Frc consts  --      0.1838                 0.2302                 0.3635
 IR Inten    --      0.6516                 1.6352                 0.0336

                     13                     14                     15
                      A                      A                      A
 Frequencies --    469.6010               659.3410               682.9192
 Red. masses --      2.8702                 4.1070                 4.4205
 Frc consts  --      0.3729                 1.0519                 1.2147
 IR Inten    --      0.9420                 3.2712                 5.9100

                     16                     17                     18
                      A                      A                      A
 Frequencies --    696.1377               731.7421               800.7930
 Red. masses --      4.5571                 2.9607                 1.2601
 Frc consts  --      1.3012                 0.9340                 0.4761
 IR Inten    --      2.3060                 1.7128                 3.9774

                     19                     20                     21
                      A                      A                      A
 Frequencies --    844.9734               864.4001               965.2661
 Red. masses --      1.3541                 2.1037                 2.5100
 Frc consts  --      0.5696                 0.9261                 1.3779
 IR Inten    --     11.2933                 0.0974                19.8690

                     22                     23                     24
                      A                      A                      A
 Frequencies --    978.8964               988.5193               998.9248
 Red. masses --      3.0805                 1.4933                 1.6917
 Frc consts  --      1.7392                 0.8598                 0.9946
 IR Inten    --      5.3591                 3.4318                 4.4403

                     25                     26                     27
                      A                      A                      A
 Frequencies --   1039.5791              1052.2843              1079.7668
 Red. masses --      2.1908                 2.6566                 1.4959
 Frc consts  --      1.3950                 1.7332                 1.0276
 IR Inten    --      1.7386                14.5213                 2.9318

                     28                     29                     30
                      A                      A                      A
 Frequencies --   1111.8287              1150.0275              1160.2601
 Red. masses --      1.7997                 2.2020                 2.8026
 Frc consts  --      1.3107                 1.7159                 2.2229
 IR Inten    --     17.1094                 6.8466                36.2294

                     31                     32                     33
                      A                      A                      A
 Frequencies --   1183.9034              1228.6794              1263.4476
 Red. masses --      2.1527                 2.5492                 2.3999
 Frc consts  --      1.7777                 2.2674                 2.2571
 IR Inten    --      3.8124                 5.5261                11.4956

                     34                     35                     36
                      A                      A                      A
 Frequencies --   1306.8299              1328.2290              1367.5006
 Red. masses --      1.4144                 1.4750                 1.7441
 Frc consts  --      1.4232                 1.5331                 1.9217
 IR Inten    --      0.4030                 0.8926                11.3532

                     37                     38                     39
                      A                      A                      A
 Frequencies --   1371.7592              1414.8568              1435.2606
 Red. masses --      1.4548                 1.6014                 1.2611
 Frc consts  --      1.6129                 1.8887                 1.5306
 IR Inten    --     11.0586                 6.8665                 3.8861

                     40                     41                     42
                      A                      A                      A
 Frequencies --   1441.2345              1444.1392              1505.5269
 Red. masses --      1.3792                 1.2429                 1.0436
 Frc consts  --      1.6879                 1.5272                 1.3936
 IR Inten    --      5.6638                 0.3448                 7.9281

                     43                     44                     45
                      A                      A                      A
 Frequencies --   1512.1517              1519.5586              1525.1708
 Red. masses --      1.1010                 1.0637                 1.0481
 Frc consts  --      1.4832                 1.4471                 1.4365
 IR Inten    --      6.7187                 0.9682                 7.1041

                     46                     47                     48
                      A                      A                      A
 Frequencies --   1530.6440              1538.6113              1543.7577
 Red. masses --      1.0460                 1.0753                 1.0468
 Frc consts  --      1.4439                 1.4998                 1.4698
 IR Inten    --      4.9615                 5.1972                 1.9675

                     49                     50                     51
                      A                      A                      A
 Frequencies --   1628.5572              1654.8180              3004.0076
 Red. masses --      7.8184                 7.0945                 1.0818
 Frc consts  --     12.2173                11.4464                 5.7516
 IR Inten    --     25.6927                28.0828                15.8068

                     52                     53                     54
                      A                      A                      A
 Frequencies --   3038.3920              3049.7962              3056.7525
 Red. masses --      1.0608                 1.0373                 1.0370
 Frc consts  --      5.7699                 5.6844                 5.7089
 IR Inten    --     22.7073                28.1601                24.7489

                     55                     56                     57
                      A                      A                      A
 Frequencies --   3057.5639              3074.7746              3109.8198
 Red. masses --      1.0385                 1.1017                 1.1014
 Frc consts  --      5.7203                 6.1365                 6.2757
 IR Inten    --     18.0019                16.2821                12.0360

                     58                     59                     60
                      A                      A                      A
 Frequencies --   3114.6529              3122.9252              3128.2969
 Red. masses --      1.1013                 1.1025                 1.1004
 Frc consts  --      6.2945                 6.3350                 6.3451
 IR Inten    --     40.1786                40.7739                33.3737

                     61                     62                     63
                      A                      A                      A
 Frequencies --   3139.6689              3169.9383              3282.3426
 Red. masses --      1.1026                 1.0997                 1.0976
 Frc consts  --      6.4038                 6.5107                 6.9671
 IR Inten    --     26.6940                 4.5039                 7.6414

 - Thermochemistry -
 -------------------
 Temperature   298.150 Kelvin.  Pressure   1.00000 Atm.
 Atom     1 has atomic number  6 and mass  12.00000

 Molecular mass:   139.09971 amu.
 Principal axes and moments of inertia in atomic units:
                           1         2         3
     Eigenvalues --   520.368452593.243212939.17014
           X            0.99994   0.01058   0.00190
           Y           -0.01054   0.99978  -0.01792
           Z           -0.00209   0.01790   0.99984
 This molecule is an asymmetric top.
 Rotational symmetry number  1.
 Warning -- assumption of classical behavior for rotation
           may cause significant error
 Rotational temperatures (Kelvin)      0.16645     0.03340     0.02947
 Rotational constants (GHZ):           3.46820     0.69594     0.61403
 Zero-point vibrational energy     526521.4 (Joules/Mol)
                                  125.84164 (Kcal/Mol)
 Warning -- explicit consideration of  13 degrees of freedom as
           vibrations may cause significant error
 Vibrational temperatures:     62.78   124.46   160.77   178.55   208.74
          (Kelvin)            320.70   338.89   387.74   415.98   472.84
                              519.43   634.36   675.65   948.64   982.57
                             1001.59  1052.81  1152.16  1215.73  1243.68
                             1388.80  1408.41  1422.26  1437.23  1495.72
                             1514.00  1553.54  1599.67  1654.63  1669.36
                             1703.37  1767.80  1817.82  1880.24  1911.03
                             1967.53  1973.66  2035.66  2065.02  2073.62
                             2077.79  2166.12  2175.65  2186.31  2194.38
                             2202.26  2213.72  2221.12  2343.13  2380.91
                             4322.10  4371.57  4387.98  4397.99  4399.15
                             4423.91  4474.34  4481.29  4493.19  4500.92
                             4517.28  4560.83  4722.56

 Zero-point correction=                           0.200541 (Hartree/Particle)
 Thermal correction to Energy=                    0.211344
 Thermal correction to Enthalpy=                  0.212288
 Thermal correction to Gibbs Free Energy=         0.163806
 Sum of electronic and zero-point Energies=           -442.493206
 Sum of electronic and thermal Energies=              -442.482403
 Sum of electronic and thermal Enthalpies=            -442.481459
 Sum of electronic and thermal Free Energies=         -442.529941

                     E (Thermal)             CV                S
                      KCal/Mol        Cal/Mol-Kelvin    Cal/Mol-Kelvin
 Total                  132.621             39.038            102.040
 Electronic               0.000              0.000              0.000
 Translational            0.889              2.981             40.702
 Rotational               0.889              2.981             29.763
 Vibrational            130.843             33.076             31.576
 Vibration     1          0.595              1.980              5.087
 Vibration     2          0.601              1.959              3.738
 Vibration     3          0.607              1.940              3.238
 Vibration     4          0.610              1.929              3.036
 Vibration     5          0.616              1.908              2.736
 Vibration     6          0.649              1.806              1.935
 Vibration     7          0.655              1.786              1.836
 Vibration     8          0.674              1.729              1.599
 Vibration     9          0.686              1.694              1.479
 Vibration    10          0.712              1.618              1.267
 Vibration    11          0.735              1.553              1.118
 Vibration    12          0.801              1.381              0.824
 Vibration    13          0.827              1.317              0.739

 Optimization completed.
    -- Stationary point found.
 Normal termination of Gaussian 16 at Tue Dec  8 11:00:05 2020.

 ----------------------------------------------------------------------
 # B3LYP/6-311++G(d,p) empiricaldispersion=gd3bj scf=xqc pop=npa geom=c
 heck
 ----------------------------------------------------------------------

 -------------------------------------
 CID_70641625_JID_472_Energie_neutraal
 -------------------------------------
 Structure from the checkpoint file:  "JID_472.chk"
 Charge =  0 Multiplicity = 1

 SCF Done:  E(RB3LYP) =  -442.815810700     A.U. after   14 cycles
 Normal termination of Gaussian 16 at Tue Dec  8 11:03:31 2020.

 ----------------------------------------------------------------------
 # B3LYP/6-311++G(d,p) empiricaldispersion=gd3bj scf=xqc pop=npa geom=c
 heck
 ----------------------------------------------------------------------

 -----------------------------------
 CID_70641625_JID_472_Energie_kation
 -----------------------------------
 Structure from the checkpoint file:  "JID_472.chk"
 Charge =  1 Multiplicity = 2

 SCF Done:  E(UB3LYP) =  -442.503110289     A.U. after   18 cycles
 Normal termination of Gaussian 16 at Tue Dec  8 11:08:11 2020.
 Gaussian 16:  ES64L-G16RevA.03 25-Dec-2016

 ----------------------------------------------------------------------
 # B3LYP/6-311++G(d,p) empiricaldispersion=gd3bj scf=xqc pop=npa geom=c
 heck
 ----------------------------------------------------------------------

 ----------------------------------
 CID_70641625_JID_472_Energie_anion
 ----------------------------------
 Structure from the checkpoint file:  "JID_472.chk"
 Charge = -1 Multiplicity = 2

                         Standard orientation:
 ---------------------------------------------------------------------
 Center     Atomic      Atomic             Coordinates (Angstroms)
 Number     Number       Type             X           Y           Z
 ---------------------------------------------------------------------
      1          6           0        3.746412    0.276278   -0.359242
      2          6           0        2.314677    0.714091   -0.043285
      3          6           0        1.265200   -0.393831   -0.248052
      4          6           0        1.490862   -1.606899    0.674949
      5          6           0       -0.109584    0.160559   -0.059956
      6          6           0       -0.636996    1.343977    0.348774
      7          7           0       -2.029552    1.270264    0.346394
      8          6           0       -2.292989    0.065115   -0.055604
      9          8           0       -1.176325   -0.677505   -0.323986
     10          6           0       -3.615980   -0.582642   -0.254978
     11          1           0        4.095546   -0.505134    0.323517
     12          1           0        4.437334    1.121600   -0.272702
     13          1           0        3.823181   -0.113796   -1.381505
     14          1           0        2.256748    1.069953    0.994352
     15          1           0        2.049115    1.567326   -0.679802
     16          1           0        1.344148   -0.746328   -1.288374
     17          1           0        1.486965   -1.293270    1.725399
     18          1           0        0.698099   -2.348095    0.538878
     19          1           0        2.448652   -2.091316    0.462687
     20          1           0       -0.122434    2.246092    0.644854
     21          1           0       -3.749113   -0.899213   -1.295864
     22          1           0       -3.720931   -1.471522    0.377643
     23          1           0       -4.399454    0.132012    0.002421
 ---------------------------------------------------------------------

 SCF Done:  E(UB3LYP) =  -442.799442201     A.U. after   30 cycles

 The electronic state is 2-A.
 Alpha  occ. eigenvalues --  -19.08965 -14.20485 -10.15799 -10.12541 -10.08952
 Alpha  occ. eigenvalues --  -10.08790 -10.08094 -10.06911 -10.05925 -10.05569
 Alpha  occ. eigenvalues --   -1.02422  -0.81581  -0.72740  -0.67999  -0.63139
 Alpha  occ. eigenvalues --   -0.60168  -0.54639  -0.52511  -0.47215  -0.46462
 Alpha  occ. eigenvalues --   -0.40970  -0.38334  -0.36333  -0.35687  -0.32521
 Alpha  occ. eigenvalues --   -0.31839  -0.31541  -0.30357  -0.29942  -0.28582
 Alpha  occ. eigenvalues --   -0.28165  -0.26630  -0.24749  -0.23414  -0.23027
 Alpha  occ. eigenvalues --   -0.21649  -0.18842  -0.13367   0.04620
 Alpha virt. eigenvalues --    0.06312   0.07931   0.08383   0.08879   0.09339
 Alpha virt. eigenvalues --    0.10171   0.10627   0.11182   0.11612   0.11797
 Alpha virt. eigenvalues --    0.12373   0.12668   0.14369   0.14549   0.15224

  Beta  occ. eigenvalues --  -19.08946 -14.20483 -10.15789 -10.12535 -10.08942
  Beta  occ. eigenvalues --  -10.08779 -10.08047 -10.06896 -10.05889 -10.05520
  Beta  occ. eigenvalues --   -1.02396  -0.81568  -0.72705  -0.67957  -0.63080
  Beta  occ. eigenvalues --   -0.60112  -0.54565  -0.52467  -0.47154  -0.46426
  Beta  occ. eigenvalues --   -0.40925  -0.38284  -0.36289  -0.35646  -0.32480
  Beta  occ. eigenvalues --   -0.31799  -0.31489  -0.30306  -0.29905  -0.28534
  Beta  occ. eigenvalues --   -0.28123  -0.26574  -0.24701  -0.23373  -0.22986
  Beta  occ. eigenvalues --   -0.21620  -0.18829  -0.13313
  Beta virt. eigenvalues --    0.06895   0.07497   0.08552   0.08972   0.09350
  Beta virt. eigenvalues --    0.09850   0.10747   0.11182   0.11702   0.11984
  Beta virt. eigenvalues --    0.12330   0.12659   0.13123   0.14787   0.14825

 Mulliken charges and spin densities:
               1          2
     1  C    2.024810  -2.707969
     2  C   -1.770024   1.511874
     3  C    0.041507   0.402511
     4  C    1.103521  -1.735760
     5  C   -0.614950   0.174333
     6  C   -0.017202  -0.158471
     7  N   -0.157415   0.048822
     8  C   -1.074983   1.299356
     9  O   -0.044210   0.042690
    10  C    2.445323  -2.815230
    11  H   -0.256206   0.398435
    12  H   -0.599050   0.741137
    13  H   -0.349509   0.492571
    14  H    0.065403   0.067991
    15  H   -0.084757   0.210630
    16  H   -0.121960   0.303921
    17  H   -0.137061   0.289192
    18  H   -0.035544   0.194788
    19  H   -0.267021   0.413481
    20  H   -0.211673   0.388042
    21  H   -0.459688   0.630810
    22  H   -0.381478   0.546948
    23  H   -0.097835   0.259897
 Sum of Mulliken charges =  -1.00000   1.00000

 Dipole moment (field-independent basis, Debye):
    X=             -1.9061    Y=              1.1920    Z=              1.1123  Tot=              2.5083
 Quadrupole moment (field-independent basis, Debye-Ang):
   XX=           -148.9977   YY=            -99.5130   ZZ=            -90.6400
   XY=             -4.0810   XZ=              0.5117   YZ=             -0.1809

 Summary of Natural Population Analysis:

                                       Natural Population
                Natural  -----------------------------------------------
    Atom  No    Charge         Core      Valence    Rydberg      Total
 -----------------------------------------------------------------------
      C    1   -0.28530      0.99967     2.28038    0.00525     3.28530
      C    2   -0.18686      0.99963     2.17670    0.01053     3.18686
      C    3   -0.13333      0.99956     2.12252    0.01125     3.13333
      C    4   -0.28020      0.99965     2.27537    0.00518     3.28020
      C    5    0.14599      0.99944     1.84000    0.01457     2.85401
      C    6   -0.04881      0.99947     2.03784    0.01149     3.04881
      N    7   -0.25982      0.99968     2.74995    0.01019     3.75982
      C    8    0.26756      0.99961     1.71293    0.01990     2.73244
      O    9   -0.24344      0.99985     3.23571    0.00788     4.24344
      C   10   -0.31238      0.99962     2.30721    0.00554     3.31238
      H   11    0.09829      0.00000     0.40020    0.00151     0.40171
      H   12    0.10159      0.00000     0.39678    0.00163     0.39841
      H   13    0.09747      0.00000     0.40092    0.00161     0.40253
      H   14    0.09471      0.00000     0.40397    0.00132     0.40529
      H   15    0.09896      0.00000     0.39954    0.00150     0.40104
      H   16    0.10422      0.00000     0.39376    0.00202     0.39578
      H   17    0.09718      0.00000     0.40147    0.00136     0.40282
      H   18    0.10450      0.00000     0.39392    0.00158     0.39550
      H   19    0.10182      0.00000     0.39671    0.00147     0.39818
      H   20    0.10226      0.00000     0.39652    0.00123     0.39774
      H   21    0.11205      0.00000     0.38572    0.00223     0.38795
      H   22    0.11075      0.00000     0.38777    0.00147     0.38925
      H   23    0.11281      0.00000     0.38588    0.00131     0.38719
 =======================================================================
   * Total *   -0.00000      9.99619    27.88178    0.12202    38.00000

 Normal termination of Gaussian 16 at Tue Dec  8 11:13:42 2020.
