 Gaussian 16, Revision A.03,

 -----------------------------------------------------------
 # opt freq B3LYP/6-31G(d) empiricaldispersion=gd3bj scf=xqc
 -----------------------------------------------------------

 --------------------------------
 CID_140095031_JID_10930_neutraal
 --------------------------------
 Symbolic Z-matrix:
 Charge =  0 Multiplicity = 1

 SCF Done:  E(RB3LYP) =  -898.038733572     A.U. after   15 cycles
 SCF Done:  E(RB3LYP) =  -898.043410043     A.U. after   13 cycles
 SCF Done:  E(RB3LYP) =  -898.043053943     A.U. after   13 cycles
 SCF Done:  E(RB3LYP) =  -898.043765348     A.U. after   12 cycles
 SCF Done:  E(RB3LYP) =  -898.043836524     A.U. after   12 cycles
 SCF Done:  E(RB3LYP) =  -898.043947608     A.U. after   11 cycles
 SCF Done:  E(RB3LYP) =  -898.043949288     A.U. after   10 cycles
 SCF Done:  E(RB3LYP) =  -898.043952183     A.U. after    8 cycles
 SCF Done:  E(RB3LYP) =  -898.043952506     A.U. after    8 cycles
 SCF Done:  E(RB3LYP) =  -898.043952762     A.U. after    8 cycles
 SCF Done:  E(RB3LYP) =  -898.043953523     A.U. after    7 cycles
 SCF Done:  E(RB3LYP) =  -898.043953550     A.U. after    7 cycles
 SCF Done:  E(RB3LYP) =  -898.043953565     A.U. after    7 cycles
 SCF Done:  E(RB3LYP) =  -898.043953570     A.U. after    7 cycles
 Optimization completed.
    -- Stationary point found.
 Normal termination of Gaussian 16 at Mon Dec 14 17:52:10 2020.

 --------------------------------------------------------------------
 #N Geom=AllCheck Guess=TCheck SCRF=Check GenChk RB3LYP/6-31G(d) Freq
 --------------------------------------------------------------------

 Structure from the checkpoint file:  "JID_10930.chk"
 --------------------------------
 CID_140095031_JID_10930_neutraal
 --------------------------------
 Charge =  0 Multiplicity = 1

 SCF Done:  E(RB3LYP) =  -898.043953570     A.U. after    1 cycles

  Exact polarizability: 176.534 -12.729 173.234   8.751 -10.563 155.409
 Approx polarizability: 244.173 -29.587 279.792  21.757 -19.535 284.252

                      1                      2                      3
                      A                      A                      A
 Frequencies --     12.0103                23.4396                29.2533
 Red. masses --      4.6663                 6.0271                 6.1693
 Frc consts  --      0.0004                 0.0020                 0.0031
 IR Inten    --      0.4980                 0.4203                 1.6141

                      4                      5                      6
                      A                      A                      A
 Frequencies --     55.4599                88.2748               112.4846
 Red. masses --      6.7605                 8.3327                 4.8109
 Frc consts  --      0.0123                 0.0383                 0.0359
 IR Inten    --      0.1758                 1.5209                 0.8725

                      7                      8                      9
                      A                      A                      A
 Frequencies --    146.2577               153.0766               228.8307
 Red. masses --      6.4025                 4.8469                 3.4606
 Frc consts  --      0.0807                 0.0669                 0.1068
 IR Inten    --      4.6621                 1.7648                 3.7854

                     10                     11                     12
                      A                      A                      A
 Frequencies --    258.7341               284.9000               302.5707
 Red. masses --      5.5663                 3.8920                 5.5073
 Frc consts  --      0.2195                 0.1861                 0.2971
 IR Inten    --      0.5129                 1.7373                 5.4550

                     13                     14                     15
                      A                      A                      A
 Frequencies --    317.6846               403.0053               421.1848
 Red. masses --      3.1561                 6.7521                 3.5970
 Frc consts  --      0.1877                 0.6461                 0.3760
 IR Inten    --      1.2315                 2.3648                 1.2255

                     16                     17                     18
                      A                      A                      A
 Frequencies --    423.8228               440.6829               454.5436
 Red. masses --      3.5967                 4.5166                 6.2888
 Frc consts  --      0.3806                 0.5168                 0.7655
 IR Inten    --      3.2437                 0.8973                 5.3854

                     19                     20                     21
                      A                      A                      A
 Frequencies --    492.9880               499.6428               528.1193
 Red. masses --      5.5789                 3.5268                 3.3040
 Frc consts  --      0.7989                 0.5187                 0.5429
 IR Inten    --     12.3828                 4.0736                 1.9718

                     22                     23                     24
                      A                      A                      A
 Frequencies --    556.3305               597.9270               628.3377
 Red. masses --      5.3135                 4.7159                 7.0862
 Frc consts  --      0.9689                 0.9934                 1.6484
 IR Inten    --      1.3350                 7.2047                 0.9757

                     25                     26                     27
                      A                      A                      A
 Frequencies --    649.0855               662.5120               712.3678
 Red. masses --      3.6329                 6.8562                 4.8457
 Frc consts  --      0.9018                 1.7731                 1.4488
 IR Inten    --      7.3175                 8.1630                 2.3637

                     28                     29                     30
                      A                      A                      A
 Frequencies --    738.7756               751.0982               759.9303
 Red. masses --      4.5107                 2.5355                 1.5195
 Frc consts  --      1.4505                 0.8428                 0.5170
 IR Inten    --      3.7528                 1.5840                31.8827

                     31                     32                     33
                      A                      A                      A
 Frequencies --    772.8848               792.2707               813.1925
 Red. masses --      2.4726                 2.6498                 2.7585
 Frc consts  --      0.8702                 0.9800                 1.0748
 IR Inten    --      9.2096                23.5471                 7.7110

                     34                     35                     36
                      A                      A                      A
 Frequencies --    821.9211               862.4088               890.3871
 Red. masses --      3.8160                 5.2327                 1.3613
 Frc consts  --      1.5189                 2.2930                 0.6359
 IR Inten    --     21.2099                15.3913                 3.6276

                     37                     38                     39
                      A                      A                      A
 Frequencies --    895.5448               913.8727               923.5178
 Red. masses --      1.4026                 2.9437                 2.4087
 Frc consts  --      0.6627                 1.4485                 1.2104
 IR Inten    --      0.3423                 9.6699                12.9876

                     40                     41                     42
                      A                      A                      A
 Frequencies --    950.6233               974.7664               975.4853
 Red. masses --      3.0080                 1.3915                 1.4052
 Frc consts  --      1.6016                 0.7790                 0.7879
 IR Inten    --     16.7960                 1.2161                 3.5189

                     43                     44                     45
                      A                      A                      A
 Frequencies --   1000.1049              1002.2184              1013.7596
 Red. masses --      1.2948                 1.2946                 6.7313
 Frc consts  --      0.7630                 0.7661                 4.0759
 IR Inten    --      0.1003                 0.2688                 6.0055

                     46                     47                     48
                      A                      A                      A
 Frequencies --   1041.5838              1051.2387              1070.5330
 Red. masses --      3.1906                 2.2006                 2.2554
 Frc consts  --      2.0394                 1.4328                 1.5229
 IR Inten    --     45.7126                21.7414                 5.9822

                     49                     50                     51
                      A                      A                      A
 Frequencies --   1081.9624              1106.7746              1132.3196
 Red. masses --      2.1183                 2.4187                 1.5252
 Frc consts  --      1.4610                 1.7456                 1.1521
 IR Inten    --      4.2523                 2.1174                 2.6271

                     52                     53                     54
                      A                      A                      A
 Frequencies --   1147.6720              1185.5646              1188.8622
 Red. masses --      1.7012                 1.4040                 1.3366
 Frc consts  --      1.3202                 1.1627                 1.1130
 IR Inten    --     24.0238               196.4189                87.9514

                     55                     56                     57
                      A                      A                      A
 Frequencies --   1194.4370              1209.2507              1226.7006
 Red. masses --      1.1326                 1.5135                 2.3554
 Frc consts  --      0.9520                 1.3039                 2.0883
 IR Inten    --      8.5070                16.2055                 5.7843

                     58                     59                     60
                      A                      A                      A
 Frequencies --   1240.1824              1256.5499              1277.9178
 Red. masses --      2.8028                 3.4615                 2.0320
 Frc consts  --      2.5399                 3.2201                 1.9551
 IR Inten    --    564.3266                10.0801                29.7531

                     61                     62                     63
                      A                      A                      A
 Frequencies --   1313.1347              1318.5159              1336.8584
 Red. masses --      1.7760                 1.3515                 4.1779
 Frc consts  --      1.8043                 1.3843                 4.3993
 IR Inten    --     71.1901                19.0415                28.2272

                     64                     65                     66
                      A                      A                      A
 Frequencies --   1342.9415              1344.5861              1363.6615
 Red. masses --      1.6348                 1.6546                 4.7698
 Frc consts  --      1.7371                 1.7624                 5.2259
 IR Inten    --      9.4302                24.0979                 7.2116

                     67                     68                     69
                      A                      A                      A
 Frequencies --   1396.8764              1398.5700              1478.0954
 Red. masses --      1.4896                 1.6794                 2.2469
 Frc consts  --      1.7125                 1.9354                 2.8923
 IR Inten    --     11.7103                18.5927                73.3640

                     70                     71                     72
                      A                      A                      A
 Frequencies --   1502.0399              1509.4375              1520.5279
 Red. masses --      2.4329                 1.1676                 1.7577
 Frc consts  --      3.2340                 1.5673                 2.3944
 IR Inten    --     20.2328                 4.8287                63.5963

                     73                     74                     75
                      A                      A                      A
 Frequencies --   1523.5934              1534.0389              1634.4173
 Red. masses --      1.2436                 2.2048                 6.2263
 Frc consts  --      1.7009                 3.0570                 9.7995
 IR Inten    --      8.9124                 6.6024                 0.9315

                     76                     77                     78
                      A                      A                      A
 Frequencies --   1642.2044              1647.3990              1662.7408
 Red. masses --      5.4389                 6.5563                 5.8666
 Frc consts  --      8.6419                10.4835                 9.5562
 IR Inten    --     65.7593                32.9375                46.8054

                     79                     80                     81
                      A                      A                      A
 Frequencies --   1783.4143              1839.1638              3034.7373
 Red. masses --     12.0148                12.4581                 1.0675
 Frc consts  --     22.5150                24.8281                 5.7925
 IR Inten    --    176.6733               276.7584                16.4009

                     82                     83                     84
                      A                      A                      A
 Frequencies --   3059.7514              3085.7806              3107.5630
 Red. masses --      1.0626                 1.0936                 1.1044
 Frc consts  --      5.8612                 6.1356                 6.2839
 IR Inten    --     21.7874                33.6136                23.9864

                     85                     86                     87
                      A                      A                      A
 Frequencies --   3115.6808              3179.1946              3184.9717
 Red. masses --      1.0850                 1.0871                 1.0893
 Frc consts  --      6.2055                 6.4737                 6.5107
 IR Inten    --      4.7546                 5.9814                16.9180

                     88                     89                     90
                      A                      A                      A
 Frequencies --   3194.6485              3203.7688              3208.6540
 Red. masses --      1.0898                 1.0897                 1.0944
 Frc consts  --      6.5528                 6.5898                 6.6383
 IR Inten    --     14.9968                10.5970                23.4274

                     91                     92                     93
                      A                      A                      A
 Frequencies --   3223.1015              3227.3745              3263.9289
 Red. masses --      1.0965                 1.0934                 1.0938
 Frc consts  --      6.7113                 6.7102                 6.8654
 IR Inten    --     18.5286                 7.4142                 0.9319

 - Thermochemistry -
 -------------------
 Temperature   298.150 Kelvin.  Pressure   1.00000 Atm.
 Atom     1 has atomic number  6 and mass  12.00000

 Molecular mass:   267.08954 amu.
 Principal axes and moments of inertia in atomic units:
                           1         2         3
     Eigenvalues --  3252.731967453.167648454.40781
           X            1.00000   0.00205  -0.00201
           Y           -0.00213   0.99929  -0.03752
           Z            0.00193   0.03752   0.99929
 This molecule is an asymmetric top.
 Rotational symmetry number  1.
 Warning -- assumption of classical behavior for rotation
           may cause significant error
 Rotational temperatures (Kelvin)      0.02663     0.01162     0.01024
 Rotational constants (GHZ):           0.55484     0.24214     0.21347
 Zero-point vibrational energy     681448.0 (Joules/Mol)
                                  162.86998 (Kcal/Mol)
 Warning -- explicit consideration of  23 degrees of freedom as
           vibrations may cause significant error
 Vibrational temperatures:     17.28    33.72    42.09    79.79   127.01
          (Kelvin)            161.84   210.43   220.24   329.24   372.26
                              409.91   435.33   457.08   579.83   605.99
                              609.79   634.04   653.99   709.30   718.87
                              759.85   800.44   860.28   904.04   933.89
                              953.21  1024.94  1062.93  1080.66  1093.37
                             1112.01  1139.90  1170.00  1182.56  1240.81
                             1281.07  1288.49  1314.86  1328.74  1367.73
                             1402.47  1403.51  1438.93  1441.97  1458.57
                             1498.61  1512.50  1540.26  1556.70  1592.40
                             1629.16  1651.24  1705.76  1710.51  1718.53
                             1739.84  1764.95  1784.35  1807.89  1838.64
                             1889.31  1897.05  1923.44  1932.19  1934.56
                             1962.00  2009.79  2012.23  2126.65  2161.10
                             2171.74  2187.70  2192.11  2207.14  2351.56
                             2362.77  2370.24  2392.31  2565.94  2646.15
                             4366.31  4402.30  4439.75  4471.09  4482.77
                             4574.15  4582.46  4596.39  4609.51  4616.54
                             4637.32  4643.47  4696.07

 Zero-point correction=                           0.259550 (Hartree/Particle)
 Thermal correction to Energy=                    0.275357
 Thermal correction to Enthalpy=                  0.276301
 Thermal correction to Gibbs Free Energy=         0.212899
 Sum of electronic and zero-point Energies=           -897.784404
 Sum of electronic and thermal Energies=              -897.768596
 Sum of electronic and thermal Enthalpies=            -897.767652
 Sum of electronic and thermal Free Energies=         -897.831054

                     E (Thermal)             CV                S
                      KCal/Mol        Cal/Mol-Kelvin    Cal/Mol-Kelvin
 Total                  172.789             61.587            133.441
 Electronic               0.000              0.000              0.000
 Translational            0.889              2.981             42.646
 Rotational               0.889              2.981             33.682
 Vibrational            171.012             55.625             57.112
 Vibration     1          0.593              1.987              7.647
 Vibration     2          0.593              1.985              6.319
 Vibration     3          0.593              1.984              5.879
 Vibration     4          0.596              1.975              4.613
 Vibration     5          0.601              1.957              3.698
 Vibration     6          0.607              1.939              3.226
 Vibration     7          0.617              1.907              2.720
 Vibration     8          0.619              1.899              2.634
 Vibration     9          0.652              1.797              1.888
 Vibration    10          0.668              1.748              1.670
 Vibration    11          0.683              1.702              1.504
 Vibration    12          0.694              1.669              1.403
 Vibration    13          0.704              1.640              1.322
 Vibration    14          0.768              1.464              0.952
 Vibration    15          0.784              1.424              0.888
 Vibration    16          0.786              1.418              0.879
 Vibration    17          0.801              1.381              0.824
 Vibration    18          0.813              1.351              0.782
 Vibration    19          0.849              1.266              0.676
 Vibration    20          0.855              1.251              0.659
 Vibration    21          0.883              1.188              0.591
 Vibration    22          0.912              1.126              0.531
 Vibration    23          0.956              1.036              0.453

 Optimization completed on the basis of negligible forces.
    -- Stationary point found.
 Normal termination of Gaussian 16 at Mon Dec 14 18:08:30 2020.

 ----------------------------------------------------------------------
 # B3LYP/6-311++G(d,p) empiricaldispersion=gd3bj scf=xqc pop=npa geom=c
 heck
 ----------------------------------------------------------------------

 ----------------------------------------
 CID_140095031_JID_10930_Energie_neutraal
 ----------------------------------------
 Structure from the checkpoint file:  "JID_10930.chk"
 Charge =  0 Multiplicity = 1

 SCF Done:  E(RB3LYP) =  -898.282591203     A.U. after   16 cycles
 Normal termination of Gaussian 16 at Mon Dec 14 18:15:32 2020.

 ----------------------------------------------------------------------
 # B3LYP/6-311++G(d,p) empiricaldispersion=gd3bj scf=xqc pop=npa geom=c
 heck
 ----------------------------------------------------------------------

 --------------------------------------
 CID_140095031_JID_10930_Energie_kation
 --------------------------------------
 Structure from the checkpoint file:  "JID_10930.chk"
 Charge =  1 Multiplicity = 2

 SCF Done:  E(UB3LYP) =  -897.966452246     A.U. after   33 cycles
 SCF Done:  E(UB3LYP) =  -897.966452246     a.u. after    1 cycles
 Normal termination of Gaussian 16 at Mon Dec 14 18:36:47 2020.
 Gaussian 16:  ES64L-G16RevA.03 25-Dec-2016

 ----------------------------------------------------------------------
 # B3LYP/6-311++G(d,p) empiricaldispersion=gd3bj scf=xqc pop=npa geom=c
 heck
 ----------------------------------------------------------------------

 -------------------------------------
 CID_140095031_JID_10930_Energie_anion
 -------------------------------------
 Structure from the checkpoint file:  "JID_10930.chk"
 Charge = -1 Multiplicity = 2

                         Standard orientation:
 ---------------------------------------------------------------------
 Center     Atomic      Atomic             Coordinates (Angstroms)
 Number     Number       Type             X           Y           Z
 ---------------------------------------------------------------------
      1          6           0        1.348412    2.225485   -1.004303
      2          6           0        1.432686    0.901100   -1.767618
      3          6           0        2.148910   -0.166916   -0.972728
      4          6           0        2.794937   -1.222123   -1.624025
      5          6           0        3.445587   -2.219553   -0.901165
      6          6           0        3.468030   -2.176251    0.496760
      7          6           0        2.837315   -1.131324    1.157787
      8          6           0        2.175107   -0.127827    0.434995
      9          6           0        1.514978    0.964116    1.197623
     10          8           0        1.580456    1.048131    2.412917
     11          6           0        0.742117    2.020877    0.400643
     12          6           0       -0.734550    1.680705    0.270178
     13          8           0       -1.611149    2.494855    0.120333
     14          8           0       -0.920021    0.327473    0.291344
     15          6           0       -2.180896   -0.243173    0.127610
     16          6           0       -3.081680    0.213365   -0.837110
     17          6           0       -4.278999   -0.484826   -0.962067
     18          6           0       -4.518989   -1.587269   -0.140386
     19          6           0       -3.536511   -1.944479    0.780004
     20          7           0       -2.379040   -1.284162    0.916886
     21          1           0        0.754159    2.960880   -1.556373
     22          1           0        2.355326    2.642173   -0.882436
     23          1           0        0.419996    0.549268   -2.010237
     24          1           0        1.940792    1.052075   -2.726683
     25          1           0        2.788932   -1.257793   -2.710727
     26          1           0        3.941762   -3.029854   -1.428274
     27          1           0        3.975489   -2.953763    1.059991
     28          1           0        2.833732   -1.063872    2.240457
     29          1           0        0.782036    2.953535    0.968806
     30          1           0       -2.860007    1.080986   -1.442632
     31          1           0       -5.015029   -0.168553   -1.695273
     32          1           0       -5.441286   -2.154410   -0.210294
     33          1           0       -3.675643   -2.796649    1.441526
 ---------------------------------------------------------------------

 SCF Done:  E(UB3LYP) =  -898.297605405     A.U. after   33 cycles
 SCF Done:  E(UB3LYP) =  -898.297605405     a.u. after    1 cycles

 The electronic state is 2-A.
 Alpha  occ. eigenvalues --  -19.06453 -19.00486 -18.93771 -14.20203 -10.19235
 Alpha  occ. eigenvalues --  -10.15837 -10.11123 -10.09045 -10.08428 -10.08220
 Alpha  occ. eigenvalues --  -10.08109 -10.06830 -10.06397 -10.06091 -10.04731
 Alpha  occ. eigenvalues --  -10.03908 -10.03901 -10.03371 -10.02756 -10.02683
 Alpha  occ. eigenvalues --   -1.00616  -0.92565  -0.87786  -0.84295  -0.73272
 Alpha  occ. eigenvalues --   -0.70946  -0.69876  -0.66714  -0.63276  -0.61492
 Alpha  occ. eigenvalues --   -0.59255  -0.56072  -0.53980  -0.50510  -0.49340
 Alpha  occ. eigenvalues --   -0.47746  -0.45292  -0.42462  -0.40907  -0.40122
 Alpha  occ. eigenvalues --   -0.38478  -0.38011  -0.35854  -0.35441  -0.35058
 Alpha  occ. eigenvalues --   -0.33716  -0.33299  -0.31573  -0.31118  -0.30145
 Alpha  occ. eigenvalues --   -0.29586  -0.29014  -0.28350  -0.27922  -0.27252
 Alpha  occ. eigenvalues --   -0.26320  -0.25197  -0.24061  -0.23491  -0.22449
 Alpha  occ. eigenvalues --   -0.21585  -0.20410  -0.20265  -0.19423  -0.17262
 Alpha  occ. eigenvalues --   -0.16470  -0.15556  -0.12117  -0.11892  -0.09714
 Alpha  occ. eigenvalues --    0.03763
 Alpha virt. eigenvalues --    0.05871   0.06744   0.07360   0.08175   0.08582
 Alpha virt. eigenvalues --    0.09109   0.09967   0.10076   0.11090   0.11119
 Alpha virt. eigenvalues --    0.11478   0.11993   0.12437   0.13223   0.13436

  Beta  occ. eigenvalues --  -19.06477 -19.00456 -18.93361 -14.20051 -10.19149
  Beta  occ. eigenvalues --  -10.15732 -10.11142 -10.08929 -10.08461 -10.08058
  Beta  occ. eigenvalues --  -10.07904 -10.06829 -10.06426 -10.06099 -10.04607
  Beta  occ. eigenvalues --  -10.03979 -10.03946 -10.03090 -10.02688 -10.02507
  Beta  occ. eigenvalues --   -1.00569  -0.92505  -0.87018  -0.84091  -0.73032
  Beta  occ. eigenvalues --   -0.70750  -0.69723  -0.66589  -0.63082  -0.61079
  Beta  occ. eigenvalues --   -0.59085  -0.55945  -0.53826  -0.50382  -0.48785
  Beta  occ. eigenvalues --   -0.47589  -0.45102  -0.42205  -0.40840  -0.40036
  Beta  occ. eigenvalues --   -0.38353  -0.37909  -0.35630  -0.35227  -0.34971
  Beta  occ. eigenvalues --   -0.33561  -0.33085  -0.31473  -0.30980  -0.29900
  Beta  occ. eigenvalues --   -0.29410  -0.28832  -0.28119  -0.27801  -0.26983
  Beta  occ. eigenvalues --   -0.26022  -0.24630  -0.23990  -0.22909  -0.22256
  Beta  occ. eigenvalues --   -0.20693  -0.20173  -0.19814  -0.18799  -0.16953
  Beta  occ. eigenvalues --   -0.16273  -0.15239  -0.11371  -0.10596  -0.09357
  Beta virt. eigenvalues --    0.06679   0.06914   0.07600   0.08159   0.08549
  Beta virt. eigenvalues --    0.09079   0.09512   0.10002   0.10067   0.11113
  Beta virt. eigenvalues --    0.11215   0.11606   0.12080   0.12580   0.13242

 Mulliken charges and spin densities:
               1          2
     1  C   -0.864361  -0.025866
     2  C    0.061281   0.005948
     3  C   -0.079940   0.113891
     4  C    0.127905  -0.025496
     5  C   -0.370405   0.217776
     6  C   -0.451184  -0.055778
     7  C   -0.026496   0.190967
     8  C    0.401001  -0.018020
     9  C   -0.834337   0.193691
    10  O   -0.376602   0.156630
    11  C    0.457956  -0.034427
    12  C   -0.292545   0.034308
    13  O   -0.216895   0.010445
    14  O    0.227293  -0.001457
    15  C   -0.651581   0.042797
    16  C    0.731553  -0.028715
    17  C   -0.502880   0.093903
    18  C    0.036454   0.045472
    19  C   -0.312104  -0.008278
    20  N   -0.072836   0.074487
    21  H    0.172240  -0.005965
    22  H    0.153967   0.009070
    23  H    0.130606   0.001500
    24  H    0.160876   0.002346
    25  H    0.116160   0.001759
    26  H    0.106402  -0.018182
    27  H    0.113020   0.004241
    28  H    0.184245  -0.010767
    29  H    0.234668   0.032655
    30  H    0.187860   0.004232
    31  H    0.150371  -0.003077
    32  H    0.131919  -0.002806
    33  H    0.166388   0.002715
 Sum of Mulliken charges =  -1.00000   1.00000

 Dipole moment (field-independent basis, Debye):
    X=             -3.8489    Y=             -0.3872    Z=             -5.4272  Tot=              6.6647
 Quadrupole moment (field-independent basis, Debye-Ang):
   XX=           -149.6895   YY=           -135.5301   ZZ=           -135.1068
   XY=              7.9684   XZ=             -2.2662   YZ=             -7.4342

 Summary of Natural Population Analysis:

                                       Natural Population
                Natural  -----------------------------------------------
    Atom  No    Charge         Core      Valence    Rydberg      Total
 -----------------------------------------------------------------------
      C    1   -0.17749      0.99963     2.17161    0.00626     3.17749
      C    2   -0.19795      0.99960     2.19123    0.00712     3.19795
      C    3    0.02314      0.99949     1.96912    0.00824     2.97686
      C    4   -0.12458      0.99953     2.11578    0.00927     3.12458
      C    5   -0.04652      0.99958     2.03741    0.00954     3.04652
      C    6   -0.13194      0.99957     2.12337    0.00899     3.13194
      C    7   -0.03866      0.99954     2.03028    0.00884     3.03866
      C    8   -0.06157      0.99943     2.05074    0.01141     3.06157
      C    9    0.31997      0.99960     1.65930    0.02114     2.68003
      O   10   -0.25869      0.99988     3.25236    0.00645     4.25869
      C   11   -0.19177      0.99952     2.17597    0.01628     3.19177
      C   12    0.43267      0.99964     1.54182    0.02587     2.56733
      O   13   -0.30526      0.99986     3.29957    0.00583     4.30526
      O   14   -0.27268      0.99983     3.26225    0.01060     4.27268
      C   15    0.27596      0.99941     1.70848    0.01615     2.72404
      C   16   -0.14068      0.99952     2.13340    0.00776     3.14068
      C   17   -0.06557      0.99958     2.05722    0.00877     3.06557
      C   18   -0.12890      0.99957     2.12083    0.00851     3.12890
      C   19    0.02231      0.99960     1.96391    0.01418     2.97769
      N   20   -0.20871      0.99965     2.69951    0.00954     3.70871
      H   21    0.09683      0.00000     0.40198    0.00119     0.40317
      H   22    0.09840      0.00000     0.40052    0.00109     0.40160
      H   23    0.10154      0.00000     0.39727    0.00120     0.39846
      H   24    0.09693      0.00000     0.40183    0.00124     0.40307
      H   25    0.08910      0.00000     0.40934    0.00156     0.41090
      H   26    0.08645      0.00000     0.41246    0.00108     0.41355
      H   27    0.09133      0.00000     0.40765    0.00102     0.40867
      H   28    0.10506      0.00000     0.39341    0.00152     0.39494
      H   29    0.11771      0.00000     0.38095    0.00134     0.38229
      H   30    0.11353      0.00000     0.38539    0.00108     0.38647
      H   31    0.09562      0.00000     0.40344    0.00094     0.40438
      H   32    0.09753      0.00000     0.40137    0.00110     0.40247
      H   33    0.08690      0.00000     0.41188    0.00122     0.41310
 =======================================================================
   * Total *    0.00000     19.99203    49.77164    0.23633    70.00000

 Normal termination of Gaussian 16 at Mon Dec 14 18:58:17 2020.
