 Gaussian 16, Revision A.03,

 -----------------------------------------------------------
 # opt freq B3LYP/6-31G(d) empiricaldispersion=gd3bj scf=xqc
 -----------------------------------------------------------

 -------------------------------
 CID_135985420_JID_3823_neutraal
 -------------------------------
 Symbolic Z-matrix:
 Charge =  0 Multiplicity = 1

 SCF Done:  E(RB3LYP) =  -639.876384376     A.U. after   15 cycles
 SCF Done:  E(RB3LYP) =  -639.882633179     A.U. after   12 cycles
 SCF Done:  E(RB3LYP) =  -639.883034386     A.U. after   11 cycles
 SCF Done:  E(RB3LYP) =  -639.883079377     A.U. after   10 cycles
 SCF Done:  E(RB3LYP) =  -639.883083236     A.U. after    8 cycles
 SCF Done:  E(RB3LYP) =  -639.883083574     A.U. after    8 cycles
 Optimization completed.
    -- Stationary point found.
 Normal termination of Gaussian 16 at Sun Dec 13 19:55:20 2020.

 --------------------------------------------------------------------
 #N Geom=AllCheck Guess=TCheck SCRF=Check GenChk RB3LYP/6-31G(d) Freq
 --------------------------------------------------------------------

 Structure from the checkpoint file:  "JID_3823.chk"
 -------------------------------
 CID_135985420_JID_3823_neutraal
 -------------------------------
 Charge =  0 Multiplicity = 1

 SCF Done:  E(RB3LYP) =  -639.883083574     A.U. after    1 cycles

  Exact polarizability: 162.888  -3.951 109.995  -0.013   0.000  43.711
 Approx polarizability: 258.830  -9.190 216.288  -0.026   0.005  68.540

                      1                      2                      3
                      A                      A                      A
 Frequencies --     78.6843               111.2116               145.4210
 Red. masses --      6.0731                 3.8157                 1.1408
 Frc consts  --      0.0222                 0.0278                 0.0142
 IR Inten    --      0.1905                 1.1834                 0.6550

                      4                      5                      6
                      A                      A                      A
 Frequencies --    179.3805               230.4812               253.8082
 Red. masses --      8.8897                 6.3237                 5.0084
 Frc consts  --      0.1685                 0.1979                 0.1901
 IR Inten    --     15.3360                 3.8200                 0.5638

                      7                      8                      9
                      A                      A                      A
 Frequencies --    302.4906               339.7057               403.1930
 Red. masses --      3.8468                 4.8482                 6.7580
 Frc consts  --      0.2074                 0.3296                 0.6473
 IR Inten    --      6.5837                 1.2147                10.7814

                     10                     11                     12
                      A                      A                      A
 Frequencies --    428.7194               463.7382               517.2462
 Red. masses --      4.9712                10.5787                 7.3127
 Frc consts  --      0.5383                 1.3404                 1.1527
 IR Inten    --      0.5690                 4.2845                 2.2581

                     13                     14                     15
                      A                      A                      A
 Frequencies --    553.7504               563.6085               615.5306
 Red. masses --      4.8469                10.1289                 4.9973
 Frc consts  --      0.8757                 1.8957                 1.1155
 IR Inten    --     15.2165                11.3993                 7.5002

                     16                     17                     18
                      A                      A                      A
 Frequencies --    641.3505               685.3508               694.3449
 Red. masses --      2.1343                 6.3796                 7.6791
 Frc consts  --      0.5172                 1.7655                 2.1813
 IR Inten    --     29.1848                 3.6003                 3.4721

                     19                     20                     21
                      A                      A                      A
 Frequencies --    719.0112               731.4059               767.9079
 Red. masses --      1.4560                 1.9850                 3.3699
 Frc consts  --      0.4435                 0.6256                 1.1708
 IR Inten    --     87.7406                 1.1122                86.8440

                     22                     23                     24
                      A                      A                      A
 Frequencies --    776.6870               838.5805               915.5985
 Red. masses --      6.8209                 4.2499                 1.3859
 Frc consts  --      2.4243                 1.7609                 0.6846
 IR Inten    --     10.5504                 1.0535                 3.3989

                     25                     26                     27
                      A                      A                      A
 Frequencies --    923.2735              1032.7658              1054.9896
 Red. masses --      6.6434                 1.8683                 1.5820
 Frc consts  --      3.3366                 1.1741                 1.0374
 IR Inten    --     10.5386                32.8373                 2.1979

                     28                     29                     30
                      A                      A                      A
 Frequencies --   1086.1100              1133.4670              1196.2087
 Red. masses --      5.0136                 2.2655                 3.2418
 Frc consts  --      3.4846                 1.7149                 2.7330
 IR Inten    --      0.5788                24.1541                19.3790

                     31                     32                     33
                      A                      A                      A
 Frequencies --   1257.3446              1285.4834              1338.6080
 Red. masses --      5.8640                 2.3236                 5.0243
 Frc consts  --      5.4620                 2.2622                 5.3043
 IR Inten    --     19.5988                45.8718                18.2593

                     34                     35                     36
                      A                      A                      A
 Frequencies --   1369.0679              1431.1198              1433.4563
 Red. masses --      3.4017                 1.7373                 1.3598
 Frc consts  --      3.7566                 2.0965                 1.6463
 IR Inten    --     57.5056                20.4866                11.4458

                     37                     38                     39
                      A                      A                      A
 Frequencies --   1464.5805              1487.4605              1493.6099
 Red. masses --      2.2640                 1.1216                 1.0457
 Frc consts  --      2.8613                 1.4622                 1.3745
 IR Inten    --      6.5645                16.7340                 8.0143

                     40                     41                     42
                      A                      A                      A
 Frequencies --   1536.8348              1589.1353              1627.1986
 Red. masses --      3.5959                 7.4491                 6.8941
 Frc consts  --      5.0040                11.0835                10.7549
 IR Inten    --     35.1900                 6.9741               122.1020

                     43                     44                     45
                      A                      A                      A
 Frequencies --   1671.6668              1790.1455              1793.1073
 Red. masses --      6.9748                 9.8942                 9.2086
 Frc consts  --     11.4836                18.6814                17.4445
 IR Inten    --     24.7781               540.6988               476.2657

                     46                     47                     48
                      A                      A                      A
 Frequencies --   3060.2251              3111.3683              3176.8594
 Red. masses --      1.0378                 1.0985                 1.1027
 Frc consts  --      5.7261                 6.2656                 6.5570
 IR Inten    --      3.0079                 5.2759                 6.9807

                     49                     50                     51
                      A                      A                      A
 Frequencies --   3207.0421              3559.3844              3590.5321
 Red. masses --      1.0929                 1.0770                 1.0782
 Frc consts  --      6.6228                 8.0393                 8.1899
 IR Inten    --      7.6041                80.3079                70.2336

 - Thermochemistry -
 -------------------
 Temperature   298.150 Kelvin.  Pressure   1.00000 Atm.
 Atom     1 has atomic number  6 and mass  12.00000

 Molecular mass:   178.04908 amu.
 Principal axes and moments of inertia in atomic units:
                           1         2         3
     Eigenvalues --  1116.747852760.828163866.54175
           X            0.99992   0.01276  -0.00001
           Y           -0.01276   0.99992  -0.00001
           Z            0.00001   0.00001   1.00000
 This molecule is an asymmetric top.
 Rotational symmetry number  1.
 Warning -- assumption of classical behavior for rotation
           may cause significant error
 Rotational temperatures (Kelvin)      0.07756     0.03137     0.02240
 Rotational constants (GHZ):           1.61607     0.65370     0.46676
 Zero-point vibrational energy     362816.9 (Joules/Mol)
                                   86.71532 (Kcal/Mol)
 Warning -- explicit consideration of  15 degrees of freedom as
           vibrations may cause significant error
 Vibrational temperatures:    113.21   160.01   209.23   258.09   331.61
          (Kelvin)            365.17   435.22   488.76   580.10   616.83
                              667.22   744.20   796.72   810.91   885.61
                              922.76   986.07   999.01  1034.50  1052.33
                             1104.85  1117.48  1206.53  1317.34  1328.38
                             1485.92  1517.89  1562.67  1630.81  1721.08
                             1809.04  1849.52  1925.96  1969.78  2059.06
                             2062.42  2107.20  2140.12  2148.97  2211.16
                             2286.41  2341.18  2405.16  2575.62  2579.88
                             4402.98  4476.56  4570.79  4614.22  5121.16
                             5165.97

 Zero-point correction=                           0.138190 (Hartree/Particle)
 Thermal correction to Energy=                    0.148250
 Thermal correction to Enthalpy=                  0.149195
 Thermal correction to Gibbs Free Energy=         0.102444
 Sum of electronic and zero-point Energies=           -639.744894
 Sum of electronic and thermal Energies=              -639.734833
 Sum of electronic and thermal Enthalpies=            -639.733889
 Sum of electronic and thermal Free Energies=         -639.780640

                     E (Thermal)             CV                S
                      KCal/Mol        Cal/Mol-Kelvin    Cal/Mol-Kelvin
 Total                   93.029             38.929             98.395
 Electronic               0.000              0.000              0.000
 Translational            0.889              2.981             41.438
 Rotational               0.889              2.981             30.856
 Vibrational             91.251             32.967             26.101
 Vibration     1          0.600              1.963              3.923
 Vibration     2          0.607              1.940              3.248
 Vibration     3          0.617              1.908              2.731
 Vibration     4          0.629              1.868              2.335
 Vibration     5          0.652              1.794              1.875
 Vibration     6          0.665              1.756              1.704
 Vibration     7          0.694              1.669              1.403
 Vibration     8          0.720              1.596              1.214
 Vibration     9          0.769              1.463              0.951
 Vibration    10          0.790              1.408              0.863
 Vibration    11          0.821              1.330              0.755
 Vibration    12          0.872              1.212              0.616
 Vibration    13          0.909              1.131              0.536
 Vibration    14          0.919              1.110              0.517
 Vibration    15          0.975              0.999              0.424

                           ! Non-Optimized Parameters !
 Normal termination of Gaussian 16 at Sun Dec 13 19:59:32 2020.

 ----------------------------------------------------------------------
 # B3LYP/6-311++G(d,p) empiricaldispersion=gd3bj scf=xqc pop=npa geom=c
 heck
 ----------------------------------------------------------------------

 ---------------------------------------
 CID_135985420_JID_3823_Energie_neutraal
 ---------------------------------------
 Structure from the checkpoint file:  "JID_3823.chk"
 Charge =  0 Multiplicity = 1

 SCF Done:  E(RB3LYP) =  -640.064622867     A.U. after   16 cycles
 Normal termination of Gaussian 16 at Sun Dec 13 20:01:13 2020.

 ----------------------------------------------------------------------
 # B3LYP/6-311++G(d,p) empiricaldispersion=gd3bj scf=xqc pop=npa geom=c
 heck
 ----------------------------------------------------------------------

 -------------------------------------
 CID_135985420_JID_3823_Energie_kation
 -------------------------------------
 Structure from the checkpoint file:  "JID_3823.chk"
 Charge =  1 Multiplicity = 2

 SCF Done:  E(UB3LYP) =  -639.749069216     A.U. after   22 cycles
 Normal termination of Gaussian 16 at Sun Dec 13 20:04:35 2020.
 Gaussian 16:  ES64L-G16RevA.03 25-Dec-2016

 ----------------------------------------------------------------------
 # B3LYP/6-311++G(d,p) empiricaldispersion=gd3bj scf=xqc pop=npa geom=c
 heck
 ----------------------------------------------------------------------

 ------------------------------------
 CID_135985420_JID_3823_Energie_anion
 ------------------------------------
 Structure from the checkpoint file:  "JID_3823.chk"
 Charge = -1 Multiplicity = 2

                         Standard orientation:
 ---------------------------------------------------------------------
 Center     Atomic      Atomic             Coordinates (Angstroms)
 Number     Number       Type             X           Y           Z
 ---------------------------------------------------------------------
      1          6           0       -3.378328   -1.093454    0.000131
      2          6           0       -1.966300   -0.602735   -0.000209
      3          7           0       -0.980612   -1.451177   -0.000205
      4          6           0        0.312446   -0.973705   -0.000129
      5          6           0        0.567452    0.386673   -0.000128
      6          6           0        1.920816    0.915209    0.000074
      7          8           0        2.218249    2.104112    0.000055
      8          7           0        2.864293   -0.114274    0.000149
      9          6           0        2.536729   -1.449126    0.000124
     10          7           0        1.328043   -1.905476    0.000008
     11          7           0       -0.471036    1.275599   -0.000300
     12          6           0       -1.800172    0.882847   -0.000359
     13          8           0       -2.728672    1.678817    0.000349
     14          1           0       -3.394503   -2.183965   -0.004399
     15          1           0       -3.914856   -0.702893   -0.872370
     16          1           0       -3.911271   -0.711087    0.878580
     17          1           0        3.835997    0.176308    0.000238
     18          1           0        3.378026   -2.136924    0.000214
     19          1           0       -0.250686    2.268168   -0.000088
 ---------------------------------------------------------------------

 SCF Done:  E(UB3LYP) =  -640.099498660     A.U. after   25 cycles

 The electronic state is 2-A.
 Alpha  occ. eigenvalues --  -18.95379 -18.94214 -14.24005 -14.20658 -14.18114
 Alpha  occ. eigenvalues --  -14.14840 -10.13337 -10.12782 -10.12096 -10.08609
 Alpha  occ. eigenvalues --  -10.06647 -10.04225 -10.02331  -0.91598  -0.89560
 Alpha  occ. eigenvalues --   -0.85809  -0.82005  -0.77988  -0.75091  -0.63865
 Alpha  occ. eigenvalues --   -0.59475  -0.54141  -0.51438  -0.50609  -0.45378
 Alpha  occ. eigenvalues --   -0.42111  -0.39280  -0.37750  -0.35101  -0.33635
 Alpha  occ. eigenvalues --   -0.31888  -0.30167  -0.29363  -0.28471  -0.26530
 Alpha  occ. eigenvalues --   -0.24965  -0.24913  -0.24703  -0.21726  -0.17586
 Alpha  occ. eigenvalues --   -0.16606  -0.14903  -0.14470  -0.13940  -0.09192
 Alpha  occ. eigenvalues --   -0.08173   0.02964
 Alpha virt. eigenvalues --    0.07620   0.09875   0.10271   0.10955   0.12668
 Alpha virt. eigenvalues --    0.13773   0.13827   0.13944   0.15069   0.15116
 Alpha virt. eigenvalues --    0.16256   0.16949   0.17898   0.18443   0.18824

  Beta  occ. eigenvalues --  -18.95195 -18.94157 -14.23850 -14.20356 -14.18120
  Beta  occ. eigenvalues --  -14.14663 -10.13172 -10.12796 -10.12100 -10.08528
  Beta  occ. eigenvalues --  -10.06443 -10.03683 -10.02371  -0.91248  -0.89365
  Beta  occ. eigenvalues --   -0.85611  -0.81578  -0.77598  -0.74631  -0.63349
  Beta  occ. eigenvalues --   -0.58989  -0.53978  -0.51047  -0.50297  -0.45215
  Beta  occ. eigenvalues --   -0.41743  -0.38968  -0.37539  -0.34821  -0.32687
  Beta  occ. eigenvalues --   -0.31718  -0.29184  -0.29129  -0.28328  -0.25916
  Beta  occ. eigenvalues --   -0.24657  -0.24558  -0.24206  -0.20863  -0.16469
  Beta  occ. eigenvalues --   -0.16002  -0.14341  -0.13807  -0.13716  -0.08945
  Beta  occ. eigenvalues --   -0.06474
  Beta virt. eigenvalues --    0.07620   0.09492   0.10254   0.10415   0.10962
  Beta virt. eigenvalues --    0.12670   0.13849   0.13923   0.14547   0.15066
  Beta virt. eigenvalues --    0.15542   0.16246   0.16919   0.17892   0.18504

 Mulliken charges and spin densities:
               1          2
     1  C   -0.433200  -0.014017
     2  C    0.075596   0.341378
     3  N   -0.033927   0.072248
     4  C   -0.523075   0.030792
     5  C    0.170747   0.201727
     6  C    0.068207   0.073103
     7  O   -0.459625   0.070741
     8  N   -0.320125   0.051544
     9  C    0.143922   0.005626
    10  N   -0.175624   0.001520
    11  N   -0.298103   0.113280
    12  C    0.027578  -0.003201
    13  O   -0.428590   0.026566
    14  H    0.118363  -0.000281
    15  H    0.135894   0.019862
    16  H    0.135306   0.020348
    17  H    0.323510  -0.003887
    18  H    0.163533   0.000765
    19  H    0.309613  -0.008113
 Sum of Mulliken charges =  -1.00000   1.00000

 Dipole moment (field-independent basis, Debye):
    X=              4.5479    Y=             -1.6032    Z=             -0.0009  Tot=              4.8222
 Quadrupole moment (field-independent basis, Debye-Ang):
   XX=            -96.4589   YY=           -105.4406   ZZ=            -78.8709
   XY=             -2.8232   XZ=              0.0078   YZ=             -0.0016

 Summary of Natural Population Analysis:

                                       Natural Population
                Natural  -----------------------------------------------
    Atom  No    Charge         Core      Valence    Rydberg      Total
 -----------------------------------------------------------------------
      C    1   -0.30607      0.99965     2.30119    0.00523     3.30607
      C    2    0.19110      0.99958     1.79428    0.01504     2.80890
      N    3   -0.21944      0.99964     2.70495    0.01484     3.71944
      C    4    0.16425      0.99946     1.81782    0.01848     2.83575
      C    5    0.05844      0.99944     1.93225    0.00987     2.94156
      C    6    0.33115      0.99962     1.64735    0.02189     2.66885
      O    7   -0.32858      0.99988     3.32167    0.00703     4.32858
      N    8   -0.28270      0.99967     2.77547    0.00755     3.78270
      C    9    0.12568      0.99968     1.85822    0.01642     2.87432
      N   10   -0.24370      0.99968     2.73353    0.01049     3.74370
      N   11   -0.23731      0.99964     2.72887    0.00880     3.73731
      C   12    0.30464      0.99963     1.67237    0.02336     2.69536
      O   13   -0.33613      0.99988     3.32977    0.00649     4.33613
      H   14    0.09926      0.00000     0.39958    0.00115     0.40074
      H   15    0.10506      0.00000     0.39389    0.00105     0.39494
      H   16    0.10504      0.00000     0.39391    0.00105     0.39496
      H   17    0.19181      0.00000     0.30533    0.00286     0.30819
      H   18    0.07808      0.00000     0.42055    0.00137     0.42192
      H   19    0.19941      0.00000     0.29755    0.00304     0.30059
 =======================================================================
   * Total *   -0.00000     12.99545    32.82853    0.17602    46.00000

 Normal termination of Gaussian 16 at Sun Dec 13 20:08:11 2020.
