 Gaussian 16, Revision A.03,

 -----------------------------------------------------------
 # opt freq B3LYP/6-31G(d) empiricaldispersion=gd3bj scf=xqc
 -----------------------------------------------------------

 ------------------------------
 CID_58067775_JID_4720_neutraal
 ------------------------------
 Symbolic Z-matrix:
 Charge =  0 Multiplicity = 1

 SCF Done:  E(RB3LYP) =  -575.249392001     A.U. after   15 cycles
 SCF Done:  E(RB3LYP) =  -575.253729523     A.U. after   12 cycles
 SCF Done:  E(RB3LYP) =  -575.254012988     A.U. after   12 cycles
 SCF Done:  E(RB3LYP) =  -575.254125973     A.U. after   11 cycles
 SCF Done:  E(RB3LYP) =  -575.254246787     A.U. after   12 cycles
 SCF Done:  E(RB3LYP) =  -575.254298500     A.U. after   12 cycles
 SCF Done:  E(RB3LYP) =  -575.254347025     A.U. after   10 cycles
 SCF Done:  E(RB3LYP) =  -575.254476118     A.U. after   11 cycles
 SCF Done:  E(RB3LYP) =  -575.254546522     A.U. after   11 cycles
 SCF Done:  E(RB3LYP) =  -575.254635213     A.U. after   12 cycles
 SCF Done:  E(RB3LYP) =  -575.254705237     A.U. after   11 cycles
 SCF Done:  E(RB3LYP) =  -575.254707296     A.U. after   10 cycles
 SCF Done:  E(RB3LYP) =  -575.254707703     A.U. after    9 cycles
 SCF Done:  E(RB3LYP) =  -575.254707725     A.U. after    8 cycles
 SCF Done:  E(RB3LYP) =  -575.254707738     A.U. after    7 cycles
 Optimization completed.
    -- Stationary point found.
 Normal termination of Gaussian 16 at Thu Dec 10 10:30:51 2020.

 --------------------------------------------------------------------
 #N Geom=AllCheck Guess=TCheck SCRF=Check GenChk RB3LYP/6-31G(d) Freq
 --------------------------------------------------------------------

 Structure from the checkpoint file:  "JID_4720.chk"
 ------------------------------
 CID_58067775_JID_4720_neutraal
 ------------------------------
 Charge =  0 Multiplicity = 1

 SCF Done:  E(RB3LYP) =  -575.254707738     A.U. after    1 cycles

  Exact polarizability: 164.826  -1.100 134.867  -4.027   3.638  85.124
 Approx polarizability: 222.767  -2.239 231.002 -11.981   4.148 132.199

                      1                      2                      3
                      A                      A                      A
 Frequencies --     20.6280                77.2617                89.3315
 Red. masses --      4.3483                 2.0435                 3.8023
 Frc consts  --      0.0011                 0.0072                 0.0179
 IR Inten    --      2.4136                 0.8537                 3.0035

                      4                      5                      6
                      A                      A                      A
 Frequencies --    122.9719               144.3928               180.4404
 Red. masses --      5.4198                 3.2994                 3.2425
 Frc consts  --      0.0483                 0.0405                 0.0622
 IR Inten    --      3.2771                 1.0010                 1.5711

                      7                      8                      9
                      A                      A                      A
 Frequencies --    224.5440               242.2443               300.1580
 Red. masses --      3.7147                 3.0831                 4.3608
 Frc consts  --      0.1104                 0.1066                 0.2315
 IR Inten    --      4.6631                 0.7752                 1.2340

                     10                     11                     12
                      A                      A                      A
 Frequencies --    304.5466               314.8202               381.9774
 Red. masses --      1.0544                 3.9437                 3.1421
 Frc consts  --      0.0576                 0.2303                 0.2701
 IR Inten    --     22.2119                 1.8611                 0.5843

                     13                     14                     15
                      A                      A                      A
 Frequencies --    448.0110               460.6191               496.5810
 Red. masses --      3.3495                 3.0954                 5.2540
 Frc consts  --      0.3961                 0.3870                 0.7633
 IR Inten    --      1.7958                11.8557                 6.7812

                     16                     17                     18
                      A                      A                      A
 Frequencies --    542.2834               562.3731               601.2174
 Red. masses --      5.6654                 4.6858                 1.9750
 Frc consts  --      0.9816                 0.8731                 0.4206
 IR Inten    --     15.0306                 0.8976               164.2215

                     19                     20                     21
                      A                      A                      A
 Frequencies --    650.2426               660.0115               677.3549
 Red. masses --      2.3106                 2.8592                 4.8483
 Frc consts  --      0.5756                 0.7338                 1.3106
 IR Inten    --    171.8792                15.4005                 1.2665

                     22                     23                     24
                      A                      A                      A
 Frequencies --    698.4961               711.8089               786.8243
 Red. masses --      2.6089                 2.0985                 1.5023
 Frc consts  --      0.7500                 0.6264                 0.5480
 IR Inten    --      5.5408                 9.0583                38.8825

                     25                     26                     27
                      A                      A                      A
 Frequencies --    809.6019               836.9026               858.7304
 Red. masses --      1.5210                 1.6542                 3.4070
 Frc consts  --      0.5874                 0.6826                 1.4803
 IR Inten    --      1.7214                 0.8958                 7.5392

                     28                     29                     30
                      A                      A                      A
 Frequencies --    871.5203               872.6786               897.2279
 Red. masses --      1.8497                 1.4161                 2.8102
 Frc consts  --      0.8278                 0.6354                 1.3329
 IR Inten    --     19.0407                 1.9931                 1.4125

                     31                     32                     33
                      A                      A                      A
 Frequencies --    934.4612               960.3637               968.3112
 Red. masses --      2.3728                 1.2612                 2.2439
 Frc consts  --      1.2207                 0.6854                 1.2396
 IR Inten    --      0.6777                 0.1574                 1.7386

                     34                     35                     36
                      A                      A                      A
 Frequencies --   1016.1408              1021.9883              1027.6507
 Red. masses --      4.1459                 3.1542                 1.8327
 Frc consts  --      2.5222                 1.9410                 1.1403
 IR Inten    --      1.5959                 3.1457                 1.4154

                     37                     38                     39
                      A                      A                      A
 Frequencies --   1063.6871              1073.7338              1102.7958
 Red. masses --      1.8552                 1.9172                 1.8769
 Frc consts  --      1.2367                 1.3023                 1.3449
 IR Inten    --      0.5661                 0.0968                 1.9540

                     40                     41                     42
                      A                      A                      A
 Frequencies --   1129.8263              1152.4600              1200.9670
 Red. masses --      2.6373                 1.3746                 1.5817
 Frc consts  --      1.9835                 1.0757                 1.3441
 IR Inten    --      0.8871                 3.8774                 1.2593

                     43                     44                     45
                      A                      A                      A
 Frequencies --   1210.9891              1234.2061              1251.2726
 Red. masses --      1.1268                 1.3247                 1.7493
 Frc consts  --      0.9736                 1.1889                 1.6137
 IR Inten    --      4.2891                 0.5805                 3.8290

                     46                     47                     48
                      A                      A                      A
 Frequencies --   1270.2488              1279.7756              1321.8110
 Red. masses --      1.4321                 1.3781                 1.2932
 Frc consts  --      1.3615                 1.3299                 1.3312
 IR Inten    --      4.8395                 1.7223                 1.1943

                     49                     50                     51
                      A                      A                      A
 Frequencies --   1340.5634              1352.0625              1359.0515
 Red. masses --      2.9353                 1.3367                 1.7207
 Frc consts  --      3.1080                 1.4397                 1.8725
 IR Inten    --     44.3849                 4.0738                 5.9720

                     52                     53                     54
                      A                      A                      A
 Frequencies --   1363.3406              1369.8534              1382.9756
 Red. masses --      1.3736                 1.6081                 2.6266
 Frc consts  --      1.5042                 1.7779                 2.9599
 IR Inten    --      1.9181                 3.4498                 5.6825

                     55                     56                     57
                      A                      A                      A
 Frequencies --   1505.6013              1512.5919              1523.1057
 Red. masses --      2.9184                 1.0922                 1.0860
 Frc consts  --      3.8978                 1.4723                 1.4844
 IR Inten    --     18.9239                 0.7582                 1.5825

                     58                     59                     60
                      A                      A                      A
 Frequencies --   1526.1532              1547.6864              1553.1743
 Red. masses --      1.0835                 1.1055                 2.4915
 Frc consts  --      1.4869                 1.5602                 3.5411
 IR Inten    --      4.1324                 0.2532                35.0889

                     61                     62                     63
                      A                      A                      A
 Frequencies --   1649.3329              1670.1643              1696.9671
 Red. masses --      5.5139                 3.7431                 1.2818
 Frc consts  --      8.8375                 6.1518                 2.1748
 IR Inten    --     20.3504                64.0901               131.5288

                     64                     65                     66
                      A                      A                      A
 Frequencies --   2353.2158              3070.0450              3074.3368
 Red. masses --     12.6953                 1.0633                 1.0612
 Frc consts  --     41.4205                 5.9049                 5.9094
 IR Inten    --     10.8443                 5.6836                24.7888

                     67                     68                     69
                      A                      A                      A
 Frequencies --   3075.8032              3085.1032              3106.9547
 Red. masses --      1.0624                 1.0634                 1.1041
 Frc consts  --      5.9218                 5.9635                 6.2798
 IR Inten    --     37.2318                32.2384                 9.1575

                     70                     71                     72
                      A                      A                      A
 Frequencies --   3122.7690              3130.8399              3137.7533
 Red. masses --      1.1030                 1.1041                 1.1053
 Frc consts  --      6.3372                 6.3763                 6.4118
 IR Inten    --      8.7740                17.7131                43.0788

                     73                     74                     75
                      A                      A                      A
 Frequencies --   3177.8192              3178.4258              3197.6632
 Red. masses --      1.0897                 1.0872                 1.0930
 Frc consts  --      6.4834                 6.4711                 6.5845
 IR Inten    --      9.1540                12.8528                25.0924

                     76                     77                     78
                      A                      A                      A
 Frequencies --   3230.7750              3551.2605              3649.7326
 Red. masses --      1.0917                 1.0479                 1.0981
 Frc consts  --      6.7136                 7.7867                 8.6185
 IR Inten    --      9.3000                14.2196                 9.0250

 - Thermochemistry -
 -------------------
 Temperature   298.150 Kelvin.  Pressure   1.00000 Atm.
 Atom     1 has atomic number  6 and mass  12.00000

 Molecular mass:   186.11570 amu.
 Principal axes and moments of inertia in atomic units:
                           1         2         3
     Eigenvalues --  1341.968954058.247734550.63367
           X            0.99983  -0.01509   0.01018
           Y            0.01443   0.99799   0.06169
           Z           -0.01109  -0.06154   0.99804
 This molecule is an asymmetric top.
 Rotational symmetry number  1.
 Warning -- assumption of classical behavior for rotation
           may cause significant error
 Rotational temperatures (Kelvin)      0.06454     0.02134     0.01903
 Rotational constants (GHZ):           1.34485     0.44471     0.39659
 Zero-point vibrational energy     625417.3 (Joules/Mol)
                                  149.47833 (Kcal/Mol)
 Warning -- explicit consideration of  18 degrees of freedom as
           vibrations may cause significant error
 Vibrational temperatures:     29.68   111.16   128.53   176.93   207.75
          (Kelvin)            259.61   323.07   348.54   431.86   438.17
                              452.96   549.58   644.59   662.73   714.47
                              780.22   809.13   865.02   935.55   949.61
                              974.56  1004.98  1024.13  1132.06  1164.84
                             1204.12  1235.52  1253.92  1255.59  1290.91
                             1344.48  1381.75  1393.18  1462.00  1470.41
                             1478.56  1530.41  1544.86  1586.68  1625.57
                             1658.13  1727.92  1742.34  1775.75  1800.30
                             1827.60  1841.31  1901.79  1928.77  1945.32
                             1955.37  1961.54  1970.91  1989.79  2166.22
                             2176.28  2191.41  2195.79  2226.78  2234.67
                             2373.02  2402.99  2441.56  3385.75  4417.11
                             4423.28  4425.39  4438.78  4470.21  4492.97
                             4504.58  4514.53  4572.17  4573.05  4600.72
                             4648.36  5109.47  5251.15

 Zero-point correction=                           0.238209 (Hartree/Particle)
 Thermal correction to Energy=                    0.250888
 Thermal correction to Enthalpy=                  0.251832
 Thermal correction to Gibbs Free Energy=         0.198452
 Sum of electronic and zero-point Energies=           -575.016499
 Sum of electronic and thermal Energies=              -575.003820
 Sum of electronic and thermal Enthalpies=            -575.002875
 Sum of electronic and thermal Free Energies=         -575.056256

                     E (Thermal)             CV                S
                      KCal/Mol        Cal/Mol-Kelvin    Cal/Mol-Kelvin
 Total                  157.435             49.508            112.349
 Electronic               0.000              0.000              0.000
 Translational            0.889              2.981             41.570
 Rotational               0.889              2.981             31.583
 Vibrational            155.657             43.546             39.196
 Vibration     1          0.593              1.986              6.573
 Vibration     2          0.599              1.964              3.959
 Vibration     3          0.602              1.957              3.675
 Vibration     4          0.610              1.930              3.053
 Vibration     5          0.616              1.909              2.745
 Vibration     6          0.629              1.866              2.324
 Vibration     7          0.649              1.804              1.922
 Vibration     8          0.658              1.776              1.786
 Vibration     9          0.693              1.673              1.416
 Vibration    10          0.695              1.665              1.392
 Vibration    11          0.702              1.645              1.337
 Vibration    12          0.751              1.509              1.031
 Vibration    13          0.807              1.365              0.802
 Vibration    14          0.818              1.337              0.764
 Vibration    15          0.852              1.258              0.667
 Vibration    16          0.897              1.157              0.560
 Vibration    17          0.918              1.113              0.519
 Vibration    18          0.959              1.029              0.448

 Optimization completed.
    -- Stationary point found.
 Normal termination of Gaussian 16 at Thu Dec 10 10:39:06 2020.

 ----------------------------------------------------------------------
 # B3LYP/6-311++G(d,p) empiricaldispersion=gd3bj scf=xqc pop=npa geom=c
 heck
 ----------------------------------------------------------------------

 --------------------------------------
 CID_58067775_JID_4720_Energie_neutraal
 --------------------------------------
 Structure from the checkpoint file:  "JID_4720.chk"
 Charge =  0 Multiplicity = 1

 SCF Done:  E(RB3LYP) =  -575.412888184     A.U. after   14 cycles
 Normal termination of Gaussian 16 at Thu Dec 10 10:42:33 2020.

 ----------------------------------------------------------------------
 # B3LYP/6-311++G(d,p) empiricaldispersion=gd3bj scf=xqc pop=npa geom=c
 heck
 ----------------------------------------------------------------------

 ------------------------------------
 CID_58067775_JID_4720_Energie_kation
 ------------------------------------
 Structure from the checkpoint file:  "JID_4720.chk"
 Charge =  1 Multiplicity = 2

 SCF Done:  E(UB3LYP) =  -575.121393280     A.U. after   22 cycles
 Normal termination of Gaussian 16 at Thu Dec 10 10:50:40 2020.
 Gaussian 16:  ES64L-G16RevA.03 25-Dec-2016

 ----------------------------------------------------------------------
 # B3LYP/6-311++G(d,p) empiricaldispersion=gd3bj scf=xqc pop=npa geom=c
 heck
 ----------------------------------------------------------------------

 -----------------------------------
 CID_58067775_JID_4720_Energie_anion
 -----------------------------------
 Structure from the checkpoint file:  "JID_4720.chk"
 Charge = -1 Multiplicity = 2

                         Standard orientation:
 ---------------------------------------------------------------------
 Center     Atomic      Atomic             Coordinates (Angstroms)
 Number     Number       Type             X           Y           Z
 ---------------------------------------------------------------------
      1          6           0       -3.119057   -0.266135   -1.216286
      2          6           0       -3.399244    0.667827   -0.002006
      3          6           0       -2.017806    1.162793    0.463867
      4          6           0       -1.052924    0.006002    0.101251
      5          6           0       -1.582101   -0.377604   -1.315150
      6          6           0       -1.309428   -1.121087    1.018377
      7          7           0       -1.531650   -2.017031    1.723086
      8          6           0        0.441249    0.324956    0.104900
      9          6           0        1.340732   -0.707920   -0.173835
     10          6           0        2.721838   -0.477424   -0.222220
     11          6           0        3.196720    0.823886    0.016129
     12          6           0        2.302444    1.847831    0.301367
     13          6           0        0.926282    1.611833    0.351395
     14          7           0        3.602244   -1.508515   -0.555022
     15          1           0       -3.566376   -1.250570   -1.050926
     16          1           0       -3.542405    0.126520   -2.145499
     17          1           0       -3.885109    0.106038    0.801561
     18          1           0       -4.058448    1.502907   -0.256041
     19          1           0       -1.981212    1.431182    1.523194
     20          1           0       -1.717253    2.039574   -0.119360
     21          1           0       -1.173724    0.361294   -2.013013
     22          1           0       -1.234092   -1.362510   -1.636168
     23          1           0        0.965870   -1.714360   -0.344617
     24          1           0        4.265327    1.020957   -0.020393
     25          1           0        2.681744    2.847144    0.496474
     26          1           0        0.252046    2.424550    0.592499
     27          1           0        4.548347   -1.383939   -0.216859
     28          1           0        3.258917   -2.439713   -0.354043
 ---------------------------------------------------------------------

 SCF Done:  E(UB3LYP) =  -575.401834552     A.U. after   33 cycles
 SCF Done:  E(UB3LYP) =  -575.401834552     a.u. after    1 cycles

 The electronic state is 2-A.
 Alpha  occ. eigenvalues --  -14.21915 -14.21794 -10.13571 -10.12100 -10.11619
 Alpha  occ. eigenvalues --  -10.09773 -10.09023 -10.08925 -10.08224 -10.08077
 Alpha  occ. eigenvalues --  -10.08010 -10.07477 -10.07396 -10.07323  -0.82556
 Alpha  occ. eigenvalues --   -0.81927  -0.77637  -0.74282  -0.67806  -0.64239
 Alpha  occ. eigenvalues --   -0.63075  -0.62146  -0.53883  -0.52191  -0.50315
 Alpha  occ. eigenvalues --   -0.48280  -0.43960  -0.42129  -0.40842  -0.39076
 Alpha  occ. eigenvalues --   -0.37991  -0.36199  -0.35157  -0.33602  -0.33362
 Alpha  occ. eigenvalues --   -0.30515  -0.29239  -0.28876  -0.28084  -0.27125
 Alpha  occ. eigenvalues --   -0.26600  -0.26075  -0.25798  -0.25479  -0.24075
 Alpha  occ. eigenvalues --   -0.23180  -0.22598  -0.21574  -0.15820  -0.11712
 Alpha  occ. eigenvalues --    0.04065
 Alpha virt. eigenvalues --    0.05520   0.06990   0.07324   0.07894   0.08024
 Alpha virt. eigenvalues --    0.08284   0.09045   0.09880   0.10285   0.10835
 Alpha virt. eigenvalues --    0.11248   0.11545   0.12676   0.12816   0.13119

  Beta  occ. eigenvalues --  -14.21848 -14.21789 -10.13571 -10.12093 -10.11617
  Beta  occ. eigenvalues --  -10.09767 -10.09012 -10.08905 -10.08217 -10.08060
  Beta  occ. eigenvalues --  -10.07990 -10.07467 -10.07377 -10.07313  -0.82495
  Beta  occ. eigenvalues --   -0.81908  -0.77618  -0.74249  -0.67778  -0.64196
  Beta  occ. eigenvalues --   -0.63036  -0.62110  -0.53839  -0.52160  -0.50261
  Beta  occ. eigenvalues --   -0.48223  -0.43905  -0.42090  -0.40796  -0.39017
  Beta  occ. eigenvalues --   -0.37941  -0.36164  -0.35124  -0.33566  -0.33329
  Beta  occ. eigenvalues --   -0.30480  -0.29210  -0.28850  -0.28061  -0.27101
  Beta  occ. eigenvalues --   -0.26575  -0.26039  -0.25768  -0.25453  -0.24052
  Beta  occ. eigenvalues --   -0.23161  -0.22578  -0.21539  -0.15802  -0.11665
  Beta virt. eigenvalues --    0.06358   0.07105   0.07331   0.07543   0.08294
  Beta virt. eigenvalues --    0.08523   0.08782   0.09206   0.10355   0.10705
  Beta virt. eigenvalues --    0.11161   0.11531   0.11761   0.12815   0.12823

 Mulliken charges and spin densities:
               1          2
     1  C    0.036822  -0.505964
     2  C    0.676060  -1.186441
     3  C   -0.494571   0.313748
     4  C    1.057895   0.056401
     5  C   -0.745804   0.235833
     6  C    0.720079  -1.619764
     7  N   -0.354437   0.086902
     8  C    1.420442  -0.374285
     9  C   -0.437573  -0.263722
    10  C   -0.165047   0.126201
    11  C    0.346607  -0.278149
    12  C   -0.348283  -0.192893
    13  C   -0.496170   0.158963
    14  N   -0.230643  -0.089153
    15  H    0.130592   0.029181
    16  H   -0.321070   0.484323
    17  H    0.134648   0.033285
    18  H   -0.457506   0.637684
    19  H    0.052230   0.150753
    20  H   -0.230145   0.384049
    21  H   -0.012908   0.211598
    22  H   -0.006001   0.162808
    23  H    0.102548   0.095757
    24  H   -0.506171   0.659630
    25  H   -0.133748   0.304773
    26  H   -0.169107   0.306274
    27  H   -0.385319   0.649329
    28  H   -0.183419   0.422877
 Sum of Mulliken charges =  -1.00000   1.00000

 Dipole moment (field-independent basis, Debye):
    X=             -3.4696    Y=              0.7833    Z=              0.1839  Tot=              3.5617
 Quadrupole moment (field-independent basis, Debye-Ang):
   XX=           -173.0404   YY=           -128.3061   ZZ=           -118.0156
   XY=             14.1106   XZ=             -2.3874   YZ=              8.5570

 Summary of Natural Population Analysis:

                                       Natural Population
                Natural  -----------------------------------------------
    Atom  No    Charge         Core      Valence    Rydberg      Total
 -----------------------------------------------------------------------
      C    1   -0.19673      0.99964     2.18894    0.00815     3.19673
      C    2   -0.19444      0.99964     2.18631    0.00848     3.19444
      C    3   -0.18173      0.99962     2.17221    0.00991     3.18173
      C    4   -0.09225      0.99946     2.08012    0.01267     3.09225
      C    5   -0.17558      0.99961     2.16720    0.00877     3.17558
      C    6    0.17117      0.99962     1.80795    0.02125     2.82883
      N    7   -0.18746      0.99979     2.67563    0.01204     3.68746
      C    8   -0.00173      0.99949     1.99040    0.01184     3.00173
      C    9   -0.12166      0.99947     2.11318    0.00901     3.12166
      C   10    0.09199      0.99949     1.89694    0.01158     2.90801
      C   11   -0.12299      0.99952     2.11344    0.01003     3.12299
      C   12   -0.08601      0.99957     2.07732    0.00913     3.08601
      C   13   -0.12458      0.99950     2.11559    0.00949     3.12458
      N   14   -0.39273      0.99971     2.88266    0.01036     3.89273
      H   15    0.09919      0.00000     0.39971    0.00110     0.40081
      H   16    0.10402      0.00000     0.39470    0.00127     0.39598
      H   17    0.09888      0.00000     0.39995    0.00117     0.40112
      H   18    0.10499      0.00000     0.39342    0.00159     0.39501
      H   19    0.10630      0.00000     0.39239    0.00131     0.39370
      H   20    0.10563      0.00000     0.39240    0.00197     0.39437
      H   21    0.10546      0.00000     0.39337    0.00117     0.39454
      H   22    0.10547      0.00000     0.39332    0.00120     0.39453
      H   23    0.10151      0.00000     0.39650    0.00199     0.39849
      H   24    0.10277      0.00000     0.39586    0.00137     0.39723
      H   25    0.09971      0.00000     0.39943    0.00086     0.40029
      H   26    0.10318      0.00000     0.39526    0.00155     0.39682
      H   27    0.19064      0.00000     0.30092    0.00844     0.30936
      H   28    0.18697      0.00000     0.31001    0.00301     0.31303
 =======================================================================
   * Total *   -0.00000     13.99413    35.82514    0.18072    50.00000

 Normal termination of Gaussian 16 at Thu Dec 10 11:03:07 2020.
