 Gaussian 16, Revision A.03,

 -----------------------------------------------------------
 # opt freq B3LYP/6-31G(d) empiricaldispersion=gd3bj scf=xqc
 -----------------------------------------------------------

 -------------------------------
 CID_153176955_JID_7362_neutraal
 -------------------------------
 Symbolic Z-matrix:
 Charge =  0 Multiplicity = 1

 SCF Done:  E(RB3LYP) =  -751.411558195     A.U. after   15 cycles
 SCF Done:  E(RB3LYP) =  -751.414393114     A.U. after   12 cycles
 SCF Done:  E(RB3LYP) =  -751.414665910     A.U. after   12 cycles
 SCF Done:  E(RB3LYP) =  -751.415309664     A.U. after   12 cycles
 SCF Done:  E(RB3LYP) =  -751.415524138     A.U. after   12 cycles
 SCF Done:  E(RB3LYP) =  -751.415668959     A.U. after   12 cycles
 SCF Done:  E(RB3LYP) =  -751.415756740     A.U. after   12 cycles
 SCF Done:  E(RB3LYP) =  -751.415798787     A.U. after   11 cycles
 SCF Done:  E(RB3LYP) =  -751.415816423     A.U. after   10 cycles
 SCF Done:  E(RB3LYP) =  -751.415824597     A.U. after   10 cycles
 SCF Done:  E(RB3LYP) =  -751.415844752     A.U. after    7 cycles
 SCF Done:  E(RB3LYP) =  -751.415844804     A.U. after    7 cycles
 SCF Done:  E(RB3LYP) =  -751.415844829     A.U. after    6 cycles
 SCF Done:  E(RB3LYP) =  -751.415844848     A.U. after    7 cycles
 SCF Done:  E(RB3LYP) =  -751.415844853     A.U. after    6 cycles
 Optimization completed.
    -- Stationary point found.
 Normal termination of Gaussian 16 at Mon Dec 14 18:56:45 2020.

 --------------------------------------------------------------------
 #N Geom=AllCheck Guess=TCheck SCRF=Check GenChk RB3LYP/6-31G(d) Freq
 --------------------------------------------------------------------

 Structure from the checkpoint file:  "JID_7362.chk"
 -------------------------------
 CID_153176955_JID_7362_neutraal
 -------------------------------
 Charge =  0 Multiplicity = 1

 SCF Done:  E(RB3LYP) =  -751.415844853     A.U. after    1 cycles

  Exact polarizability: 185.889   0.994 175.235  14.391   3.999 116.107
 Approx polarizability: 261.117   1.020 267.068  31.379  12.071 170.874

                      1                      2                      3
                      A                      A                      A
 Frequencies --     17.4240                25.5022                29.3495
 Red. masses --      4.1572                 2.5416                 2.4983
 Frc consts  --      0.0007                 0.0010                 0.0013
 IR Inten    --      0.0380                 0.0182                 0.0796

                      4                      5                      6
                      A                      A                      A
 Frequencies --     37.3390                65.4287                76.1060
 Red. masses --      3.6610                 3.8446                 2.5118
 Frc consts  --      0.0030                 0.0097                 0.0086
 IR Inten    --      0.6659                 0.2771                 7.6823

                      7                      8                      9
                      A                      A                      A
 Frequencies --     93.5849               113.6565               133.1448
 Red. masses --      5.9505                 3.3156                 3.1634
 Frc consts  --      0.0307                 0.0252                 0.0330
 IR Inten    --      2.1856                 1.7202                 4.5557

                     10                     11                     12
                      A                      A                      A
 Frequencies --    155.4965               173.7513               195.8061
 Red. masses --      3.4399                 3.1505                 1.5287
 Frc consts  --      0.0490                 0.0560                 0.0345
 IR Inten    --      1.2247                 0.0855                 1.5006

                     13                     14                     15
                      A                      A                      A
 Frequencies --    203.8259               230.0684               246.1958
 Red. masses --      1.2284                 1.8816                 1.3845
 Frc consts  --      0.0301                 0.0587                 0.0494
 IR Inten    --      0.3560                 3.7993                 1.8032

                     16                     17                     18
                      A                      A                      A
 Frequencies --    299.0170               304.7229               316.4741
 Red. masses --      1.7571                 3.2119                 3.6195
 Frc consts  --      0.0926                 0.1757                 0.2136
 IR Inten    --      0.6362                 2.8569                 1.9058

                     19                     20                     21
                      A                      A                      A
 Frequencies --    334.0847               389.9970               413.5641
 Red. masses --      2.8374                 4.8193                 2.4163
 Frc consts  --      0.1866                 0.4319                 0.2435
 IR Inten    --      3.2926                 5.4818                 1.1008

                     22                     23                     24
                      A                      A                      A
 Frequencies --    426.9981               483.3233               512.3003
 Red. masses --      2.2109                 3.1847                 4.5666
 Frc consts  --      0.2375                 0.4383                 0.7061
 IR Inten    --      2.0521                 1.3125                 2.2232

                     25                     26                     27
                      A                      A                      A
 Frequencies --    532.2421               555.4285               606.4321
 Red. masses --      2.9136                 4.1643                 3.5646
 Frc consts  --      0.4863                 0.7569                 0.7724
 IR Inten    --      9.2680                 8.6102                17.5430

                     28                     29                     30
                      A                      A                      A
 Frequencies --    621.0224               643.3369               725.2410
 Red. masses --      4.3647                 3.8159                 2.4726
 Frc consts  --      0.9918                 0.9305                 0.7663
 IR Inten    --     17.2985                 0.0265                13.1390

                     31                     32                     33
                      A                      A                      A
 Frequencies --    756.8917               796.5131               803.9104
 Red. masses --      2.1149                 1.1752                 1.2369
 Frc consts  --      0.7139                 0.4393                 0.4710
 IR Inten    --     25.4386                 0.7034                14.1116

                     34                     35                     36
                      A                      A                      A
 Frequencies --    819.9103               845.2816               885.2593
 Red. masses --      2.1034                 2.5839                 2.6555
 Frc consts  --      0.8331                 1.0878                 1.2261
 IR Inten    --     66.4603                29.3712                13.2924

                     37                     38                     39
                      A                      A                      A
 Frequencies --    905.3450               907.2265               920.2153
 Red. masses --      2.4323                 1.7741                 2.2838
 Frc consts  --      1.1746                 0.8603                 1.1394
 IR Inten    --     12.6802                11.3555                 3.8856

                     40                     41                     42
                      A                      A                      A
 Frequencies --    927.0595               936.4838               990.2742
 Red. masses --      1.4088                 1.3806                 2.4755
 Frc consts  --      0.7134                 0.7134                 1.4303
 IR Inten    --      1.4142                 4.8773                 1.3213

                     43                     44                     45
                      A                      A                      A
 Frequencies --   1000.3836              1023.5213              1026.4125
 Red. masses --      3.1918                 6.1758                 2.7529
 Frc consts  --      1.8820                 3.8119                 1.7087
 IR Inten    --     29.8133                 0.5542                 0.6232

                     46                     47                     48
                      A                      A                      A
 Frequencies --   1080.8103              1093.3234              1093.7429
 Red. masses --      1.6789                 1.7749                 1.8323
 Frc consts  --      1.1555                 1.2500                 1.2915
 IR Inten    --     17.5079                10.9872                 1.1908

                     49                     50                     51
                      A                      A                      A
 Frequencies --   1104.7469              1105.4948              1139.0025
 Red. masses --      1.7075                 1.5355                 2.5935
 Frc consts  --      1.2278                 1.1056                 1.9824
 IR Inten    --     40.2733                 2.1285                14.7573

                     52                     53                     54
                      A                      A                      A
 Frequencies --   1171.2920              1174.7115              1199.0108
 Red. masses --      2.0044                 2.6312                 1.2960
 Frc consts  --      1.6202                 2.1393                 1.0977
 IR Inten    --     17.9846                68.9913                 2.6211

                     55                     56                     57
                      A                      A                      A
 Frequencies --   1201.9408              1223.8256              1269.9387
 Red. masses --      1.4157                 1.4532                 2.0877
 Frc consts  --      1.2050                 1.2823                 1.9838
 IR Inten    --      1.2670                55.9484                65.7975

                     58                     59                     60
                      A                      A                      A
 Frequencies --   1280.3544              1294.1125              1301.6590
 Red. masses --      1.4256                 1.2411                 1.7489
 Frc consts  --      1.3769                 1.2246                 1.7459
 IR Inten    --      2.0295                 0.1643                 2.0918

                     61                     62                     63
                      A                      A                      A
 Frequencies --   1311.2830              1335.6911              1364.9773
 Red. masses --      1.2080                 1.2109                 1.6821
 Frc consts  --      1.2238                 1.2728                 1.8465
 IR Inten    --     15.6023                 0.7871               100.1760

                     64                     65                     66
                      A                      A                      A
 Frequencies --   1369.0821              1373.9385              1388.9996
 Red. masses --      1.4657                 3.7396                 2.0068
 Frc consts  --      1.6187                 4.1591                 2.2812
 IR Inten    --     11.0620                 5.1415                58.2380

                     67                     68                     69
                      A                      A                      A
 Frequencies --   1420.6190              1423.3438              1434.6719
 Red. masses --      1.3273                 1.6199                 1.2213
 Frc consts  --      1.5782                 1.9335                 1.4810
 IR Inten    --     12.0435                73.1226                 0.4284

                     70                     71                     72
                      A                      A                      A
 Frequencies --   1436.6526              1485.3759              1492.6890
 Red. masses --      1.2542                 1.4548                 2.7460
 Frc consts  --      1.5251                 1.8912                 3.6048
 IR Inten    --      3.9025                18.9815                 9.0057

                     73                     74                     75
                      A                      A                      A
 Frequencies --   1502.6827              1506.1037              1513.8071
 Red. masses --      2.5482                 1.1398                 1.1929
 Frc consts  --      3.3901                 1.5234                 1.6106
 IR Inten    --      1.4266                 0.7050                24.2715

                     76                     77                     78
                      A                      A                      A
 Frequencies --   1518.8123              1518.9976              1522.9613
 Red. masses --      1.0716                 1.0987                 1.0721
 Frc consts  --      1.4564                 1.4936                 1.4650
 IR Inten    --      2.3091                 5.5520                 7.7576

                     79                     80                     81
                      A                      A                      A
 Frequencies --   1525.9398              1526.1925              1536.1525
 Red. masses --      1.0419                 1.0405                 1.0842
 Frc consts  --      1.4293                 1.4280                 1.5074
 IR Inten    --      4.0571                10.5597                 5.3462

                     82                     83                     84
                      A                      A                      A
 Frequencies --   1537.9962              1538.9941              1548.5524
 Red. masses --      1.0844                 1.0881                 1.0731
 Frc consts  --      1.5113                 1.5185                 1.5162
 IR Inten    --      1.4938                 4.3658                 1.5349

                     85                     86                     87
                      A                      A                      A
 Frequencies --   1657.2621              1659.5901              1759.1311
 Red. masses --      5.6854                 5.8166                 8.2050
 Frc consts  --      9.2002                 9.4389                14.9597
 IR Inten    --     11.1128                20.8717               259.3079

                     88                     89                     90
                      A                      A                      A
 Frequencies --   3006.0793              3022.7062              3047.3953
 Red. masses --      1.0409                 1.0546                 1.0408
 Frc consts  --      5.5419                 5.6774                 5.6949
 IR Inten    --     51.3467                41.6795                28.2542

                     91                     92                     93
                      A                      A                      A
 Frequencies --   3048.1467              3049.1643              3049.7121
 Red. masses --      1.0403                 1.0534                 1.0539
 Frc consts  --      5.6949                 5.7706                 5.7752
 IR Inten    --     23.7608                19.9514                48.4982

                     94                     95                     96
                      A                      A                      A
 Frequencies --   3062.7341              3072.4873              3083.2860
 Red. masses --      1.1031                 1.1012                 1.1038
 Frc consts  --      6.0967                 6.1249                 6.1823
 IR Inten    --     22.7229                26.6885                 5.3044

                     97                     98                     99
                      A                      A                      A
 Frequencies --   3084.2760              3089.8345              3118.8309
 Red. masses --      1.1038                 1.0702                 1.1030
 Frc consts  --      6.1868                 6.0200                 6.3213
 IR Inten    --      6.7880                54.2910                47.5090

                    100                    101                    102
                      A                      A                      A
 Frequencies --   3120.0957              3121.8162              3122.1414
 Red. masses --      1.1029                 1.1034                 1.1036
 Frc consts  --      6.3259                 6.3358                 6.3381
 IR Inten    --     53.5699                32.3689                37.2788

                    103                    104                    105
                      A                      A                      A
 Frequencies --   3138.3204              3149.1185              3165.3644
 Red. masses --      1.0999                 1.1006                 1.0895
 Frc consts  --      6.3825                 6.4304                 6.4319
 IR Inten    --     33.5664                21.2762                19.1069

                    106                    107                    108
                      A                      A                      A
 Frequencies --   3190.3192              3203.8903              3553.3856
 Red. masses --      1.0900                 1.0902                 1.0741
 Frc consts  --      6.5366                 6.5937                 7.9907
 IR Inten    --      5.6936                 2.7764                20.4761

 - Thermochemistry -
 -------------------
 Temperature   298.150 Kelvin.  Pressure   1.00000 Atm.
 Atom     1 has atomic number  6 and mass  12.00000

 Molecular mass:   235.15723 amu.
 Principal axes and moments of inertia in atomic units:
                           1         2         3
     Eigenvalues --  3226.082146296.663137664.01738
           X            0.99995   0.00912   0.00445
           Y           -0.00907   0.99989  -0.01148
           Z           -0.00455   0.01144   0.99992
 This molecule is an asymmetric top.
 Rotational symmetry number  1.
 Warning -- assumption of classical behavior for rotation
           may cause significant error
 Rotational temperatures (Kelvin)      0.02685     0.01376     0.01130
 Rotational constants (GHZ):           0.55942     0.28662     0.23548
 Zero-point vibrational energy     872969.6 (Joules/Mol)
                                  208.64474 (Kcal/Mol)
 Warning -- explicit consideration of  27 degrees of freedom as
           vibrations may cause significant error
 Vibrational temperatures:     25.07    36.69    42.23    53.72    94.14
          (Kelvin)            109.50   134.65   163.53   191.57   223.72
                              249.99   281.72   293.26   331.02   354.22
                              430.22   438.43   455.34   480.67   561.12
                              595.03   614.36   695.39   737.09   765.78
                              799.14   872.52   893.51   925.62  1043.46
                             1089.00  1146.00  1156.65  1179.67  1216.17
                             1273.69  1302.59  1305.30  1323.98  1333.83
                             1347.39  1424.78  1439.33  1472.62  1476.78
                             1555.04  1573.05  1573.65  1589.48  1590.56
                             1638.77  1685.23  1690.15  1725.11  1729.32
                             1760.81  1827.16  1842.14  1861.94  1872.80
                             1886.64  1921.76  1963.90  1969.80  1976.79
                             1998.46  2043.95  2047.87  2064.17  2067.02
                             2137.12  2147.65  2162.03  2166.95  2178.03
                             2185.23  2185.50  2191.20  2195.49  2195.85
                             2210.18  2212.83  2214.27  2228.02  2384.43
                             2387.78  2531.00  4325.08  4349.00  4384.52
                             4385.60  4387.07  4387.86  4406.59  4420.62
                             4436.16  4437.59  4445.58  4487.30  4489.12
                             4491.60  4492.07  4515.34  4530.88  4554.25
                             4590.16  4609.68  5112.53

 Zero-point correction=                           0.332497 (Hartree/Particle)
 Thermal correction to Energy=                    0.351111
 Thermal correction to Enthalpy=                  0.352055
 Thermal correction to Gibbs Free Energy=         0.282574
 Sum of electronic and zero-point Energies=           -751.083348
 Sum of electronic and thermal Energies=              -751.064734
 Sum of electronic and thermal Enthalpies=            -751.063790
 Sum of electronic and thermal Free Energies=         -751.133271

                     E (Thermal)             CV                S
                      KCal/Mol        Cal/Mol-Kelvin    Cal/Mol-Kelvin
 Total                  220.325             67.272            146.235
 Electronic               0.000              0.000              0.000
 Translational            0.889              2.981             42.267
 Rotational               0.889              2.981             33.409
 Vibrational            218.548             61.311             70.559
 Vibration     1          0.593              1.986              6.908
 Vibration     2          0.593              1.985              6.152
 Vibration     3          0.593              1.984              5.873
 Vibration     4          0.594              1.982              5.395
 Vibration     5          0.597              1.971              4.286
 Vibration     6          0.599              1.965              3.989
 Vibration     7          0.603              1.954              3.584
 Vibration     8          0.607              1.938              3.205
 Vibration     9          0.613              1.920              2.900
 Vibration    10          0.620              1.897              2.604
 Vibration    11          0.627              1.875              2.395
 Vibration    12          0.636              1.846              2.172
 Vibration    13          0.639              1.834              2.098
 Vibration    14          0.652              1.795              1.878
 Vibration    15          0.661              1.769              1.758
 Vibration    16          0.692              1.676              1.422
 Vibration    17          0.696              1.665              1.391
 Vibration    18          0.703              1.642              1.328
 Vibration    19          0.716              1.607              1.240
 Vibration    20          0.758              1.492              1.000
 Vibration    21          0.777              1.441              0.914
 Vibration    22          0.789              1.411              0.869
 Vibration    23          0.839              1.287              0.701
 Vibration    24          0.867              1.223              0.628
 Vibration    25          0.887              1.179              0.582
 Vibration    26          0.911              1.128              0.533
 Vibration    27          0.965              1.018              0.439

                           ! Non-Optimized Parameters !
 Normal termination of Gaussian 16 at Mon Dec 14 19:10:01 2020.

 ----------------------------------------------------------------------
 # B3LYP/6-311++G(d,p) empiricaldispersion=gd3bj scf=xqc pop=npa geom=c
 heck
 ----------------------------------------------------------------------

 ---------------------------------------
 CID_153176955_JID_7362_Energie_neutraal
 ---------------------------------------
 Structure from the checkpoint file:  "JID_7362.chk"
 Charge =  0 Multiplicity = 1

 SCF Done:  E(RB3LYP) =  -751.626703184     A.U. after   16 cycles
 Normal termination of Gaussian 16 at Mon Dec 14 19:17:30 2020.

 ----------------------------------------------------------------------
 # B3LYP/6-311++G(d,p) empiricaldispersion=gd3bj scf=xqc pop=npa geom=c
 heck
 ----------------------------------------------------------------------

 -------------------------------------
 CID_153176955_JID_7362_Energie_kation
 -------------------------------------
 Structure from the checkpoint file:  "JID_7362.chk"
 Charge =  1 Multiplicity = 2

 SCF Done:  E(UB3LYP) =  -751.319532617     A.U. after   29 cycles
 Normal termination of Gaussian 16 at Mon Dec 14 19:36:36 2020.
 Gaussian 16:  ES64L-G16RevA.03 25-Dec-2016

 ----------------------------------------------------------------------
 # B3LYP/6-311++G(d,p) empiricaldispersion=gd3bj scf=xqc pop=npa geom=c
 heck
 ----------------------------------------------------------------------

 ------------------------------------
 CID_153176955_JID_7362_Energie_anion
 ------------------------------------
 Structure from the checkpoint file:  "JID_7362.chk"
 Charge = -1 Multiplicity = 2

                         Standard orientation:
 ---------------------------------------------------------------------
 Center     Atomic      Atomic             Coordinates (Angstroms)
 Number     Number       Type             X           Y           Z
 ---------------------------------------------------------------------
      1          6           0       -2.806629   -2.940174   -1.200723
      2          6           0       -2.974989   -2.353524    0.210479
      3          6           0       -2.172468   -1.086278    0.397199
      4          6           0       -2.742165    0.167970    0.153878
      5          6           0       -2.011435    1.353285    0.297133
      6          6           0       -0.673867    1.267036    0.689046
      7          6           0       -0.072618    0.024456    0.909686
      8          6           0       -0.827159   -1.145540    0.771741
      9          6           0        1.356001    0.006190    1.356308
     10          8           0        1.800510    0.863297    2.115255
     11          7           0        2.150103   -1.033734    0.906489
     12          6           0        2.122983   -1.528892   -0.471178
     13          6           0        2.707951   -0.512969   -1.454477
     14          8           0        4.031898   -0.171617   -1.070972
     15          6           0        4.190990    1.172909   -0.641989
     16          6           0       -2.640937    2.692679   -0.009175
     17          6           0       -2.437120    3.103621   -1.476692
     18          1           0       -3.131808   -2.222022   -1.961613
     19          1           0       -3.394703   -3.856848   -1.320546
     20          1           0       -1.755897   -3.180615   -1.398956
     21          1           0       -4.036368   -2.148850    0.395134
     22          1           0       -2.664391   -3.099122    0.952628
     23          1           0       -3.788511    0.224450   -0.141812
     24          1           0       -0.082718    2.165500    0.840001
     25          1           0       -0.370388   -2.106872    0.991159
     26          1           0        3.099176   -0.909810    1.247433
     27          1           0        2.712857   -2.450460   -0.500753
     28          1           0        1.099925   -1.777005   -0.759902
     29          1           0        2.734461   -0.946139   -2.464095
     30          1           0        2.064725    0.377784   -1.486483
     31          1           0        3.946069    1.883159   -1.446181
     32          1           0        3.574663    1.403626    0.237538
     33          1           0        5.245250    1.292590   -0.378773
     34          1           0       -3.714479    2.655031    0.212410
     35          1           0       -2.209992    3.459272    0.645912
     36          1           0       -2.881239    2.364715   -2.153085
     37          1           0       -2.897809    4.076364   -1.681742
     38          1           0       -1.370033    3.173333   -1.715381
 ---------------------------------------------------------------------

 SCF Done:  E(UB3LYP) =  -751.622755890     A.U. after   33 cycles
 SCF Done:  E(UB3LYP) =  -751.622755890     a.u. after    1 cycles

 The electronic state is 2-A.
 Alpha  occ. eigenvalues --  -19.03356 -18.96012 -14.21186 -10.13506 -10.12184
 Alpha  occ. eigenvalues --  -10.11795 -10.10293 -10.06551 -10.06435 -10.05964
 Alpha  occ. eigenvalues --  -10.05913 -10.05748 -10.05562 -10.04634 -10.04542
 Alpha  occ. eigenvalues --  -10.04242 -10.03673  -0.94435  -0.91104  -0.80287
 Alpha  occ. eigenvalues --   -0.74109  -0.68671  -0.66620  -0.65656  -0.61921
 Alpha  occ. eigenvalues --   -0.60450  -0.58576  -0.52900  -0.52579  -0.52240
 Alpha  occ. eigenvalues --   -0.50631  -0.45101  -0.43767  -0.40279  -0.39533
 Alpha  occ. eigenvalues --   -0.38209  -0.37852  -0.36802  -0.35275  -0.35189
 Alpha  occ. eigenvalues --   -0.33965  -0.32684  -0.32398  -0.31829  -0.30665
 Alpha  occ. eigenvalues --   -0.29432  -0.28733  -0.28430  -0.28182  -0.28005
 Alpha  occ. eigenvalues --   -0.26583  -0.26247  -0.26139  -0.24825  -0.23704
 Alpha  occ. eigenvalues --   -0.23000  -0.22456  -0.21952  -0.21077  -0.17480
 Alpha  occ. eigenvalues --   -0.15100  -0.13529  -0.12684  -0.12138   0.04394
 Alpha virt. eigenvalues --    0.06642   0.06900   0.07105   0.08109   0.08627
 Alpha virt. eigenvalues --    0.09158   0.09610   0.10020   0.10526   0.10906
 Alpha virt. eigenvalues --    0.11192   0.11412   0.11791   0.12758   0.12823

  Beta  occ. eigenvalues --  -19.03355 -18.95834 -14.21173 -10.13335 -10.12178
  Beta  occ. eigenvalues --  -10.11784 -10.10280 -10.06541 -10.06428 -10.05940
  Beta  occ. eigenvalues --  -10.05893 -10.05784 -10.05585 -10.04546 -10.04403
  Beta  occ. eigenvalues --  -10.04164 -10.03412  -0.94429  -0.90772  -0.80161
  Beta  occ. eigenvalues --   -0.73900  -0.68615  -0.66460  -0.65619  -0.61605
  Beta  occ. eigenvalues --   -0.60310  -0.58533  -0.52690  -0.52477  -0.52121
  Beta  occ. eigenvalues --   -0.50360  -0.45037  -0.43631  -0.40222  -0.39474
  Beta  occ. eigenvalues --   -0.38116  -0.37787  -0.36703  -0.35207  -0.35016
  Beta  occ. eigenvalues --   -0.33890  -0.32608  -0.32296  -0.31766  -0.30507
  Beta  occ. eigenvalues --   -0.29314  -0.28584  -0.28310  -0.27963  -0.27922
  Beta  occ. eigenvalues --   -0.26224  -0.26092  -0.26049  -0.24774  -0.23651
  Beta  occ. eigenvalues --   -0.22985  -0.22121  -0.21643  -0.21009  -0.17356
  Beta  occ. eigenvalues --   -0.14767  -0.13065  -0.11947  -0.11429
  Beta virt. eigenvalues --    0.06571   0.07142   0.07314   0.08151   0.08594
  Beta virt. eigenvalues --    0.08945   0.09466   0.09584   0.10041   0.10660
  Beta virt. eigenvalues --    0.11007   0.11254   0.11433   0.11833   0.12749

 Mulliken charges and spin densities:
               1          2
     1  C    0.256233  -0.865666
     2  C   -0.725203   0.299034
     3  C    0.605758   0.194578
     4  C   -0.911699   0.231810
     5  C    0.624646   0.157818
     6  C   -0.349593  -0.084394
     7  C    1.288365  -0.373883
     8  C   -0.509530  -0.123767
     9  C   -0.356129  -0.076359
    10  O   -0.343935   0.066453
    11  N   -0.159275   0.005987
    12  C   -0.051861  -0.007104
    13  C   -0.497962  -0.013889
    14  O   -0.142880   0.008520
    15  C   -0.066085  -0.236056
    16  C   -0.721089   0.327059
    17  C    0.085058  -0.710585
    18  H    0.068693   0.064193
    19  H   -0.230736   0.345838
    20  H   -0.135827   0.281449
    21  H   -0.177004   0.324209
    22  H    0.120948   0.014085
    23  H    0.080087   0.047754
    24  H    0.181943   0.010964
    25  H    0.189567  -0.008177
    26  H    0.312702  -0.004832
    27  H    0.170905   0.001124
    28  H    0.180051  -0.091242
    29  H   -0.117245   0.286985
    30  H    0.279049  -0.128770
    31  H   -0.045992   0.161949
    32  H    0.121343   0.077275
    33  H    0.106726   0.022429
    34  H   -0.117129   0.259904
    35  H    0.129304   0.008015
    36  H    0.061245   0.072132
    37  H   -0.118007   0.228740
    38  H   -0.085439   0.226419
 Sum of Mulliken charges =  -1.00000   1.00000

 Dipole moment (field-independent basis, Debye):
    X=              2.9269    Y=             -0.9667    Z=             -0.8256  Tot=              3.1910
 Quadrupole moment (field-independent basis, Debye-Ang):
   XX=           -162.9849   YY=           -142.9498   ZZ=           -138.9440
   XY=             -4.9741   XZ=             -4.7408   YZ=             -4.0753

 Summary of Natural Population Analysis:

                                       Natural Population
                Natural  -----------------------------------------------
    Atom  No    Charge         Core      Valence    Rydberg      Total
 -----------------------------------------------------------------------
      C    1   -0.28047      0.99966     2.27629    0.00452     3.28047
      C    2   -0.19501      0.99961     2.18585    0.00954     3.19501
      C    3   -0.02437      0.99951     2.01526    0.00960     3.02437
      C    4   -0.05403      0.99946     2.04574    0.00883     3.05403
      C    5   -0.02203      0.99951     2.01281    0.00971     3.02203
      C    6   -0.07285      0.99948     2.06446    0.00891     3.07285
      C    7   -0.04671      0.99946     2.03702    0.01023     3.04671
      C    8   -0.08558      0.99948     2.07757    0.00853     3.08558
      C    9    0.35851      0.99961     1.61698    0.02490     2.64149
      O   10   -0.31009      0.99988     3.30482    0.00538     4.31009
      N   11   -0.32868      0.99969     2.81898    0.01001     3.82868
      C   12   -0.10042      0.99962     2.08929    0.01151     3.10042
      C   13   -0.01804      0.99958     2.00566    0.01281     3.01804
      O   14   -0.30852      0.99989     3.29888    0.00975     4.30852
      C   15   -0.10133      0.99961     2.09343    0.00829     3.10133
      C   16   -0.19509      0.99961     2.18631    0.00918     3.19509
      C   17   -0.27899      0.99966     2.27532    0.00401     3.27899
      H   18    0.09716      0.00000     0.40181    0.00103     0.40284
      H   19    0.09395      0.00000     0.40481    0.00124     0.40605
      H   20    0.09671      0.00000     0.40221    0.00107     0.40329
      H   21    0.09767      0.00000     0.40122    0.00111     0.40233
      H   22    0.09532      0.00000     0.40375    0.00094     0.40468
      H   23    0.08993      0.00000     0.40864    0.00143     0.41007
      H   24    0.10267      0.00000     0.39621    0.00113     0.39733
      H   25    0.09736      0.00000     0.40153    0.00111     0.40264
      H   26    0.18689      0.00000     0.31111    0.00200     0.31311
      H   27    0.09151      0.00000     0.40747    0.00101     0.40849
      H   28    0.10761      0.00000     0.39117    0.00122     0.39239
      H   29    0.08466      0.00000     0.41398    0.00135     0.41534
      H   30    0.08668      0.00000     0.41152    0.00180     0.41332
      H   31    0.07607      0.00000     0.42247    0.00146     0.42393
      H   32    0.09451      0.00000     0.40386    0.00163     0.40549
      H   33    0.08516      0.00000     0.41385    0.00099     0.41484
      H   34    0.09646      0.00000     0.40246    0.00108     0.40354
      H   35    0.09646      0.00000     0.40255    0.00099     0.40354
      H   36    0.09637      0.00000     0.40243    0.00120     0.40363
      H   37    0.09263      0.00000     0.40610    0.00127     0.40737
      H   38    0.09792      0.00000     0.40084    0.00123     0.40208
 =======================================================================
   * Total *    0.00000     16.99332    46.81467    0.19201    64.00000

 Normal termination of Gaussian 16 at Mon Dec 14 19:58:00 2020.
