 Gaussian 16, Revision A.03,

 -----------------------------------------------------------
 # opt freq B3LYP/6-31G(d) empiricaldispersion=gd3bj scf=xqc
 -----------------------------------------------------------

 -----------------------------
 CID_6485393_JID_5291_neutraal
 -----------------------------
 Symbolic Z-matrix:
 Charge =  0 Multiplicity = 1

 SCF Done:  E(RB3LYP) =  -738.288614499     A.U. after   15 cycles
 SCF Done:  E(RB3LYP) =  -738.292850798     A.U. after   13 cycles
 SCF Done:  E(RB3LYP) =  -738.293521573     A.U. after   12 cycles
 SCF Done:  E(RB3LYP) =  -738.293715827     A.U. after   12 cycles
 SCF Done:  E(RB3LYP) =  -738.293849935     A.U. after   12 cycles
 SCF Done:  E(RB3LYP) =  -738.293973199     A.U. after   12 cycles
 SCF Done:  E(RB3LYP) =  -738.294030983     A.U. after   12 cycles
 SCF Done:  E(RB3LYP) =  -738.294100686     A.U. after   12 cycles
 SCF Done:  E(RB3LYP) =  -738.294115616     A.U. after   11 cycles
 SCF Done:  E(RB3LYP) =  -738.294118849     A.U. after   10 cycles
 SCF Done:  E(RB3LYP) =  -738.294119575     A.U. after    9 cycles
 SCF Done:  E(RB3LYP) =  -738.294119681     A.U. after    8 cycles
 Optimization completed.
    -- Stationary point found.
 Normal termination of Gaussian 16 at Thu Dec 10 15:18:49 2020.

 --------------------------------------------------------------------
 #N Geom=AllCheck Guess=TCheck SCRF=Check GenChk RB3LYP/6-31G(d) Freq
 --------------------------------------------------------------------

 Structure from the checkpoint file:  "JID_5291.chk"
 -----------------------------
 CID_6485393_JID_5291_neutraal
 -----------------------------
 Charge =  0 Multiplicity = 1

 SCF Done:  E(RB3LYP) =  -738.294119681     A.U. after    1 cycles

  Exact polarizability: 191.817  -3.042 119.611  -0.038  -0.001  56.052
 Approx polarizability: 263.457  11.922 211.816  -0.019  -0.029  86.585

                      1                      2                      3
                      A                      A                      A
 Frequencies --     22.5622                35.2976                55.5571
 Red. masses --      4.8232                 1.1296                10.2906
 Frc consts  --      0.0014                 0.0008                 0.0187
 IR Inten    --      5.2460                 0.0089                 0.1688

                      4                      5                      6
                      A                      A                      A
 Frequencies --     82.2408                92.8012               159.8773
 Red. masses --      5.6157                 4.6014                 3.3076
 Frc consts  --      0.0224                 0.0233                 0.0498
 IR Inten    --      2.7867                 0.9344                 3.6415

                      7                      8                      9
                      A                      A                      A
 Frequencies --    182.0169               197.4885               207.0260
 Red. masses --      5.9583                 2.2046                 1.4380
 Frc consts  --      0.1163                 0.0507                 0.0363
 IR Inten    --      0.0271                 3.2971                 2.2059

                     10                     11                     12
                      A                      A                      A
 Frequencies --    249.9457               278.9557               305.1852
 Red. masses --      3.4927                 3.6450                 5.2000
 Frc consts  --      0.1286                 0.1671                 0.2854
 IR Inten    --      3.1581                 1.3790                 2.2391

                     13                     14                     15
                      A                      A                      A
 Frequencies --    351.7114               390.0236               457.5284
 Red. masses --      4.2888                 6.5092                 7.5672
 Frc consts  --      0.3126                 0.5834                 0.9333
 IR Inten    --      3.0155                 0.2276                 4.7694

                     16                     17                     18
                      A                      A                      A
 Frequencies --    512.3243               559.9100               561.1890
 Red. masses --      5.2640                 1.7950                 4.4119
 Frc consts  --      0.8141                 0.3316                 0.8186
 IR Inten    --      4.8675                44.4989                 5.1720

                     19                     20                     21
                      A                      A                      A
 Frequencies --    631.2390               639.4775               642.6224
 Red. masses --      5.1433                 2.6875                 4.3980
 Frc consts  --      1.2075                 0.6475                 1.0701
 IR Inten    --      4.1808                55.6235                 8.7114

                     22                     23                     24
                      A                      A                      A
 Frequencies --    680.4640               703.1512               729.2660
 Red. masses --      4.7316                 4.0592                 3.0586
 Frc consts  --      1.2908                 1.1825                 0.9584
 IR Inten    --      2.1862                66.8997                11.6345

                     25                     26                     27
                      A                      A                      A
 Frequencies --    768.8410               771.8310               822.4785
 Red. masses --      5.5241                 4.2140                 1.4737
 Frc consts  --      1.9239                 1.4791                 0.5874
 IR Inten    --     38.0264                 1.9935                17.4071

                     28                     29                     30
                      A                      A                      A
 Frequencies --    847.4568               967.4744               971.5884
 Red. masses --      1.5990                 7.6080                 9.0296
 Frc consts  --      0.6766                 4.1956                 5.0221
 IR Inten    --      7.0214                45.5885                22.6656

                     31                     32                     33
                      A                      A                      A
 Frequencies --   1016.0972              1027.7024              1039.2507
 Red. masses --      7.8828                 1.8511                 4.3299
 Frc consts  --      4.7951                 1.1519                 2.7553
 IR Inten    --      3.6443                10.9349                 5.3140

                     34                     35                     36
                      A                      A                      A
 Frequencies --   1079.7857              1089.6513              1094.4132
 Red. masses --      1.4830                 1.6886                 1.6272
 Frc consts  --      1.0187                 1.1813                 1.1483
 IR Inten    --      1.5962                 7.6813                43.1961

                     37                     38                     39
                      A                      A                      A
 Frequencies --   1156.3750              1162.5108              1194.9867
 Red. masses --      4.2154                 1.3074                 1.7048
 Frc consts  --      3.3211                 1.0410                 1.4343
 IR Inten    --    192.8751                 0.0781                46.1581

                     40                     41                     42
                      A                      A                      A
 Frequencies --   1199.5292              1296.2039              1334.2158
 Red. masses --      2.7639                 3.4562                 3.4139
 Frc consts  --      2.3432                 3.4214                 3.5806
 IR Inten    --    151.9319                28.3840                 3.9477

                     43                     44                     45
                      A                      A                      A
 Frequencies --   1380.3362              1399.7756              1424.7623
 Red. masses --      3.7320                 4.9657                 1.8834
 Frc consts  --      4.1895                 5.7326                 2.2526
 IR Inten    --    103.7403                19.7089                34.0534

                     46                     47                     48
                      A                      A                      A
 Frequencies --   1442.1903              1457.9469              1476.9787
 Red. masses --      2.5443                 4.3695                 1.3701
 Frc consts  --      3.1179                 5.4722                 1.7610
 IR Inten    --      7.5091                45.6650                38.7682

                     49                     50                     51
                      A                      A                      A
 Frequencies --   1503.1248              1513.1059              1515.6272
 Red. masses --      1.0421                 2.1629                 1.0441
 Frc consts  --      1.3872                 2.9176                 1.4131
 IR Inten    --      7.3280                 4.1412                 8.0020

                     52                     53                     54
                      A                      A                      A
 Frequencies --   1520.6514              1549.4164              1560.3792
 Red. masses --      1.3013                 2.1763                 2.2023
 Frc consts  --      1.7729                 3.0783                 3.1593
 IR Inten    --      7.2772                19.5214                 0.2493

                     55                     56                     57
                      A                      A                      A
 Frequencies --   1624.6679              1642.9538              1847.6708
 Red. masses --      6.9195                 7.8148                10.2959
 Frc consts  --     10.7610                12.4285                20.7092
 IR Inten    --    111.7117               117.4283               358.8634

                     58                     59                     60
                      A                      A                      A
 Frequencies --   3047.4442              3075.3249              3098.7356
 Red. masses --      1.0387                 1.0321                 1.1014
 Frc consts  --      5.6836                 5.7514                 6.2309
 IR Inten    --     22.3027                48.9456                16.5720

                     61                     62                     63
                      A                      A                      A
 Frequencies --   3144.2818              3149.5289              3170.9954
 Red. masses --      1.1063                 1.0991                 1.1050
 Frc consts  --      6.4441                 6.4236                 6.5464
 IR Inten    --     12.8898                10.8569                 8.1456

                     64                     65                     66
                      A                      A                      A
 Frequencies --   3288.8012              3325.1852              3697.6060
 Red. masses --      1.0983                 1.0980                 1.0642
 Frc consts  --      6.9992                 7.1528                 8.5723
 IR Inten    --      0.4938                 0.8732                92.4200

 - Thermochemistry -
 -------------------
 Temperature   298.150 Kelvin.  Pressure   1.00000 Atm.
 Atom     1 has atomic number  6 and mass  12.00000

 Molecular mass:   207.06439 amu.
 Principal axes and moments of inertia in atomic units:
                           1         2         3
     Eigenvalues --  1056.258276422.207257455.77439
           X            0.99993  -0.01209  -0.00003
           Y            0.01209   0.99993   0.00003
           Z            0.00003  -0.00003   1.00000
 This molecule is an asymmetric top.
 Rotational symmetry number  1.
 Warning -- assumption of classical behavior for rotation
           may cause significant error
 Rotational temperatures (Kelvin)      0.08200     0.01349     0.01162
 Rotational constants (GHZ):           1.70862     0.28102     0.24206
 Zero-point vibrational energy     475071.4 (Joules/Mol)
                                  113.54480 (Kcal/Mol)
 Warning -- explicit consideration of  18 degrees of freedom as
           vibrations may cause significant error
 Vibrational temperatures:     32.46    50.79    79.93   118.33   133.52
          (Kelvin)            230.03   261.88   284.14   297.86   359.62
                              401.35   439.09   506.03   561.16   658.28
                              737.12   805.59   807.43   908.21   920.07
                              924.59   979.04  1011.68  1049.25  1106.19
                             1110.49  1183.36  1219.30  1391.98  1397.90
                             1461.94  1478.63  1495.25  1553.57  1567.77
                             1574.62  1663.77  1672.59  1719.32  1725.86
                             1864.95  1919.64  1986.00  2013.96  2049.92
                             2074.99  2097.66  2125.04  2162.66  2177.02
                             2180.65  2187.88  2229.26  2245.04  2337.53
                             2363.84  2658.39  4384.59  4424.71  4458.39
                             4523.92  4531.47  4562.36  4731.85  4784.20
                             5320.03

 Zero-point correction=                           0.180945 (Hartree/Particle)
 Thermal correction to Energy=                    0.194569
 Thermal correction to Enthalpy=                  0.195513
 Thermal correction to Gibbs Free Energy=         0.138286
 Sum of electronic and zero-point Energies=           -738.113175
 Sum of electronic and thermal Energies=              -738.099551
 Sum of electronic and thermal Enthalpies=            -738.098607
 Sum of electronic and thermal Free Energies=         -738.155834

                     E (Thermal)             CV                S
                      KCal/Mol        Cal/Mol-Kelvin    Cal/Mol-Kelvin
 Total                  122.094             49.168            120.444
 Electronic               0.000              0.000              0.000
 Translational            0.889              2.981             41.888
 Rotational               0.889              2.981             32.292
 Vibrational            120.316             43.206             46.265
 Vibration     1          0.593              1.985              6.395
 Vibration     2          0.594              1.982              5.507
 Vibration     3          0.596              1.975              4.609
 Vibration     4          0.600              1.961              3.837
 Vibration     5          0.602              1.954              3.600
 Vibration     6          0.622              1.891              2.551
 Vibration     7          0.630              1.864              2.308
 Vibration     8          0.637              1.843              2.156
 Vibration     9          0.641              1.830              2.070
 Vibration    10          0.663              1.763              1.731
 Vibration    11          0.679              1.712              1.540
 Vibration    12          0.696              1.664              1.388
 Vibration    13          0.728              1.572              1.159
 Vibration    14          0.758              1.492              1.000
 Vibration    15          0.816              1.344              0.773
 Vibration    16          0.867              1.223              0.628
 Vibration    17          0.916              1.118              0.524
 Vibration    18          0.917              1.115              0.521

                           ! Non-Optimized Parameters !
 Normal termination of Gaussian 16 at Thu Dec 10 15:25:30 2020.

 ----------------------------------------------------------------------
 # B3LYP/6-311++G(d,p) empiricaldispersion=gd3bj scf=xqc pop=npa geom=c
 heck
 ----------------------------------------------------------------------

 -------------------------------------
 CID_6485393_JID_5291_Energie_neutraal
 -------------------------------------
 Structure from the checkpoint file:  "JID_5291.chk"
 Charge =  0 Multiplicity = 1

 SCF Done:  E(RB3LYP) =  -738.502344376     A.U. after   15 cycles
 Normal termination of Gaussian 16 at Thu Dec 10 15:28:38 2020.

 ----------------------------------------------------------------------
 # B3LYP/6-311++G(d,p) empiricaldispersion=gd3bj scf=xqc pop=npa geom=c
 heck
 ----------------------------------------------------------------------

 -----------------------------------
 CID_6485393_JID_5291_Energie_kation
 -----------------------------------
 Structure from the checkpoint file:  "JID_5291.chk"
 Charge =  1 Multiplicity = 2

 SCF Done:  E(UB3LYP) =  -738.191331560     A.U. after   26 cycles
 Normal termination of Gaussian 16 at Thu Dec 10 15:35:51 2020.
 Gaussian 16:  ES64L-G16RevA.03 25-Dec-2016

 ----------------------------------------------------------------------
 # B3LYP/6-311++G(d,p) empiricaldispersion=gd3bj scf=xqc pop=npa geom=c
 heck
 ----------------------------------------------------------------------

 ----------------------------------
 CID_6485393_JID_5291_Energie_anion
 ----------------------------------
 Structure from the checkpoint file:  "JID_5291.chk"
 Charge = -1 Multiplicity = 2

                         Standard orientation:
 ---------------------------------------------------------------------
 Center     Atomic      Atomic             Coordinates (Angstroms)
 Number     Number       Type             X           Y           Z
 ---------------------------------------------------------------------
      1          6           0        1.426019    2.519912    0.000425
      2          6           0        1.981523    1.130387    0.000272
      3          7           0        3.301816    0.943464    0.000610
      4          7           0        3.474627   -0.401594    0.001322
      5          6           0        2.303149   -1.072897    0.000794
      6          6           0        1.293038   -0.118381    0.000423
      7          6           0       -0.134845   -0.382700    0.000683
      8          7           0       -0.585840   -1.631495    0.001879
      9          8           0       -1.970996   -1.551049    0.001552
     10          6           0       -2.330570   -0.251510    0.000260
     11          6           0       -1.223303    0.543183   -0.000506
     12          6           0       -3.773607    0.045275   -0.000811
     13          8           0       -4.659152   -0.778115   -0.002300
     14          8           0       -3.984731    1.385219    0.000070
     15          6           0        4.817681   -0.945225   -0.003133
     16          1           0        2.248939    3.238525    0.001562
     17          1           0        0.806895    2.707548   -0.885104
     18          1           0        0.805137    2.706674    0.884886
     19          1           0        2.250284   -2.151446    0.001135
     20          1           0       -1.195409    1.619762   -0.001567
     21          1           0       -4.952924    1.503005   -0.001071
     22          1           0        5.347637   -0.625565   -0.904577
     23          1           0        5.364089   -0.593107    0.875828
     24          1           0        4.755658   -2.034720    0.017198
 ---------------------------------------------------------------------

 SCF Done:  E(UB3LYP) =  -738.519979807     A.U. after   31 cycles

 The electronic state is 2-A.
 Alpha  occ. eigenvalues --  -19.02342 -19.01702 -18.93959 -14.27875 -14.21407
 Alpha  occ. eigenvalues --  -14.17614 -10.12664 -10.12501 -10.08554 -10.08531
 Alpha  occ. eigenvalues --  -10.06402 -10.05900 -10.05368 -10.05292 -10.01619
 Alpha  occ. eigenvalues --   -0.97366  -0.95060  -0.94036  -0.85888  -0.74695
 Alpha  occ. eigenvalues --   -0.71530  -0.66525  -0.64364  -0.63244  -0.57475
 Alpha  occ. eigenvalues --   -0.51989  -0.50258  -0.46087  -0.43943  -0.42210
 Alpha  occ. eigenvalues --   -0.38979  -0.38271  -0.37175  -0.33934  -0.33134
 Alpha  occ. eigenvalues --   -0.32868  -0.32504  -0.31781  -0.30763  -0.29367
 Alpha  occ. eigenvalues --   -0.28612  -0.28036  -0.27540  -0.26350  -0.24685
 Alpha  occ. eigenvalues --   -0.22330  -0.18577  -0.18486  -0.17491  -0.14337
 Alpha  occ. eigenvalues --   -0.14226  -0.12537  -0.11528  -0.09900   0.04641
 Alpha virt. eigenvalues --    0.06413   0.08779   0.09276   0.09661   0.09990
 Alpha virt. eigenvalues --    0.11832   0.11983   0.12276   0.12673   0.13852
 Alpha virt. eigenvalues --    0.14728   0.15267   0.15871   0.16203   0.16798

  Beta  occ. eigenvalues --  -19.01863 -19.01612 -18.93593 -14.27825 -14.21419
  Beta  occ. eigenvalues --  -14.17033 -10.12666 -10.12200 -10.08544 -10.08496
  Beta  occ. eigenvalues --  -10.06397 -10.05685 -10.05423 -10.05280 -10.01542
  Beta  occ. eigenvalues --   -0.96571  -0.94676  -0.93986  -0.85334  -0.74659
  Beta  occ. eigenvalues --   -0.71080  -0.66265  -0.64101  -0.62881  -0.57414
  Beta  occ. eigenvalues --   -0.51204  -0.50139  -0.45916  -0.43886  -0.41962
  Beta  occ. eigenvalues --   -0.38764  -0.38180  -0.36904  -0.33859  -0.33095
  Beta  occ. eigenvalues --   -0.32480  -0.32305  -0.30511  -0.30131  -0.29290
  Beta  occ. eigenvalues --   -0.28250  -0.27413  -0.26711  -0.26268  -0.24408
  Beta  occ. eigenvalues --   -0.21939  -0.18555  -0.17498  -0.16043  -0.14090
  Beta  occ. eigenvalues --   -0.13590  -0.12168  -0.09952  -0.07978
  Beta virt. eigenvalues --    0.06357   0.08734   0.09268   0.09627   0.09947
  Beta virt. eigenvalues --    0.11312   0.11777   0.12256   0.12430   0.13447
  Beta virt. eigenvalues --    0.14130   0.14657   0.15219   0.15827   0.16640

 Mulliken charges and spin densities:
               1          2
     1  C   -0.628332  -0.017636
     2  C   -0.628911  -0.012608
     3  N   -0.184434  -0.001750
     4  N    0.139346   0.002425
     5  C    0.634942   0.084552
     6  C    0.192801  -0.019767
     7  C   -1.044727  -0.066254
     8  N   -0.507875   0.288340
     9  O    0.198426   0.104656
    10  C   -0.399057   0.100139
    11  C    0.124510   0.144270
    12  C    0.532114   0.232686
    13  O   -0.417624   0.126944
    14  O   -0.221504   0.017027
    15  C   -0.328781  -0.000927
    16  H    0.150544  -0.000584
    17  H    0.148497   0.010414
    18  H    0.147873   0.011121
    19  H    0.211704  -0.006356
    20  H    0.171534  -0.006237
    21  H    0.266103  -0.001121
    22  H    0.154153   0.007048
    23  H    0.157021   0.003656
    24  H    0.131676  -0.000038
 Sum of Mulliken charges =  -1.00000   1.00000

 Dipole moment (field-independent basis, Debye):
    X=              8.3979    Y=              3.1253    Z=              0.0122  Tot=              8.9606
 Quadrupole moment (field-independent basis, Debye-Ang):
   XX=           -133.1081   YY=           -101.3483   ZZ=            -93.2877
   XY=            -23.1537   XZ=              0.0750   YZ=             -0.0272

 Summary of Natural Population Analysis:

                                       Natural Population
                Natural  -----------------------------------------------
    Atom  No    Charge         Core      Valence    Rydberg      Total
 -----------------------------------------------------------------------
      C    1   -0.29906      0.99963     2.29491    0.00452     3.29906
      C    2    0.08013      0.99958     1.90725    0.01304     2.91987
      N    3   -0.17831      0.99969     2.66624    0.01238     3.67831
      N    4   -0.10510      0.99966     2.59416    0.01128     3.60510
      C    5    0.01752      0.99954     1.97290    0.01005     2.98248
      C    6   -0.07787      0.99947     2.06837    0.01003     3.07787
      C    7    0.04059      0.99943     1.94638    0.01360     2.95941
      N    8   -0.00989      0.99968     2.49361    0.01661     3.50989
      O    9   -0.11152      0.99985     3.10103    0.01063     4.11152
      C   10    0.14295      0.99944     1.84310    0.01451     2.85705
      C   11   -0.14409      0.99945     2.13643    0.00822     3.14409
      C   12    0.41220      0.99968     1.56481    0.02331     2.58780
      O   13   -0.28525      0.99987     3.27848    0.00690     4.28525
      O   14   -0.35277      0.99988     3.34509    0.00780     4.35277
      C   15   -0.16959      0.99966     2.16324    0.00669     3.16959
      H   16    0.10294      0.00000     0.39597    0.00109     0.39706
      H   17    0.10454      0.00000     0.39435    0.00111     0.39546
      H   18    0.10457      0.00000     0.39432    0.00111     0.39543
      H   19    0.10694      0.00000     0.39202    0.00104     0.39306
      H   20    0.10564      0.00000     0.39344    0.00092     0.39436
      H   21    0.22616      0.00000     0.26838    0.00546     0.27384
      H   22    0.09599      0.00000     0.40278    0.00122     0.40401
      H   23    0.09642      0.00000     0.40237    0.00121     0.40358
      H   24    0.09691      0.00000     0.40230    0.00079     0.40309
 =======================================================================
   * Total *    0.00005     14.99449    38.82194    0.18352    53.99995

 Normal termination of Gaussian 16 at Thu Dec 10 15:44:33 2020.
