 Gaussian 16, Revision A.03,

 -----------------------------------------------------------
 # opt freq B3LYP/6-31G(d) empiricaldispersion=gd3bj scf=xqc
 -----------------------------------------------------------

 ------------------------------
 CID_11789055_JID_6798_neutraal
 ------------------------------
 Symbolic Z-matrix:
 Charge =  0 Multiplicity = 1

 SCF Done:  E(RB3LYP) =  -655.271873689     A.U. after   14 cycles
 SCF Done:  E(RB3LYP) =  -655.275621561     A.U. after   13 cycles
 SCF Done:  E(RB3LYP) =  -655.276348992     A.U. after   12 cycles
 SCF Done:  E(RB3LYP) =  -655.277005124     A.U. after   14 cycles
 SCF Done:  E(RB3LYP) =  -655.278102998     A.U. after   12 cycles
 SCF Done:  E(RB3LYP) =  -655.278675891     A.U. after   12 cycles
 SCF Done:  E(RB3LYP) =  -655.278779546     A.U. after   11 cycles
 SCF Done:  E(RB3LYP) =  -655.278837450     A.U. after   11 cycles
 SCF Done:  E(RB3LYP) =  -655.278876129     A.U. after   11 cycles
 SCF Done:  E(RB3LYP) =  -655.278890102     A.U. after   10 cycles
 SCF Done:  E(RB3LYP) =  -655.278891055     A.U. after    8 cycles
 SCF Done:  E(RB3LYP) =  -655.278891494     A.U. after    8 cycles
 SCF Done:  E(RB3LYP) =  -655.278891519     A.U. after    7 cycles
 Optimization completed.
    -- Stationary point found.
 Normal termination of Gaussian 16 at Fri Dec 11 00:33:39 2020.

 --------------------------------------------------------------------
 #N Geom=AllCheck Guess=TCheck SCRF=Check GenChk RB3LYP/6-31G(d) Freq
 --------------------------------------------------------------------

 Structure from the checkpoint file:  "JID_6798.chk"
 ------------------------------
 CID_11789055_JID_6798_neutraal
 ------------------------------
 Charge =  0 Multiplicity = 1

 SCF Done:  E(RB3LYP) =  -655.278891519     A.U. after    1 cycles

  Exact polarizability: 223.707  -9.110 148.549   6.378  23.584  87.127
 Approx polarizability: 338.349 -21.194 236.328  12.801  53.105 149.019

                      1                      2                      3
                      A                      A                      A
 Frequencies --     33.8318                60.0007                66.1516
 Red. masses --      4.0940                 3.9801                 2.9216
 Frc consts  --      0.0028                 0.0084                 0.0075
 IR Inten    --      0.1250                 0.1809                 0.5814

                      4                      5                      6
                      A                      A                      A
 Frequencies --     83.4969               111.8099               113.9265
 Red. masses --      4.4172                 3.1945                 3.2558
 Frc consts  --      0.0181                 0.0235                 0.0249
 IR Inten    --      0.5614                 0.2083                 0.1475

                      7                      8                      9
                      A                      A                      A
 Frequencies --    164.5607               246.0065               262.9884
 Red. masses --      3.2447                 3.7787                 3.2209
 Frc consts  --      0.0518                 0.1347                 0.1312
 IR Inten    --      3.2688                 0.1591                 0.8508

                     10                     11                     12
                      A                      A                      A
 Frequencies --    279.4167               339.9836               355.6090
 Red. masses --      4.9841                 4.4525                 4.2440
 Frc consts  --      0.2293                 0.3032                 0.3162
 IR Inten    --      2.6929                 1.3620                 1.3682

                     13                     14                     15
                      A                      A                      A
 Frequencies --    417.1470               418.6944               449.7235
 Red. masses --      2.5734                 2.9066                 3.8650
 Frc consts  --      0.2638                 0.3002                 0.4606
 IR Inten    --      1.1980                 0.6481                 2.3993

                     16                     17                     18
                      A                      A                      A
 Frequencies --    515.6209               549.0930               563.1572
 Red. masses --      3.4087                 3.4796                 3.5533
 Frc consts  --      0.5340                 0.6181                 0.6640
 IR Inten    --      3.0024                 2.4636                 0.1260

                     19                     20                     21
                      A                      A                      A
 Frequencies --    599.2565               629.0153               636.7461
 Red. masses --      3.3316                 6.6720                 6.1441
 Frc consts  --      0.7049                 1.5554                 1.4677
 IR Inten    --      8.4979                 5.2537                 0.6106

                     22                     23                     24
                      A                      A                      A
 Frequencies --    666.3242               713.1591               744.8109
 Red. masses --      2.3180                 1.9037                 4.5968
 Frc consts  --      0.6064                 0.5705                 1.5024
 IR Inten    --      3.9201                25.2260                 5.3675

                     25                     26                     27
                      A                      A                      A
 Frequencies --    748.3451               779.0719               790.1035
 Red. masses --      2.3883                 1.5704                 2.0134
 Frc consts  --      0.7880                 0.5616                 0.7405
 IR Inten    --     33.0826                29.0158                 6.4710

                     28                     29                     30
                      A                      A                      A
 Frequencies --    858.9456               860.3953               886.1909
 Red. masses --      4.7421                 1.2480                 1.4979
 Frc consts  --      2.0614                 0.5443                 0.6931
 IR Inten    --     10.0687                 0.9070                 0.9804

                     31                     32                     33
                      A                      A                      A
 Frequencies --    930.5579               947.5190               954.0259
 Red. masses --      1.4171                 1.3988                 1.3369
 Frc consts  --      0.7230                 0.7399                 0.7169
 IR Inten    --      2.5023                 0.6862                 1.3410

                     34                     35                     36
                      A                      A                      A
 Frequencies --    959.0541               970.0958               979.1343
 Red. masses --      1.3511                 1.3475                 1.2488
 Frc consts  --      0.7322                 0.7471                 0.7054
 IR Inten    --     38.8472                 1.2101                 0.1695

                     37                     38                     39
                      A                      A                      A
 Frequencies --    993.0053               993.6463              1022.2484
 Red. masses --      1.2875                 1.9045                 6.0861
 Frc consts  --      0.7480                 1.1079                 3.7472
 IR Inten    --      2.1990                 9.0027                 1.5943

                     40                     41                     42
                      A                      A                      A
 Frequencies --   1025.0420              1031.6956              1035.5173
 Red. masses --      5.5432                 1.4486                 3.1901
 Frc consts  --      3.4316                 0.9085                 2.0154
 IR Inten    --     88.5492                21.8750                27.4582

                     43                     44                     45
                      A                      A                      A
 Frequencies --   1067.5591              1078.5811              1113.7650
 Red. masses --      2.1085                 1.8703                 1.6312
 Frc consts  --      1.4158                 1.2819                 1.1922
 IR Inten    --      0.3487                12.4117                 4.6203

                     46                     47                     48
                      A                      A                      A
 Frequencies --   1139.6984              1190.3367              1191.6369
 Red. masses --      1.6510                 1.3470                 1.3618
 Frc consts  --      1.2635                 1.1245                 1.1393
 IR Inten    --     17.2147                 2.9950                 3.2741

                     49                     50                     51
                      A                      A                      A
 Frequencies --   1194.1635              1219.7833              1255.9774
 Red. masses --      1.0940                 1.1374                 2.7065
 Frc consts  --      0.9192                 0.9971                 2.5155
 IR Inten    --      0.0048                 0.5809               126.3714

                     52                     53                     54
                      A                      A                      A
 Frequencies --   1276.2441              1291.6089              1314.6082
 Red. masses --      1.4636                 1.5391                 2.9103
 Frc consts  --      1.4045                 1.5128                 2.9633
 IR Inten    --     17.3925                41.1144                 5.9459

                     55                     56                     57
                      A                      A                      A
 Frequencies --   1330.2884              1338.0831              1347.6535
 Red. masses --      1.2861                 3.2425                 4.8744
 Frc consts  --      1.3410                 3.4205                 5.2159
 IR Inten    --      0.0680                 1.0233                 1.2002

                     58                     59                     60
                      A                      A                      A
 Frequencies --   1371.6075              1411.1869              1478.1313
 Red. masses --      1.6955                 1.2788                 1.5987
 Frc consts  --      1.8793                 1.5004                 2.0580
 IR Inten    --      0.4549                28.2999                32.8180

                     61                     62                     63
                      A                      A                      A
 Frequencies --   1486.7377              1505.9450              1528.2967
 Red. masses --      1.5281                 2.3357                 2.3698
 Frc consts  --      1.9901                 3.1209                 3.2613
 IR Inten    --      7.6830                 2.4580                55.0095

                     64                     65                     66
                      A                      A                      A
 Frequencies --   1538.6221              1554.4697              1625.2007
 Red. masses --      1.1373                 2.4370                 5.3227
 Frc consts  --      1.5863                 3.4695                 8.2832
 IR Inten    --      2.1202                 8.8128                 3.1510

                     67                     68                     69
                      A                      A                      A
 Frequencies --   1641.0584              1661.3850              1665.2919
 Red. masses --      5.8989                 6.1117                 5.5433
 Frc consts  --      9.3598                 9.9392                 9.0572
 IR Inten    --      4.3955                 9.7122                 3.2784

                     70                     71                     72
                      A                      A                      A
 Frequencies --   1739.8772              3009.0847              3094.0620
 Red. masses --      4.5332                 1.0679                 1.0945
 Frc consts  --      8.0853                 5.6972                 6.1736
 IR Inten    --      0.7022                48.9565                14.0979

                     73                     74                     75
                      A                      A                      A
 Frequencies --   3159.7996              3173.1520              3181.5067
 Red. masses --      1.0594                 1.0917                 1.0849
 Frc consts  --      6.2320                 6.4763                 6.4698
 IR Inten    --     10.4758                10.9037                 1.9460

                     76                     77                     78
                      A                      A                      A
 Frequencies --   3186.1868              3190.3488              3195.8367
 Red. masses --      1.0853                 1.0882                 1.0897
 Frc consts  --      6.4915                 6.5258                 6.5576
 IR Inten    --      0.7818                 9.6569                14.8619

                     79                     80                     81
                      A                      A                      A
 Frequencies --   3200.2964              3207.7027              3209.8313
 Red. masses --      1.0923                 1.0936                 1.0969
 Frc consts  --      6.5912                 6.6295                 6.6583
 IR Inten    --     19.8418                27.1280                31.3918

                     82                     83                     84
                      A                      A                      A
 Frequencies --   3216.5656              3238.6356              3242.9427
 Red. masses --      1.0967                 1.0925                 1.1164
 Frc consts  --      6.6855                 6.7515                 6.9172
 IR Inten    --     17.1112                 3.0844                20.1887

 - Thermochemistry -
 -------------------
 Temperature   298.150 Kelvin.  Pressure   1.00000 Atm.
 Atom     1 has atomic number  6 and mass  12.00000

 Molecular mass:   210.10447 amu.
 Principal axes and moments of inertia in atomic units:
                           1         2         3
     Eigenvalues --  2471.375553834.433965783.00987
           X            0.99982   0.01916   0.00155
           Y           -0.01917   0.99980   0.00513
           Z           -0.00145  -0.00516   0.99999
 This molecule is an asymmetric top.
 Rotational symmetry number  1.
 Warning -- assumption of classical behavior for rotation
           may cause significant error
 Rotational temperatures (Kelvin)      0.03505     0.02259     0.01498
 Rotational constants (GHZ):           0.73026     0.47067     0.31208
 Zero-point vibrational energy     651060.8 (Joules/Mol)
                                  155.60728 (Kcal/Mol)
 Warning -- explicit consideration of  19 degrees of freedom as
           vibrations may cause significant error
 Vibrational temperatures:     48.68    86.33    95.18   120.13   160.87
          (Kelvin)            163.91   236.77   353.95   378.38   402.02
                              489.16   511.64   600.18   602.41   647.05
                              741.86   790.02   810.26   862.20   905.01
                              916.14   958.69  1026.08  1071.62  1076.70
                             1120.91  1136.78  1235.83  1237.92  1275.03
                             1338.87  1363.27  1372.63  1379.86  1395.75
                             1408.76  1428.71  1429.64  1470.79  1474.81
                             1484.38  1489.88  1535.98  1551.84  1602.46
                             1639.77  1712.63  1714.50  1718.13  1755.00
                             1807.07  1836.23  1858.34  1891.43  1913.99
                             1925.20  1938.97  1973.44  2030.38  2126.70
                             2139.08  2166.72  2198.88  2213.73  2236.54
                             2338.30  2361.12  2390.36  2395.98  2503.30
                             4329.40  4451.67  4546.25  4565.46  4577.48
                             4584.21  4590.20  4598.10  4604.51  4615.17
                             4618.23  4627.92  4659.67  4665.87

 Zero-point correction=                           0.247976 (Hartree/Particle)
 Thermal correction to Energy=                    0.261655
 Thermal correction to Enthalpy=                  0.262600
 Thermal correction to Gibbs Free Energy=         0.206453
 Sum of electronic and zero-point Energies=           -655.030916
 Sum of electronic and thermal Energies=              -655.017236
 Sum of electronic and thermal Enthalpies=            -655.016292
 Sum of electronic and thermal Free Energies=         -655.072438

                     E (Thermal)             CV                S
                      KCal/Mol        Cal/Mol-Kelvin    Cal/Mol-Kelvin
 Total                  164.191             53.356            118.170
 Electronic               0.000              0.000              0.000
 Translational            0.889              2.981             41.931
 Rotational               0.889              2.981             32.372
 Vibrational            162.414             47.394             43.867
 Vibration     1          0.594              1.983              5.591
 Vibration     2          0.597              1.973              4.457
 Vibration     3          0.598              1.970              4.265
 Vibration     4          0.600              1.961              3.807
 Vibration     5          0.607              1.940              3.237
 Vibration     6          0.607              1.938              3.201
 Vibration     7          0.623              1.886              2.497
 Vibration     8          0.660              1.769              1.759
 Vibration     9          0.670              1.741              1.642
 Vibration    10          0.680              1.712              1.537
 Vibration    11          0.720              1.596              1.212
 Vibration    12          0.731              1.564              1.141
 Vibration    13          0.780              1.433              0.902
 Vibration    14          0.782              1.430              0.896
 Vibration    15          0.809              1.361              0.797
 Vibration    16          0.871              1.215              0.620
 Vibration    17          0.904              1.142              0.546
 Vibration    18          0.919              1.111              0.518
 Vibration    19          0.957              1.033              0.451

                           ! Non-Optimized Parameters !
 Normal termination of Gaussian 16 at Fri Dec 11 00:43:24 2020.

 ----------------------------------------------------------------------
 # B3LYP/6-311++G(d,p) empiricaldispersion=gd3bj scf=xqc pop=npa geom=c
 heck
 ----------------------------------------------------------------------

 --------------------------------------
 CID_11789055_JID_6798_Energie_neutraal
 --------------------------------------
 Structure from the checkpoint file:  "JID_6798.chk"
 Charge =  0 Multiplicity = 1

 SCF Done:  E(RB3LYP) =  -655.450642585     A.U. after   16 cycles
 Normal termination of Gaussian 16 at Fri Dec 11 00:47:29 2020.

 ----------------------------------------------------------------------
 # B3LYP/6-311++G(d,p) empiricaldispersion=gd3bj scf=xqc pop=npa geom=c
 heck
 ----------------------------------------------------------------------

 ------------------------------------
 CID_11789055_JID_6798_Energie_kation
 ------------------------------------
 Structure from the checkpoint file:  "JID_6798.chk"
 Charge =  1 Multiplicity = 2

 SCF Done:  E(UB3LYP) =  -655.159328010     A.U. after   26 cycles
 Normal termination of Gaussian 16 at Fri Dec 11 00:56:49 2020.
 Gaussian 16:  ES64L-G16RevA.03 25-Dec-2016

 ----------------------------------------------------------------------
 # B3LYP/6-311++G(d,p) empiricaldispersion=gd3bj scf=xqc pop=npa geom=c
 heck
 ----------------------------------------------------------------------

 -----------------------------------
 CID_11789055_JID_6798_Energie_anion
 -----------------------------------
 Structure from the checkpoint file:  "JID_6798.chk"
 Charge = -1 Multiplicity = 2

                         Standard orientation:
 ---------------------------------------------------------------------
 Center     Atomic      Atomic             Coordinates (Angstroms)
 Number     Number       Type             X           Y           Z
 ---------------------------------------------------------------------
      1          6           0        2.590072    2.711354   -0.428125
      2          6           0        1.294329    2.982495   -0.280505
      3          6           0        0.205420    2.056344   -0.721977
      4          8           0       -0.576661    1.704483    0.436286
      5          6           0       -1.477973    0.679642    0.235833
      6          6           0       -2.833752    1.004004    0.204717
      7          6           0       -3.794155    0.007160    0.039418
      8          6           0       -3.391882   -1.320214   -0.107243
      9          6           0       -2.035907   -1.639847   -0.076272
     10          6           0       -1.049396   -0.657329    0.099004
     11          6           0        0.384699   -1.040023    0.132833
     12          6           0        0.884104   -1.972877   -0.790207
     13          6           0        2.226000   -2.349820   -0.773066
     14          6           0        3.095703   -1.798788    0.168658
     15          6           0        2.610610   -0.870943    1.092552
     16          6           0        1.269647   -0.494448    1.077297
     17          1           0        2.926680    1.775590   -0.868273
     18          1           0        3.361030    3.408301   -0.110883
     19          1           0        0.970845    3.911957    0.185964
     20          1           0       -0.458810    2.539776   -1.454717
     21          1           0        0.629676    1.158744   -1.183786
     22          1           0       -3.112662    2.047149    0.315602
     23          1           0       -4.848529    0.267855    0.023384
     24          1           0       -4.130007   -2.106966   -0.232408
     25          1           0       -1.724562   -2.677133   -0.159620
     26          1           0        0.216068   -2.386302   -1.540406
     27          1           0        2.593152   -3.067708   -1.501382
     28          1           0        4.142869   -2.087849    0.181356
     29          1           0        3.279374   -0.436868    1.830634
     30          1           0        0.903047    0.237335    1.786738
 ---------------------------------------------------------------------

 SCF Done:  E(UB3LYP) =  -655.440046656     A.U. after   33 cycles
 SCF Done:  E(UB3LYP) =  -655.440046656     a.u. after    1 cycles

 The electronic state is 2-A.
 Alpha  occ. eigenvalues --  -19.01569 -10.10758 -10.09657 -10.06849 -10.06094
 Alpha  occ. eigenvalues --  -10.04826 -10.04816 -10.04598 -10.04501 -10.04491
 Alpha  occ. eigenvalues --  -10.04430 -10.04361 -10.04168 -10.04168 -10.03784
 Alpha  occ. eigenvalues --  -10.03776  -0.93139  -0.73742  -0.71971  -0.68243
 Alpha  occ. eigenvalues --   -0.64928  -0.62083  -0.61636  -0.59545  -0.56388
 Alpha  occ. eigenvalues --   -0.50038  -0.48597  -0.46552  -0.45693  -0.45282
 Alpha  occ. eigenvalues --   -0.40999  -0.38684  -0.37559  -0.35994  -0.35293
 Alpha  occ. eigenvalues --   -0.33447  -0.33048  -0.31299  -0.31028  -0.29919
 Alpha  occ. eigenvalues --   -0.29525  -0.29126  -0.27864  -0.25394  -0.24593
 Alpha  occ. eigenvalues --   -0.23912  -0.23726  -0.21988  -0.21605  -0.21340
 Alpha  occ. eigenvalues --   -0.16635  -0.16287  -0.14923  -0.13028  -0.12370
 Alpha  occ. eigenvalues --   -0.10317   0.05332
 Alpha virt. eigenvalues --    0.07301   0.08022   0.08111   0.09109   0.09415
 Alpha virt. eigenvalues --    0.09716   0.10446   0.10494   0.10972   0.11075
 Alpha virt. eigenvalues --    0.11251   0.12027   0.12631   0.12868   0.13260

  Beta  occ. eigenvalues --  -19.01571 -10.10730 -10.09578 -10.06838 -10.06071
  Beta  occ. eigenvalues --  -10.04853 -10.04847 -10.04614 -10.04516 -10.04404
  Beta  occ. eigenvalues --  -10.04276 -10.04215 -10.04082 -10.03941 -10.03714
  Beta  occ. eigenvalues --  -10.03547  -0.93098  -0.73467  -0.71761  -0.68186
  Beta  occ. eigenvalues --   -0.64530  -0.61924  -0.61474  -0.59236  -0.56295
  Beta  occ. eigenvalues --   -0.49644  -0.48458  -0.46452  -0.45573  -0.45107
  Beta  occ. eigenvalues --   -0.40911  -0.38556  -0.37480  -0.35890  -0.35172
  Beta  occ. eigenvalues --   -0.33321  -0.32903  -0.31171  -0.30928  -0.29819
  Beta  occ. eigenvalues --   -0.29443  -0.29034  -0.27741  -0.25245  -0.24198
  Beta  occ. eigenvalues --   -0.23662  -0.23420  -0.21771  -0.21478  -0.21169
  Beta  occ. eigenvalues --   -0.16585  -0.15981  -0.13997  -0.12562  -0.11920
  Beta  occ. eigenvalues --   -0.09354
  Beta virt. eigenvalues --    0.07617   0.08104   0.08233   0.09148   0.09416
  Beta virt. eigenvalues --    0.09534   0.09915   0.10540   0.10626   0.10909
  Beta virt. eigenvalues --    0.11233   0.11364   0.12047   0.12821   0.13103

 Mulliken charges and spin densities:
               1          2
     1  C    0.588846  -1.065516
     2  C   -0.511688   0.701145
     3  C    0.154198  -0.550360
     4  O   -0.117368   0.010028
     5  C   -0.884537   0.067387
     6  C    0.072176  -0.101802
     7  C   -0.204679  -0.011172
     8  C   -0.398286   0.036775
     9  C   -0.358233   0.096696
    10  C    0.843452   0.022558
    11  C    1.099193  -0.019596
    12  C   -0.608976   0.215168
    13  C   -0.235414  -0.147613
    14  C   -0.099813  -0.130337
    15  C   -0.343443   0.071491
    16  C   -0.278909   0.206510
    17  H    0.165931  -0.032027
    18  H   -0.429508   0.559285
    19  H   -0.273730   0.447009
    20  H    0.015493   0.134690
    21  H    0.025251   0.074706
    22  H    0.055031   0.091518
    23  H    0.099801  -0.000877
    24  H    0.104760   0.017225
    25  H    0.145380  -0.021572
    26  H    0.058424   0.090323
    27  H    0.034266   0.098304
    28  H    0.045315   0.057505
    29  H    0.046000   0.100444
    30  H    0.191066  -0.017896
 Sum of Mulliken charges =  -1.00000   1.00000

 Dipole moment (field-independent basis, Debye):
    X=             -1.8821    Y=             -2.1351    Z=             -0.7441  Tot=              2.9419
 Quadrupole moment (field-independent basis, Debye-Ang):
   XX=           -137.4707   YY=           -135.9839   ZZ=           -112.5027
   XY=             -6.0709   XZ=             -0.3737   YZ=              0.8740

 Summary of Natural Population Analysis:

                                       Natural Population
                Natural  -----------------------------------------------
    Atom  No    Charge         Core      Valence    Rydberg      Total
 -----------------------------------------------------------------------
      C    1   -0.18083      0.99957     2.17359    0.00767     3.18083
      C    2   -0.09305      0.99956     2.08251    0.01097     3.09305
      C    3   -0.02533      0.99953     2.01406    0.01174     3.02533
      O    4   -0.29823      0.99986     3.28829    0.01008     4.29823
      C    5    0.17214      0.99933     1.81489    0.01364     2.82786
      C    6   -0.12731      0.99952     2.11858    0.00922     3.12731
      C    7   -0.06835      0.99958     2.05882    0.00996     3.06835
      C    8   -0.12086      0.99957     2.11248    0.00881     3.12086
      C    9   -0.07750      0.99954     2.07052    0.00743     3.07750
      C   10   -0.02075      0.99944     2.01086    0.01045     3.02075
      C   11   -0.00905      0.99950     1.99921    0.01034     3.00905
      C   12   -0.08501      0.99953     2.07616    0.00933     3.08501
      C   13   -0.11665      0.99957     2.10726    0.00982     3.11665
      C   14   -0.07242      0.99957     2.06323    0.00962     3.07242
      C   15   -0.11364      0.99957     2.10252    0.01155     3.11364
      C   16   -0.07973      0.99953     2.07137    0.00884     3.07973
      H   17    0.09562      0.00000     0.40315    0.00123     0.40438
      H   18    0.09234      0.00000     0.40627    0.00139     0.40766
      H   19    0.09305      0.00000     0.40528    0.00167     0.40695
      H   20    0.08396      0.00000     0.41473    0.00130     0.41604
      H   21    0.09301      0.00000     0.40485    0.00215     0.40699
      H   22    0.09992      0.00000     0.39896    0.00112     0.40008
      H   23    0.09033      0.00000     0.40871    0.00096     0.40967
      H   24    0.09234      0.00000     0.40669    0.00097     0.40766
      H   25    0.09595      0.00000     0.40290    0.00115     0.40405
      H   26    0.09563      0.00000     0.40283    0.00154     0.40437
      H   27    0.09361      0.00000     0.40549    0.00089     0.40639
      H   28    0.09088      0.00000     0.40833    0.00079     0.40912
      H   29    0.09512      0.00000     0.40407    0.00081     0.40488
      H   30    0.10483      0.00000     0.39379    0.00139     0.39517
 =======================================================================
   * Total *   -0.00000     15.99275    39.83039    0.17685    56.00000

 Normal termination of Gaussian 16 at Fri Dec 11 01:08:33 2020.
