 Gaussian 16, Revision A.03,

 -----------------------------------------------------------
 # opt freq B3LYP/6-31G(d) empiricaldispersion=gd3bj scf=xqc
 -----------------------------------------------------------

 -------------------------------
 CID_131123327_JID_5166_neutraal
 -------------------------------
 Symbolic Z-matrix:
 Charge =  0 Multiplicity = 1

 SCF Done:  E(RB3LYP) =  -760.579236230     A.U. after   15 cycles
 SCF Done:  E(RB3LYP) =  -760.586001825     A.U. after   12 cycles
 SCF Done:  E(RB3LYP) =  -760.586651529     A.U. after   11 cycles
 SCF Done:  E(RB3LYP) =  -760.586999667     A.U. after   11 cycles
 SCF Done:  E(RB3LYP) =  -760.587131803     A.U. after   12 cycles
 SCF Done:  E(RB3LYP) =  -760.587408748     A.U. after   11 cycles
 SCF Done:  E(RB3LYP) =  -760.587488733     A.U. after   11 cycles
 SCF Done:  E(RB3LYP) =  -760.587530276     A.U. after   10 cycles
 SCF Done:  E(RB3LYP) =  -760.587533159     A.U. after   10 cycles
 SCF Done:  E(RB3LYP) =  -760.587534562     A.U. after    8 cycles
 SCF Done:  E(RB3LYP) =  -760.587535220     A.U. after    8 cycles
 SCF Done:  E(RB3LYP) =  -760.587535296     A.U. after    7 cycles
 SCF Done:  E(RB3LYP) =  -760.587535363     A.U. after    7 cycles
 Optimization completed.
    -- Stationary point found.
 Normal termination of Gaussian 16 at Thu Dec 10 14:46:40 2020.

 --------------------------------------------------------------------
 #N Geom=AllCheck Guess=TCheck SCRF=Check GenChk RB3LYP/6-31G(d) Freq
 --------------------------------------------------------------------

 Structure from the checkpoint file:  "JID_5166.chk"
 -------------------------------
 CID_131123327_JID_5166_neutraal
 -------------------------------
 Charge =  0 Multiplicity = 1

 SCF Done:  E(RB3LYP) =  -760.587535363     A.U. after    1 cycles

  Exact polarizability: 165.504   1.099 110.936  -3.701  -1.298  75.860
 Approx polarizability: 202.087   3.867 185.022  -4.688  -4.271 115.250

                      1                      2                      3
                      A                      A                      A
 Frequencies --     34.9388                45.7162                66.4646
 Red. masses --      4.9631                 5.0916                 4.7810
 Frc consts  --      0.0036                 0.0063                 0.0124
 IR Inten    --      0.3706                 0.5729                 0.1147

                      4                      5                      6
                      A                      A                      A
 Frequencies --     75.6890               117.3234               129.2410
 Red. masses --      7.1312                 3.5192                 2.7291
 Frc consts  --      0.0241                 0.0285                 0.0269
 IR Inten    --      1.2741                 2.0642                 5.1394

                      7                      8                      9
                      A                      A                      A
 Frequencies --    178.3463               187.6859               228.5454
 Red. masses --      5.4646                 3.2037                 1.5098
 Frc consts  --      0.1024                 0.0665                 0.0465
 IR Inten    --      0.3040                 6.3993                 5.5763

                     10                     11                     12
                      A                      A                      A
 Frequencies --    239.8772               291.5463               322.9597
 Red. masses --      2.5724                 4.7828                 1.3475
 Frc consts  --      0.0872                 0.2395                 0.0828
 IR Inten    --      1.0043                 1.9964                31.3492

                     13                     14                     15
                      A                      A                      A
 Frequencies --    357.3081               366.3468               388.1552
 Red. masses --      1.9139                 4.7031                 3.5532
 Frc consts  --      0.1440                 0.3719                 0.3154
 IR Inten    --     60.2080                10.7995                 7.8192

                     16                     17                     18
                      A                      A                      A
 Frequencies --    418.0980               446.2257               504.5262
 Red. masses --      3.1781                 4.7585                 4.2729
 Frc consts  --      0.3273                 0.5583                 0.6408
 IR Inten    --      9.3493                 4.6589                 1.8272

                     19                     20                     21
                      A                      A                      A
 Frequencies --    513.1702               574.6433               601.5855
 Red. masses --      3.7646                 2.1482                 5.3134
 Frc consts  --      0.5841                 0.4179                 1.1330
 IR Inten    --      8.9117                33.3408                 4.6008

                     22                     23                     24
                      A                      A                      A
 Frequencies --    654.8225               696.4297               714.4301
 Red. masses --      1.5758                 3.5859                 3.7058
 Frc consts  --      0.3981                 1.0247                 1.1144
 IR Inten    --     34.5193                34.1224                65.2163

                     25                     26                     27
                      A                      A                      A
 Frequencies --    731.9101               755.6633               798.2416
 Red. masses --      2.9127                 2.6495                 4.7142
 Frc consts  --      0.9193                 0.8914                 1.7698
 IR Inten    --     85.8815                13.3043                 3.8352

                     28                     29                     30
                      A                      A                      A
 Frequencies --    801.3573               855.9650               909.0748
 Red. masses --      1.2557                 3.0503                 2.9271
 Frc consts  --      0.4751                 1.3168                 1.4253
 IR Inten    --      1.5566                13.5100                16.8781

                     31                     32                     33
                      A                      A                      A
 Frequencies --    945.0518               957.5690               989.4815
 Red. masses --      1.3954                 3.8507                 2.4214
 Frc consts  --      0.7343                 2.0803                 1.3968
 IR Inten    --      1.8688                10.4492                 0.7774

                     34                     35                     36
                      A                      A                      A
 Frequencies --   1000.1662              1022.5856              1052.3358
 Red. masses --      4.5975                 2.1368                 2.8162
 Frc consts  --      2.7097                 1.3165                 1.8375
 IR Inten    --     36.0640                 9.4746                24.1471

                     37                     38                     39
                      A                      A                      A
 Frequencies --   1084.7480              1115.3579              1126.9941
 Red. masses --      2.4348                 3.7234                 2.7401
 Frc consts  --      1.6880                 2.7291                 2.0505
 IR Inten    --     22.1547                56.9889                80.1530

                     40                     41                     42
                      A                      A                      A
 Frequencies --   1139.0216              1148.8104              1161.4514
 Red. masses --      1.1365                 2.5671                 2.4733
 Frc consts  --      0.8687                 1.9961                 1.9658
 IR Inten    --     22.7452                56.5472               103.8134

                     43                     44                     45
                      A                      A                      A
 Frequencies --   1173.1495              1182.5539              1238.2215
 Red. masses --      2.4513                 1.4892                 1.9130
 Frc consts  --      1.9877                 1.2270                 1.7281
 IR Inten    --     12.6060                78.9471                93.6851

                     46                     47                     48
                      A                      A                      A
 Frequencies --   1251.9242              1290.8695              1304.7925
 Red. masses --      1.8942                 1.4212                 2.2214
 Frc consts  --      1.7492                 1.3953                 2.2283
 IR Inten    --     95.7785                 3.3668                31.1719

                     49                     50                     51
                      A                      A                      A
 Frequencies --   1328.8640              1361.8658              1376.7349
 Red. masses --      1.7601                 1.5815                 1.5192
 Frc consts  --      1.8313                 1.7282                 1.6966
 IR Inten    --      4.6799                15.6698                16.2269

                     52                     53                     54
                      A                      A                      A
 Frequencies --   1410.5898              1431.7611              1434.6121
 Red. masses --      6.1602                 3.5023                 2.2727
 Frc consts  --      7.2218                 4.2301                 2.7559
 IR Inten    --    146.1959                71.0301                84.6621

                     55                     56                     57
                      A                      A                      A
 Frequencies --   1440.9824              1509.1143              1526.9279
 Red. masses --      1.2457                 1.0756                 1.0561
 Frc consts  --      1.5240                 1.4433                 1.4508
 IR Inten    --      4.3007                 1.9264                 3.3776

                     58                     59                     60
                      A                      A                      A
 Frequencies --   1529.8511              1539.6193              1548.7541
 Red. masses --      1.0653                 1.0635                 1.1202
 Frc consts  --      1.4690                 1.4853                 1.5831
 IR Inten    --      2.4241                 4.3155                52.5914

                     61                     62                     63
                      A                      A                      A
 Frequencies --   1622.9509              1684.6872              1817.8017
 Red. masses --      7.5148                10.2462                 9.7475
 Frc consts  --     11.6621                17.1338                18.9773
 IR Inten    --     49.1706               692.5095               313.5088

                     64                     65                     66
                      A                      A                      A
 Frequencies --   3031.3362              3040.2648              3049.2862
 Red. masses --      1.0634                 1.0668                 1.0608
 Frc consts  --      5.7575                 5.8098                 5.8112
 IR Inten    --     40.0068                38.3247                13.1358

                     67                     68                     69
                      A                      A                      A
 Frequencies --   3056.9434              3087.2503              3112.3801
 Red. masses --      1.0388                 1.1023                 1.1017
 Frc consts  --      5.7194                 6.1901                 6.2878
 IR Inten    --     25.9562                15.0008                24.9997

                     70                     71                     72
                      A                      A                      A
 Frequencies --   3117.0541              3122.3231              3146.7910
 Red. masses --      1.1005                 1.1006                 1.1017
 Frc consts  --      6.2998                 6.3217                 6.4274
 IR Inten    --     55.6433                21.3526                22.2638

                     73                     74                     75
                      A                      A                      A
 Frequencies --   3333.0658              3692.7871              3737.7094
 Red. masses --      1.1003                 1.0639                 1.0661
 Frc consts  --      7.2020                 8.5479                 8.7751
 IR Inten    --      3.7172                68.3587                 9.1182

 - Thermochemistry -
 -------------------
 Temperature   298.150 Kelvin.  Pressure   1.00000 Atm.
 Atom     1 has atomic number  6 and mass  12.00000

 Molecular mass:   212.07971 amu.
 Principal axes and moments of inertia in atomic units:
                           1         2         3
     Eigenvalues --  1039.541577337.547917838.25400
           X            0.99996  -0.00612  -0.00675
           Y            0.00623   0.99983   0.01752
           Z            0.00665  -0.01756   0.99982
 This molecule is an asymmetric top.
 Rotational symmetry number  1.
 Warning -- assumption of classical behavior for rotation
           may cause significant error
 Rotational temperatures (Kelvin)      0.08332     0.01180     0.01105
 Rotational constants (GHZ):           1.73609     0.24596     0.23025
 Zero-point vibrational energy     563941.6 (Joules/Mol)
                                  134.78529 (Kcal/Mol)
 Warning -- explicit consideration of  21 degrees of freedom as
           vibrations may cause significant error
 Vibrational temperatures:     50.27    65.78    95.63   108.90   168.80
          (Kelvin)            185.95   256.60   270.04   328.83   345.13
                              419.47   464.67   514.09   527.09   558.47
                              601.55   642.02   725.90   738.34   826.78
                              865.55   942.14  1002.01  1027.91  1053.06
                             1087.23  1148.49  1152.97  1231.54  1307.96
                             1359.72  1377.73  1423.64  1439.02  1471.27
                             1514.08  1560.71  1604.75  1621.49  1638.80
                             1652.88  1671.07  1687.90  1701.43  1781.52
                             1801.24  1857.27  1877.31  1911.94  1959.42
                             1980.81  2029.52  2059.98  2064.09  2073.25
                             2171.28  2196.91  2201.11  2215.17  2228.31
                             2335.06  2423.89  2615.41  4361.42  4374.26
                             4387.24  4398.26  4441.86  4478.02  4484.75
                             4492.33  4527.53  4795.54  5313.10  5377.73

 Zero-point correction=                           0.214794 (Hartree/Particle)
 Thermal correction to Energy=                    0.229014
 Thermal correction to Enthalpy=                  0.229959
 Thermal correction to Gibbs Free Energy=         0.172457
 Sum of electronic and zero-point Energies=           -760.372741
 Sum of electronic and thermal Energies=              -760.358521
 Sum of electronic and thermal Enthalpies=            -760.357577
 Sum of electronic and thermal Free Energies=         -760.415079

                     E (Thermal)             CV                S
                      KCal/Mol        Cal/Mol-Kelvin    Cal/Mol-Kelvin
 Total                  143.709             52.859            121.023
 Electronic               0.000              0.000              0.000
 Translational            0.889              2.981             41.959
 Rotational               0.889              2.981             32.458
 Vibrational            141.931             46.897             46.606
 Vibration     1          0.594              1.983              5.527
 Vibration     2          0.595              1.979              4.995
 Vibration     3          0.598              1.970              4.255
 Vibration     4          0.599              1.965              4.000
 Vibration     5          0.608              1.935              3.144
 Vibration     6          0.612              1.924              2.957
 Vibration     7          0.629              1.869              2.346
 Vibration     8          0.632              1.857              2.251
 Vibration     9          0.651              1.797              1.890
 Vibration    10          0.657              1.779              1.804
 Vibration    11          0.687              1.689              1.465
 Vibration    12          0.708              1.629              1.295
 Vibration    13          0.732              1.560              1.134
 Vibration    14          0.739              1.541              1.095
 Vibration    15          0.756              1.495              1.007
 Vibration    16          0.781              1.431              0.898
 Vibration    17          0.805              1.369              0.807
 Vibration    18          0.860              1.240              0.647
 Vibration    19          0.868              1.221              0.626
 Vibration    20          0.931              1.086              0.495
 Vibration    21          0.960              1.028              0.447

                           ! Non-Optimized Parameters !
 Normal termination of Gaussian 16 at Thu Dec 10 14:53:08 2020.

 ----------------------------------------------------------------------
 # B3LYP/6-311++G(d,p) empiricaldispersion=gd3bj scf=xqc pop=npa geom=c
 heck
 ----------------------------------------------------------------------

 ---------------------------------------
 CID_131123327_JID_5166_Energie_neutraal
 ---------------------------------------
 Structure from the checkpoint file:  "JID_5166.chk"
 Charge =  0 Multiplicity = 1

 SCF Done:  E(RB3LYP) =  -760.819991992     A.U. after   14 cycles
 Normal termination of Gaussian 16 at Thu Dec 10 14:55:55 2020.

 ----------------------------------------------------------------------
 # B3LYP/6-311++G(d,p) empiricaldispersion=gd3bj scf=xqc pop=npa geom=c
 heck
 ----------------------------------------------------------------------

 -------------------------------------
 CID_131123327_JID_5166_Energie_kation
 -------------------------------------
 Structure from the checkpoint file:  "JID_5166.chk"
 Charge =  1 Multiplicity = 2

 SCF Done:  E(UB3LYP) =  -760.519885737     A.U. after   21 cycles
 Normal termination of Gaussian 16 at Thu Dec 10 15:01:46 2020.
 Gaussian 16:  ES64L-G16RevA.03 25-Dec-2016

 ----------------------------------------------------------------------
 # B3LYP/6-311++G(d,p) empiricaldispersion=gd3bj scf=xqc pop=npa geom=c
 heck
 ----------------------------------------------------------------------

 ------------------------------------
 CID_131123327_JID_5166_Energie_anion
 ------------------------------------
 Structure from the checkpoint file:  "JID_5166.chk"
 Charge = -1 Multiplicity = 2

                         Standard orientation:
 ---------------------------------------------------------------------
 Center     Atomic      Atomic             Coordinates (Angstroms)
 Number     Number       Type             X           Y           Z
 ---------------------------------------------------------------------
      1          6           0        4.704157   -1.191211   -0.744279
      2          6           0        3.885254    0.100484   -0.710702
      3          6           0        2.794407    0.096784    0.353685
      4          6           0        1.794033    1.289088    0.225994
      5          7           0        0.826310    0.349514   -0.373325
      6          6           0        1.586660   -0.841622    0.037948
      7          6           0       -0.522916    0.428535   -0.239045
      8          7           0       -1.380730   -0.542342   -0.117687
      9          6           0       -2.613768    0.113530   -0.080117
     10          6           0       -2.426842    1.457042   -0.167225
     11          8           0       -1.076401    1.683667   -0.271988
     12          6           0       -3.923508   -0.540014    0.046797
     13          8           0       -4.978941    0.064433    0.085234
     14          8           0       -3.840870   -1.886277    0.118451
     15          8           0        3.421447   -0.069233    1.603311
     16          1           0        5.189577   -1.365024    0.219576
     17          1           0        5.477552   -1.138958   -1.517521
     18          1           0        4.072315   -2.059426   -0.965795
     19          1           0        4.542414    0.956590   -0.511805
     20          1           0        3.409632    0.279578   -1.682837
     21          1           0        1.472438    1.679496    1.201721
     22          1           0        2.079802    2.122235   -0.423096
     23          1           0        1.709006   -1.590748   -0.749054
     24          1           0        1.165795   -1.324750    0.930708
     25          1           0       -3.077083    2.315331   -0.165147
     26          1           0       -4.762057   -2.197159    0.197590
     27          1           0        2.734806   -0.143787    2.284333
 ---------------------------------------------------------------------

 SCF Done:  E(UB3LYP) =  -760.817451210     A.U. after   31 cycles

 The electronic state is 2-A.
 Alpha  occ. eigenvalues --  -19.07749 -19.04943 -19.03062 -18.98093 -14.23660
 Alpha  occ. eigenvalues --  -14.18812 -10.17462 -10.17016 -10.14180 -10.10836
 Alpha  occ. eigenvalues --  -10.10625 -10.09970 -10.08084 -10.07584 -10.06599
 Alpha  occ. eigenvalues --   -1.01848  -0.98714  -0.94085  -0.89332  -0.86916
 Alpha  occ. eigenvalues --   -0.80493  -0.70485  -0.66643  -0.61164  -0.60310
 Alpha  occ. eigenvalues --   -0.55908  -0.54355  -0.49071  -0.47903  -0.45303
 Alpha  occ. eigenvalues --   -0.42814  -0.40547  -0.39983  -0.38054  -0.36833
 Alpha  occ. eigenvalues --   -0.36161  -0.35752  -0.34291  -0.33417  -0.32830
 Alpha  occ. eigenvalues --   -0.32253  -0.30504  -0.29587  -0.28328  -0.27639
 Alpha  occ. eigenvalues --   -0.27590  -0.26134  -0.24954  -0.22735  -0.21453
 Alpha  occ. eigenvalues --   -0.20911  -0.18508  -0.18289  -0.17680  -0.16229
 Alpha  occ. eigenvalues --   -0.10490   0.04303
 Alpha virt. eigenvalues --    0.06058   0.07157   0.08177   0.08354   0.09273
 Alpha virt. eigenvalues --    0.09779   0.10329   0.11047   0.11652   0.12212
 Alpha virt. eigenvalues --    0.12921   0.13337   0.14045   0.14967   0.15296

  Beta  occ. eigenvalues --  -19.07595 -19.04888 -19.03013 -18.97964 -14.23670
  Beta  occ. eigenvalues --  -14.18829 -10.17463 -10.16802 -10.14180 -10.10808
  Beta  occ. eigenvalues --  -10.10602 -10.09651 -10.08087 -10.07564 -10.06578
  Beta  occ. eigenvalues --   -1.01608  -0.98510  -0.93996  -0.89119  -0.86885
  Beta  occ. eigenvalues --   -0.80451  -0.70408  -0.66507  -0.60949  -0.60241
  Beta  occ. eigenvalues --   -0.55582  -0.54149  -0.48976  -0.47787  -0.45206
  Beta  occ. eigenvalues --   -0.42697  -0.40439  -0.39893  -0.37890  -0.36513
  Beta  occ. eigenvalues --   -0.36006  -0.35506  -0.34087  -0.33375  -0.32449
  Beta  occ. eigenvalues --   -0.31829  -0.30418  -0.29485  -0.28253  -0.27594
  Beta  occ. eigenvalues --   -0.27422  -0.26091  -0.24920  -0.22643  -0.21102
  Beta  occ. eigenvalues --   -0.20327  -0.18471  -0.17950  -0.17632  -0.16104
  Beta  occ. eigenvalues --   -0.09710
  Beta virt. eigenvalues --    0.06554   0.07925   0.08345   0.08614   0.08999
  Beta virt. eigenvalues --    0.09406   0.09826   0.10694   0.11334   0.11789
  Beta virt. eigenvalues --    0.12373   0.12964   0.13673   0.14277   0.14899

 Mulliken charges and spin densities:
               1          2
     1  C    0.171484  -0.736476
     2  C    0.581196  -0.701025
     3  C   -1.107968   1.011250
     4  C    0.651861  -0.965496
     5  N   -0.051003   0.055669
     6  C    0.183317  -0.601833
     7  C   -0.156673  -0.060466
     8  N   -0.152362  -0.011599
     9  C    0.209245  -0.087168
    10  C   -0.224063   0.407142
    11  O   -0.074479   0.012138
    12  C   -0.047440   0.201244
    13  O   -0.402207   0.047119
    14  O   -0.190295   0.009367
    15  O   -0.187257  -0.003109
    16  H    0.007360   0.156593
    17  H   -0.158117   0.293561
    18  H    0.035154   0.077165
    19  H   -0.064788   0.232843
    20  H   -0.093132   0.252331
    21  H   -0.222679   0.395826
    22  H   -0.027323   0.220639
    23  H    0.101004   0.095850
    24  H    0.041325   0.132392
    25  H    0.147594   0.027995
    26  H    0.270744   0.002740
    27  H   -0.240499   0.535308
 Sum of Mulliken charges =  -1.00000   1.00000

 Dipole moment (field-independent basis, Debye):
    X=             -0.2186    Y=             -0.5029    Z=             -2.1378  Tot=              2.2070
 Quadrupole moment (field-independent basis, Debye-Ang):
   XX=           -172.5715   YY=           -106.1373   ZZ=           -114.1696
   XY=              4.8117   XZ=             -4.0244   YZ=             -1.3824

 Summary of Natural Population Analysis:

                                       Natural Population
                Natural  -----------------------------------------------
    Atom  No    Charge         Core      Valence    Rydberg      Total
 -----------------------------------------------------------------------
      C    1   -0.28588      0.99966     2.28185    0.00437     3.28588
      C    2   -0.19369      0.99958     2.18594    0.00817     3.19369
      C    3    0.12670      0.99949     1.85514    0.01867     2.87330
      C    4   -0.08000      0.99959     2.06896    0.01145     3.08000
      N    5   -0.26800      0.99964     2.75730    0.01107     3.76800
      C    6   -0.08251      0.99960     2.07124    0.01167     3.08251
      C    7    0.35231      0.99956     1.62775    0.02038     2.64769
      N    8   -0.26912      0.99967     2.76163    0.00782     3.76912
      C    9   -0.02993      0.99946     2.01492    0.01554     3.02993
      C   10    0.12540      0.99947     1.86088    0.01425     2.87460
      O   11   -0.23229      0.99986     3.22578    0.00665     4.23229
      C   12    0.40918      0.99966     1.56425    0.02691     2.59082
      O   13   -0.31607      0.99987     3.31021    0.00599     4.31607
      O   14   -0.33630      0.99988     3.33072    0.00571     4.33630
      O   15   -0.37085      0.99988     3.36408    0.00689     4.37085
      H   16    0.10485      0.00000     0.39384    0.00132     0.39515
      H   17    0.09701      0.00000     0.40189    0.00110     0.40299
      H   18    0.09510      0.00000     0.40375    0.00115     0.40490
      H   19    0.10077      0.00000     0.39791    0.00132     0.39923
      H   20    0.10067      0.00000     0.39786    0.00147     0.39933
      H   21    0.09621      0.00000     0.40185    0.00194     0.40379
      H   22    0.09614      0.00000     0.40235    0.00151     0.40386
      H   23    0.09720      0.00000     0.40153    0.00127     0.40280
      H   24    0.09907      0.00000     0.39926    0.00167     0.40093
      H   25    0.09644      0.00000     0.40270    0.00087     0.40356
      H   26    0.23183      0.00000     0.26568    0.00249     0.26817
      H   27    0.23580      0.00000     0.25573    0.00848     0.26420
 =======================================================================
   * Total *    0.00000     14.99487    40.80498    0.20015    56.00000

 Normal termination of Gaussian 16 at Thu Dec 10 15:11:34 2020.
