 Gaussian 16, Revision A.03,

 -----------------------------------------------------------
 # opt freq B3LYP/6-31G(d) empiricaldispersion=gd3bj scf=xqc
 -----------------------------------------------------------

 -------------------------------
 CID_148600549_JID_3817_neutraal
 -------------------------------
 Symbolic Z-matrix:
 Charge =  0 Multiplicity = 1

 SCF Done:  E(RB3LYP) =  -558.127617544     A.U. after   15 cycles
 SCF Done:  E(RB3LYP) =  -558.147693997     A.U. after   15 cycles
 SCF Done:  E(RB3LYP) =  -558.152011425     A.U. after   16 cycles
 SCF Done:  E(RB3LYP) =  -558.154432537     A.U. after   14 cycles
 SCF Done:  E(RB3LYP) =  -558.156735496     A.U. after   14 cycles
 SCF Done:  E(RB3LYP) =  -558.155657557     A.U. after   15 cycles
 SCF Done:  E(RB3LYP) =  -558.156612396     A.U. after   13 cycles
 SCF Done:  E(RB3LYP) =  -558.157717687     A.U. after   12 cycles
 SCF Done:  E(RB3LYP) =  -558.157662094     A.U. after   13 cycles
 SCF Done:  E(RB3LYP) =  -558.157894242     A.U. after   12 cycles
 SCF Done:  E(RB3LYP) =  -558.166316588     A.U. after   12 cycles
 SCF Done:  E(RB3LYP) =  -558.166331202     A.U. after   11 cycles
 SCF Done:  E(RB3LYP) =  -558.166344552     A.U. after   11 cycles
 SCF Done:  E(RB3LYP) =  -558.166344639     A.U. after   10 cycles
 SCF Done:  E(RB3LYP) =  -558.166345035     A.U. after    8 cycles
 Optimization completed.
    -- Stationary point found.
 Normal termination of Gaussian 16 at Thu Dec 10 00:33:20 2020.

 --------------------------------------------------------------------
 #N Geom=AllCheck Guess=TCheck SCRF=Check GenChk RB3LYP/6-31G(d) Freq
 --------------------------------------------------------------------

 Structure from the checkpoint file:  "JID_3817.chk"
 -------------------------------
 CID_148600549_JID_3817_neutraal
 -------------------------------
 Charge =  0 Multiplicity = 1

 SCF Done:  E(RB3LYP) =  -558.166345035     A.U. after    1 cycles

  Exact polarizability: 177.574  -0.540 104.058  -6.087  -2.324  94.243
 Approx polarizability: 229.533   3.537 155.882 -11.044 -10.105 145.115

                      1                      2                      3
                      A                      A                      A
 Frequencies --     24.4244                36.3840                63.3922
 Red. masses --      4.3242                 4.0866                 3.4581
 Frc consts  --      0.0015                 0.0032                 0.0082
 IR Inten    --      3.6803                 0.1844                 0.8691

                      4                      5                      6
                      A                      A                      A
 Frequencies --     95.1096               113.4840               144.7980
 Red. masses --      4.6555                 1.0735                 4.4881
 Frc consts  --      0.0248                 0.0081                 0.0554
 IR Inten    --      1.0161                 0.0680                 1.6165

                      7                      8                      9
                      A                      A                      A
 Frequencies --    168.5217               212.2264               288.5837
 Red. masses --      4.0077                 2.2650                 2.2214
 Frc consts  --      0.0671                 0.0601                 0.1090
 IR Inten    --      0.3459                 0.1698                 0.0592

                     10                     11                     12
                      A                      A                      A
 Frequencies --    311.6252               345.0333               367.5317
 Red. masses --      3.4731                 2.3469                 1.9233
 Frc consts  --      0.1987                 0.1646                 0.1531
 IR Inten    --      0.4120                 0.5914                 0.4990

                     13                     14                     15
                      A                      A                      A
 Frequencies --    407.4887               444.6150               462.7894
 Red. masses --      2.7449                 3.3790                 2.9450
 Frc consts  --      0.2685                 0.3936                 0.3716
 IR Inten    --      0.1087                 0.5959                 0.4681

                     16                     17                     18
                      A                      A                      A
 Frequencies --    502.7814               573.3799               591.7747
 Red. masses --      3.6383                 3.2648                 5.2464
 Frc consts  --      0.5419                 0.6324                 1.0825
 IR Inten    --      1.8788                 4.3382                17.1510

                     19                     20                     21
                      A                      A                      A
 Frequencies --    632.2716               652.8205               695.8843
 Red. masses --      4.6419                 4.5739                 3.2458
 Frc consts  --      1.0933                 1.1485                 0.9261
 IR Inten    --     13.3088                19.9001                 6.6737

                     22                     23                     24
                      A                      A                      A
 Frequencies --    712.6302               794.9322               814.4242
 Red. masses --      2.6313                 1.0353                 1.5293
 Frc consts  --      0.7873                 0.3855                 0.5976
 IR Inten    --      6.8730                 0.0142                 0.2652

                     25                     26                     27
                      A                      A                      A
 Frequencies --    817.7714               900.7367               908.0558
 Red. masses --      4.6261                 2.7502                 1.7414
 Frc consts  --      1.8227                 1.3147                 0.8460
 IR Inten    --     24.5536                 3.4692                 0.3264

                     28                     29                     30
                      A                      A                      A
 Frequencies --    933.6936               950.6797               989.3203
 Red. masses --      1.2209                 2.8338                 2.3155
 Frc consts  --      0.6271                 1.5090                 1.3352
 IR Inten    --      0.5062                17.5435                77.7843

                     31                     32                     33
                      A                      A                      A
 Frequencies --   1005.8559              1011.0089              1021.0842
 Red. masses --      1.8009                 2.1433                 2.1175
 Frc consts  --      1.0735                 1.2908                 1.3008
 IR Inten    --      1.1987                10.1159                 0.0968

                     34                     35                     36
                      A                      A                      A
 Frequencies --   1025.7222              1060.4320              1069.8886
 Red. masses --      1.5565                 1.4649                 1.8152
 Frc consts  --      0.9648                 0.9705                 1.2242
 IR Inten    --      3.2178                 7.4945                11.0027

                     37                     38                     39
                      A                      A                      A
 Frequencies --   1081.9846              1097.3666              1170.8900
 Red. masses --      1.4610                 2.1033                 1.5434
 Frc consts  --      1.0078                 1.4923                 1.2467
 IR Inten    --      0.6957                 2.3316                 0.5655

                     40                     41                     42
                      A                      A                      A
 Frequencies --   1177.7344              1190.4098              1201.9315
 Red. masses --      1.6467                 2.2034                 1.3995
 Frc consts  --      1.3457                 1.8397                 1.1912
 IR Inten    --      4.5647               171.9370                 0.6153

                     43                     44                     45
                      A                      A                      A
 Frequencies --   1215.9199              1247.4816              1257.4615
 Red. masses --      1.4917                 1.5744                 1.6613
 Frc consts  --      1.2994                 1.4436                 1.5477
 IR Inten    --     26.8990                11.4691               105.2858

                     46                     47                     48
                      A                      A                      A
 Frequencies --   1329.3231              1347.1880              1352.8497
 Red. masses --      1.6274                 1.5873                 1.3337
 Frc consts  --      1.6943                 1.6973                 1.4381
 IR Inten    --      0.0629               103.8103                 6.2779

                     49                     50                     51
                      A                      A                      A
 Frequencies --   1376.7429              1387.3627              1414.7419
 Red. masses --      1.2826                 1.9821                 1.3707
 Frc consts  --      1.4324                 2.2478                 1.6163
 IR Inten    --      3.2175                 0.1269                13.9056

                     52                     53                     54
                      A                      A                      A
 Frequencies --   1418.7982              1478.4242              1493.6298
 Red. masses --      1.8888                 3.0757                 1.0910
 Frc consts  --      2.2401                 3.9609                 1.4340
 IR Inten    --     74.0490               102.5092                 2.9585

                     55                     56                     57
                      A                      A                      A
 Frequencies --   1496.1276              1501.5552              1502.1534
 Red. masses --      1.0605                 1.0604                 1.0806
 Frc consts  --      1.3986                 1.4086                 1.4366
 IR Inten    --     12.8734                 5.1652                 2.6132

                     58                     59                     60
                      A                      A                      A
 Frequencies --   1509.5718              1512.4915              1522.2761
 Red. masses --      1.0949                 1.1585                 1.1445
 Frc consts  --      1.4700                 1.5614                 1.5627
 IR Inten    --      6.3755                10.4112                 0.4096

                     61                     62                     63
                      A                      A                      A
 Frequencies --   1537.7606              1818.0233              2147.2400
 Red. masses --      1.3406                11.2881                11.9483
 Frc consts  --      1.8678                21.9822                32.4576
 IR Inten    --      3.0866               274.3628               766.1360

                     64                     65                     66
                      A                      A                      A
 Frequencies --   3020.5358              3023.1603              3031.5724
 Red. masses --      1.0695                 1.0697                 1.0599
 Frc consts  --      5.7489                 5.7599                 5.7394
 IR Inten    --     17.4275                34.0649                22.5128

                     67                     68                     69
                      A                      A                      A
 Frequencies --   3036.7083              3063.6307              3075.6446
 Red. masses --      1.0601                 1.0370                 1.1024
 Frc consts  --      5.7597                 5.7344                 6.1439
 IR Inten    --     40.7944                 2.1634                33.7123

                     70                     71                     72
                      A                      A                      A
 Frequencies --   3079.2258              3099.0299              3108.8250
 Red. masses --      1.1030                 1.0959                 1.0950
 Frc consts  --      6.1617                 6.2011                 6.2353
 IR Inten    --     53.7711                30.4083                21.2468

                     73                     74                     75
                      A                      A                      A
 Frequencies --   3125.0256              3137.5891              3141.7306
 Red. masses --      1.0998                 1.0504                 1.0585
 Frc consts  --      6.3281                 6.0924                 6.1555
 IR Inten    --      5.2547                21.4739                16.1398

                     76                     77                     78
                      A                      A                      A
 Frequencies --   3177.3008              3210.7360              3224.2595
 Red. masses --      1.1033                 1.1194                 1.1162
 Frc consts  --      6.5621                 6.7987                 6.8368
 IR Inten    --      9.6524                 0.0294                24.2876

 - Thermochemistry -
 -------------------
 Temperature   298.150 Kelvin.  Pressure   1.00000 Atm.
 Atom     1 has atomic number  6 and mass  12.00000

 Molecular mass:   177.11536 amu.
 Principal axes and moments of inertia in atomic units:
                           1         2         3
     Eigenvalues --   892.638115199.475325376.53007
           X            0.99992  -0.01251  -0.00310
           Y            0.01271   0.99706   0.07561
           Z            0.00215  -0.07565   0.99713
 This molecule is an asymmetric top.
 Rotational symmetry number  1.
 Warning -- assumption of classical behavior for rotation
           may cause significant error
 Rotational temperatures (Kelvin)      0.09703     0.01666     0.01611
 Rotational constants (GHZ):           2.02181     0.34710     0.33567
 Zero-point vibrational energy     630991.7 (Joules/Mol)
                                  150.81063 (Kcal/Mol)
 Warning -- explicit consideration of  18 degrees of freedom as
           vibrations may cause significant error
 Vibrational temperatures:     35.14    52.35    91.21   136.84   163.28
          (Kelvin)            208.33   242.47   305.35   415.21   448.36
                              496.43   528.80   586.29   639.70   665.85
                              723.39   824.97   851.43   909.70   939.26
                             1001.22  1025.32  1143.73  1171.77  1176.59
                             1295.96  1306.49  1343.38  1367.82  1423.41
                             1447.20  1454.62  1469.11  1475.79  1525.73
                             1539.33  1556.73  1578.87  1684.65  1694.50
                             1712.73  1729.31  1749.44  1794.85  1809.21
                             1912.60  1938.30  1946.45  1980.83  1996.11
                             2035.50  2041.33  2127.12  2149.00  2152.59
                             2160.40  2161.26  2171.94  2176.14  2190.22
                             2212.49  2615.73  3089.40  4345.88  4349.65
                             4361.76  4369.15  4407.88  4425.17  4430.32
                             4458.81  4472.91  4496.21  4514.29  4520.25
                             4571.43  4619.53  4638.99

 Zero-point correction=                           0.240332 (Hartree/Particle)
 Thermal correction to Energy=                    0.253347
 Thermal correction to Enthalpy=                  0.254291
 Thermal correction to Gibbs Free Energy=         0.199182
 Sum of electronic and zero-point Energies=           -557.926013
 Sum of electronic and thermal Energies=              -557.912998
 Sum of electronic and thermal Enthalpies=            -557.912054
 Sum of electronic and thermal Free Energies=         -557.967163

                     E (Thermal)             CV                S
                      KCal/Mol        Cal/Mol-Kelvin    Cal/Mol-Kelvin
 Total                  158.977             48.664            115.985
 Electronic               0.000              0.000              0.000
 Translational            0.889              2.981             41.422
 Rotational               0.889              2.981             31.590
 Vibrational            157.200             42.703             42.973
 Vibration     1          0.593              1.985              6.237
 Vibration     2          0.594              1.982              5.447
 Vibration     3          0.597              1.972              4.349
 Vibration     4          0.603              1.953              3.552
 Vibration     5          0.607              1.938              3.208
 Vibration     6          0.616              1.908              2.739
 Vibration     7          0.625              1.881              2.452
 Vibration     8          0.643              1.822              2.024
 Vibration     9          0.685              1.695              1.482
 Vibration    10          0.700              1.652              1.354
 Vibration    11          0.723              1.585              1.189
 Vibration    12          0.740              1.539              1.090
 Vibration    13          0.772              1.454              0.936
 Vibration    14          0.804              1.373              0.812
 Vibration    15          0.820              1.333              0.758
 Vibration    16          0.858              1.244              0.651
 Vibration    17          0.930              1.089              0.498
 Vibration    18          0.949              1.049              0.464

 Optimization completed.
    -- Stationary point found.
 Normal termination of Gaussian 16 at Thu Dec 10 00:39:23 2020.

 ----------------------------------------------------------------------
 # B3LYP/6-311++G(d,p) empiricaldispersion=gd3bj scf=xqc pop=npa geom=c
 heck
 ----------------------------------------------------------------------

 ---------------------------------------
 CID_148600549_JID_3817_Energie_neutraal
 ---------------------------------------
 Structure from the checkpoint file:  "JID_3817.chk"
 Charge =  0 Multiplicity = 1

 SCF Done:  E(RB3LYP) =  -558.320736681     A.U. after   15 cycles
 Normal termination of Gaussian 16 at Thu Dec 10 00:41:48 2020.

 ----------------------------------------------------------------------
 # B3LYP/6-311++G(d,p) empiricaldispersion=gd3bj scf=xqc pop=npa geom=c
 heck
 ----------------------------------------------------------------------

 -------------------------------------
 CID_148600549_JID_3817_Energie_kation
 -------------------------------------
 Structure from the checkpoint file:  "JID_3817.chk"
 Charge =  1 Multiplicity = 2

 SCF Done:  E(UB3LYP) =  -558.027248845     A.U. after   22 cycles
 Normal termination of Gaussian 16 at Thu Dec 10 00:46:28 2020.
 Gaussian 16:  ES64L-G16RevA.03 25-Dec-2016

 ----------------------------------------------------------------------
 # B3LYP/6-311++G(d,p) empiricaldispersion=gd3bj scf=xqc pop=npa geom=c
 heck
 ----------------------------------------------------------------------

 ------------------------------------
 CID_148600549_JID_3817_Energie_anion
 ------------------------------------
 Structure from the checkpoint file:  "JID_3817.chk"
 Charge = -1 Multiplicity = 2

                         Standard orientation:
 ---------------------------------------------------------------------
 Center     Atomic      Atomic             Coordinates (Angstroms)
 Number     Number       Type             X           Y           Z
 ---------------------------------------------------------------------
      1          6           0       -4.425093    0.898839    0.585892
      2          6           0       -3.475648   -0.230834    0.266249
      3          8           0       -3.479066   -1.312948    0.807348
      4          7           0       -2.620582    0.062373   -0.837648
      5          6           0       -1.389529    0.067098   -0.789541
      6          6           0       -0.080331    0.105035   -0.822317
      7          6           0        0.698559    1.388948   -0.609581
      8          6           0        1.670336    1.225590    0.574348
      9          6           0        2.530504   -0.016293    0.401668
     10          6           0        1.715962   -1.288266    0.226066
     11          6           0        0.745831   -1.160200   -0.963101
     12          6           0        3.813481    0.117303   -0.388348
     13          6           0        3.856226   -0.089429    1.109602
     14          1           0       -5.053507    0.621532    1.433443
     15          1           0       -5.049039    1.115226   -0.288062
     16          1           0       -3.863936    1.811748    0.815710
     17          1           0        1.280297    1.603701   -1.518029
     18          1           0        0.024919    2.236366   -0.447392
     19          1           0        1.091854    1.143412    1.504988
     20          1           0        2.303061    2.117499    0.663736
     21          1           0        1.138026   -1.483548    1.139700
     22          1           0        2.380996   -2.147405    0.073588
     23          1           0        0.102282   -2.041742   -1.036795
     24          1           0        1.329675   -1.098728   -1.893348
     25          1           0        4.113331   -0.709328   -1.027503
     26          1           0        4.080327    1.096899   -0.777027
     27          1           0        4.151798    0.750688    1.733113
     28          1           0        4.184723   -1.056092    1.483006
 ---------------------------------------------------------------------

 SCF Done:  E(UB3LYP) =  -558.308750649     A.U. after   33 cycles
 SCF Done:  E(UB3LYP) =  -558.308750649     a.u. after    1 cycles

 The electronic state is 2-A.
 Alpha  occ. eigenvalues --  -18.99310 -14.22087 -10.16561 -10.11235 -10.08320
 Alpha  occ. eigenvalues --  -10.07482 -10.07215 -10.07129 -10.07118 -10.07069
 Alpha  occ. eigenvalues --  -10.06879 -10.06852 -10.06791  -0.94126  -0.82415
 Alpha  occ. eigenvalues --   -0.77541  -0.71632  -0.64970  -0.64862  -0.62115
 Alpha  occ. eigenvalues --   -0.53943  -0.52280  -0.50534  -0.49467  -0.44240
 Alpha  occ. eigenvalues --   -0.40044  -0.38256  -0.37908  -0.35264  -0.34795
 Alpha  occ. eigenvalues --   -0.34605  -0.33433  -0.32622  -0.31126  -0.30266
 Alpha  occ. eigenvalues --   -0.29201  -0.28233  -0.27779  -0.26922  -0.25388
 Alpha  occ. eigenvalues --   -0.24801  -0.23585  -0.22423  -0.20396  -0.19042
 Alpha  occ. eigenvalues --   -0.17796  -0.16596  -0.10683   0.04621
 Alpha virt. eigenvalues --    0.06346   0.06939   0.07644   0.07975   0.08863
 Alpha virt. eigenvalues --    0.09919   0.10144   0.10499   0.10664   0.10993
 Alpha virt. eigenvalues --    0.11160   0.12029   0.12546   0.13261   0.14143

  Beta  occ. eigenvalues --  -18.99133 -14.22098 -10.16380 -10.11043 -10.08321
  Beta  occ. eigenvalues --  -10.07462 -10.07172 -10.07144 -10.07109 -10.07053
  Beta  occ. eigenvalues --  -10.06850 -10.06839 -10.06773  -0.93797  -0.82227
  Beta  occ. eigenvalues --   -0.77523  -0.71561  -0.64921  -0.64651  -0.62028
  Beta  occ. eigenvalues --   -0.53738  -0.52208  -0.50439  -0.49330  -0.44172
  Beta  occ. eigenvalues --   -0.39973  -0.38232  -0.37674  -0.35034  -0.34577
  Beta  occ. eigenvalues --   -0.34357  -0.33290  -0.32581  -0.31070  -0.30185
  Beta  occ. eigenvalues --   -0.29139  -0.28018  -0.27627  -0.26874  -0.25329
  Beta  occ. eigenvalues --   -0.24749  -0.23067  -0.22167  -0.20207  -0.19009
  Beta  occ. eigenvalues --   -0.17760  -0.16431  -0.10616
  Beta virt. eigenvalues --    0.06830   0.07330   0.08087   0.08245   0.08631
  Beta virt. eigenvalues --    0.09315   0.10227   0.10599   0.10834   0.10968
  Beta virt. eigenvalues --    0.11215   0.11544   0.12322   0.12886   0.13468

 Mulliken charges and spin densities:
               1          2
     1  C    0.388733  -0.884625
     2  C   -0.195231   0.485316
     3  O   -0.334092   0.055825
     4  N   -0.086235   0.093340
     5  C    0.976564  -2.547457
     6  C   -0.088764   1.669189
     7  C   -0.889129   0.521494
     8  C    1.176620  -1.771511
     9  C   -1.781711   2.551174
    10  C    0.508117  -1.055086
    11  C   -0.587428   0.266898
    12  C    0.816906  -1.406220
    13  C    0.318390  -0.535296
    14  H    0.010048   0.136686
    15  H   -0.214723   0.384322
    16  H   -0.040738   0.195681
    17  H    0.092142   0.049273
    18  H   -0.148783   0.343713
    19  H    0.103322   0.043798
    20  H   -0.436956   0.589133
    21  H    0.122228   0.026530
    22  H   -0.073911   0.211398
    23  H    0.001859   0.209044
    24  H   -0.089765   0.232968
    25  H   -0.181025   0.338612
    26  H   -0.207163   0.367186
    27  H   -0.130281   0.269612
    28  H   -0.028994   0.159004
 Sum of Mulliken charges =  -1.00000   1.00000

 Dipole moment (field-independent basis, Debye):
    X=              0.5569    Y=             -0.5125    Z=              0.6017  Tot=              0.9668
 Quadrupole moment (field-independent basis, Debye-Ang):
   XX=           -166.5298   YY=           -113.9832   ZZ=           -104.5867
   XY=             -7.0150   XZ=              1.5359   YZ=             -0.6165

 Summary of Natural Population Analysis:

                                       Natural Population
                Natural  -----------------------------------------------
    Atom  No    Charge         Core      Valence    Rydberg      Total
 -----------------------------------------------------------------------
      C    1   -0.33120      0.99962     2.32713    0.00444     3.33120
      C    2    0.36799      0.99969     1.61050    0.02182     2.63201
      O    3   -0.27681      0.99987     3.27076    0.00618     4.27681
      N    4   -0.26521      0.99956     2.75394    0.01171     3.76521
      C    5    0.25157      0.99939     1.73638    0.01266     2.74843
      C    6   -0.11243      0.99944     2.10388    0.00911     3.11243
      C    7   -0.18305      0.99959     2.17419    0.00927     3.18305
      C    8   -0.18211      0.99958     2.17276    0.00978     3.18211
      C    9   -0.04748      0.99955     2.03565    0.01229     3.04748
      C   10   -0.18128      0.99958     2.17251    0.00920     3.18128
      C   11   -0.18224      0.99960     2.17334    0.00931     3.18224
      C   12   -0.19662      0.99958     2.18747    0.00957     3.19662
      C   13   -0.19428      0.99958     2.18553    0.00917     3.19428
      H   14    0.10583      0.00000     0.39296    0.00121     0.39417
      H   15    0.11356      0.00000     0.38416    0.00228     0.38644
      H   16    0.10754      0.00000     0.39119    0.00126     0.39246
      H   17    0.09703      0.00000     0.40161    0.00135     0.40297
      H   18    0.10278      0.00000     0.39606    0.00117     0.39722
      H   19    0.09711      0.00000     0.40156    0.00134     0.40289
      H   20    0.10206      0.00000     0.39596    0.00198     0.39794
      H   21    0.09847      0.00000     0.40026    0.00127     0.40153
      H   22    0.09876      0.00000     0.40020    0.00104     0.40124
      H   23    0.10526      0.00000     0.39365    0.00109     0.39474
      H   24    0.09735      0.00000     0.40124    0.00141     0.40265
      H   25    0.10199      0.00000     0.39666    0.00136     0.39801
      H   26    0.10312      0.00000     0.39543    0.00145     0.39688
      H   27    0.10231      0.00000     0.39669    0.00100     0.39769
      H   28    0.09998      0.00000     0.39912    0.00090     0.40002
 =======================================================================
   * Total *    0.00000     12.99461    34.85078    0.15461    48.00000

 Normal termination of Gaussian 16 at Thu Dec 10 00:53:33 2020.
