 Gaussian 16, Revision A.03,

 -----------------------------------------------------------
 # opt freq B3LYP/6-31G(d) empiricaldispersion=gd3bj scf=xqc
 -----------------------------------------------------------

 ------------------------------
 CID_11687298_JID_7302_neutraal
 ------------------------------
 Symbolic Z-matrix:
 Charge =  0 Multiplicity = 1

 SCF Done:  E(RB3LYP) =  -770.048595525     A.U. after   14 cycles
 SCF Done:  E(RB3LYP) =  -770.050495777     A.U. after   13 cycles
 SCF Done:  E(RB3LYP) =  -770.047335545     A.U. after   14 cycles
 SCF Done:  E(RB3LYP) =  -770.050299461     A.U. after   13 cycles
 SCF Done:  E(RB3LYP) =  -770.052834833     A.U. after   11 cycles
 SCF Done:  E(RB3LYP) =  -770.053504846     A.U. after   14 cycles
 SCF Done:  E(RB3LYP) =  -770.053685611     A.U. after   12 cycles
 SCF Done:  E(RB3LYP) =  -770.053786269     A.U. after   12 cycles
 SCF Done:  E(RB3LYP) =  -770.054041327     A.U. after   12 cycles
 SCF Done:  E(RB3LYP) =  -770.054155240     A.U. after   11 cycles
 SCF Done:  E(RB3LYP) =  -770.054175880     A.U. after    9 cycles
 SCF Done:  E(RB3LYP) =  -770.054176324     A.U. after    8 cycles
 SCF Done:  E(RB3LYP) =  -770.054176465     A.U. after    7 cycles
 SCF Done:  E(RB3LYP) =  -770.054176495     A.U. after    7 cycles
 SCF Done:  E(RB3LYP) =  -770.054176507     A.U. after    7 cycles
 Optimization completed.
    -- Stationary point found.
 Normal termination of Gaussian 16 at Mon Dec 14 16:44:01 2020.

 --------------------------------------------------------------------
 #N Geom=AllCheck Guess=TCheck SCRF=Check GenChk RB3LYP/6-31G(d) Freq
 --------------------------------------------------------------------

 Structure from the checkpoint file:  "JID_7302.chk"
 ------------------------------
 CID_11687298_JID_7302_neutraal
 ------------------------------
 Charge =  0 Multiplicity = 1

 SCF Done:  E(RB3LYP) =  -770.054176507     A.U. after    1 cycles

  Exact polarizability: 155.618  10.712 160.726  10.610 -16.480 116.993
 Approx polarizability: 231.766  32.863 247.045  17.026 -33.348 196.129

                      1                      2                      3
                      A                      A                      A
 Frequencies --     18.3179                22.2890                51.5069
 Red. masses --      6.6446                 4.7559                 3.7796
 Frc consts  --      0.0013                 0.0014                 0.0059
 IR Inten    --      0.5934                 0.3448                 0.4283

                      4                      5                      6
                      A                      A                      A
 Frequencies --     60.9100                69.0269                83.9939
 Red. masses --      4.3172                 6.0577                 3.8237
 Frc consts  --      0.0094                 0.0170                 0.0159
 IR Inten    --      0.0627                 1.3105                 0.2797

                      7                      8                      9
                      A                      A                      A
 Frequencies --    116.7936               117.7403               182.3259
 Red. masses --      3.5517                 3.1521                 1.6040
 Frc consts  --      0.0285                 0.0257                 0.0314
 IR Inten    --      0.2308                 0.3402                 2.2022

                     10                     11                     12
                      A                      A                      A
 Frequencies --    192.2795               211.0308               239.7215
 Red. masses --      3.4772                 2.4700                 3.2829
 Frc consts  --      0.0757                 0.0648                 0.1112
 IR Inten    --      4.0507                 1.8768                 5.0420

                     13                     14                     15
                      A                      A                      A
 Frequencies --    264.5386               320.6027               349.0946
 Red. masses --      3.3720                 2.3937                 2.1900
 Frc consts  --      0.1390                 0.1450                 0.1572
 IR Inten    --      1.5184                 2.1100                 2.0250

                     16                     17                     18
                      A                      A                      A
 Frequencies --    378.0068               413.4598               419.9300
 Red. masses --      3.0259                 3.9344                 3.0417
 Frc consts  --      0.2547                 0.3963                 0.3160
 IR Inten    --      4.7952                 2.1825                 0.0110

                     19                     20                     21
                      A                      A                      A
 Frequencies --    451.6326               474.7407               482.8872
 Red. masses --      2.5076                 3.1680                 3.4590
 Frc consts  --      0.3014                 0.4207                 0.4752
 IR Inten    --      2.5928                 2.1134                 6.0991

                     22                     23                     24
                      A                      A                      A
 Frequencies --    536.0317               549.2067               569.4217
 Red. masses --      2.5596                 2.4981                 2.5399
 Frc consts  --      0.4333                 0.4439                 0.4852
 IR Inten    --     12.2918                22.9454                19.2709

                     25                     26                     27
                      A                      A                      A
 Frequencies --    625.9506               635.6440               639.4876
 Red. masses --      4.2371                 4.2717                 2.3596
 Frc consts  --      0.9781                 1.0169                 0.5685
 IR Inten    --      8.2446                 8.5706                28.2596

                     28                     29                     30
                      A                      A                      A
 Frequencies --    712.9588               715.2457               754.2302
 Red. masses --      1.7717                 2.2508                 1.5627
 Frc consts  --      0.5306                 0.6784                 0.5238
 IR Inten    --    104.8765                26.3662                41.1210

                     31                     32                     33
                      A                      A                      A
 Frequencies --    786.7076               818.8086               828.5203
 Red. masses --      2.9480                 2.6110                 3.8231
 Frc consts  --      1.0750                 1.0314                 1.5462
 IR Inten    --     12.2570                 3.8769                 3.2530

                     34                     35                     36
                      A                      A                      A
 Frequencies --    867.5777               886.0044               921.3204
 Red. masses --      1.2503                 1.6568                 1.4612
 Frc consts  --      0.5545                 0.7663                 0.7308
 IR Inten    --      0.8539                 9.3741                 1.1599

                     37                     38                     39
                      A                      A                      A
 Frequencies --    931.6410               937.6586               970.8469
 Red. masses --      2.4553                 2.4036                 1.3447
 Frc consts  --      1.2556                 1.2451                 0.7467
 IR Inten    --     11.4948                19.8697                 0.2784

                     40                     41                     42
                      A                      A                      A
 Frequencies --    978.8019               994.0002              1001.7677
 Red. masses --      2.0220                 1.2726                 1.6953
 Frc consts  --      1.1414                 0.7408                 1.0024
 IR Inten    --      2.5652                 0.5904                 1.7596

                     43                     44                     45
                      A                      A                      A
 Frequencies --   1022.5097              1028.8619              1047.3485
 Red. masses --      5.6812                 2.0032                 2.1112
 Frc consts  --      3.4997                 1.2494                 1.3645
 IR Inten    --      1.7853                12.5135                 7.1861

                     46                     47                     48
                      A                      A                      A
 Frequencies --   1057.7233              1069.9600              1081.8260
 Red. masses --      2.1703                 1.9859                 1.7400
 Frc consts  --      1.4306                 1.3395                 1.1998
 IR Inten    --      4.2349                 8.4606                 2.4722

                     49                     50                     51
                      A                      A                      A
 Frequencies --   1104.6660              1117.2988              1131.6566
 Red. masses --      2.9121                 1.7566                 2.8833
 Frc consts  --      2.0937                 1.2920                 2.1755
 IR Inten    --     87.3023                17.7609                20.6187

                     52                     53                     54
                      A                      A                      A
 Frequencies --   1164.8525              1191.4279              1208.2419
 Red. masses --      2.1130                 1.1015                 1.1365
 Frc consts  --      1.6893                 0.9213                 0.9775
 IR Inten    --    193.4765                 0.2260                 0.0623

                     55                     56                     57
                      A                      A                      A
 Frequencies --   1223.6347              1232.0182              1234.6576
 Red. masses --      1.9450                 1.4038                 3.1134
 Frc consts  --      1.7159                 1.2554                 2.7963
 IR Inten    --      3.0163                67.8909                 7.8237

                     58                     59                     60
                      A                      A                      A
 Frequencies --   1258.5648              1290.6792              1316.7947
 Red. masses --      1.1888                 1.2118                 1.2571
 Frc consts  --      1.1095                 1.1893                 1.2843
 IR Inten    --      0.4658                 5.8473                 9.1007

                     61                     62                     63
                      A                      A                      A
 Frequencies --   1328.6173              1353.4592              1365.7303
 Red. masses --      1.4727                 1.6396                 2.4797
 Frc consts  --      1.5316                 1.7696                 2.7251
 IR Inten    --      3.0272                 8.9076                 0.7882

                     64                     65                     66
                      A                      A                      A
 Frequencies --   1378.7087              1380.9419              1416.6844
 Red. masses --      1.3895                 1.3444                 1.6200
 Frc consts  --      1.5562                 1.5105                 1.9156
 IR Inten    --     10.8945                 0.7637                 6.4354

                     67                     68                     69
                      A                      A                      A
 Frequencies --   1422.5106              1438.0928              1453.0802
 Red. masses --      1.4871                 1.3830                 1.2537
 Frc consts  --      1.7730                 1.6851                 1.5597
 IR Inten    --     45.7895                 7.3767                 1.6255

                     70                     71                     72
                      A                      A                      A
 Frequencies --   1497.0878              1503.0442              1507.2592
 Red. masses --      1.1158                 2.0615                 1.0843
 Frc consts  --      1.4735                 2.7439                 1.4514
 IR Inten    --     11.4526                 8.5298                 7.2446

                     73                     74                     75
                      A                      A                      A
 Frequencies --   1515.0094              1515.4992              1521.5973
 Red. masses --      1.0974                 1.0913                 1.0811
 Frc consts  --      1.4841                 1.4767                 1.4747
 IR Inten    --      6.1030                 9.8755                13.5915

                     76                     77                     78
                      A                      A                      A
 Frequencies --   1533.8814              1546.0161              1648.5064
 Red. masses --      1.1000                 2.1771                 5.5891
 Frc consts  --      1.5249                 3.0659                 8.9491
 IR Inten    --     14.7186                 5.2929                 0.3763

                     79                     80                     81
                      A                      A                      A
 Frequencies --   1668.0227              1745.2562              1846.6570
 Red. masses --      5.6366                 6.5290                 9.4197
 Frc consts  --      9.2400                11.7170                18.9261
 IR Inten    --      0.5960                10.1256               236.6734

                     82                     83                     84
                      A                      A                      A
 Frequencies --   3024.5373              3053.5374              3058.8500
 Red. masses --      1.0647                 1.0660                 1.0487
 Frc consts  --      5.7387                 5.8563                 5.7811
 IR Inten    --     48.7755                11.9024                18.5450

                     85                     86                     87
                      A                      A                      A
 Frequencies --   3061.9264              3064.6565              3080.3253
 Red. masses --      1.0594                 1.0512                 1.0979
 Frc consts  --      5.8521                 5.8172                 6.1377
 IR Inten    --     26.3246                24.7415                33.9831

                     88                     89                     90
                      A                      A                      A
 Frequencies --   3097.6043              3105.8926              3112.4106
 Red. masses --      1.1056                 1.1035                 1.0989
 Frc consts  --      6.2501                 6.2721                 6.2721
 IR Inten    --     29.2608                11.3642                12.2679

                     91                     92                     93
                      A                      A                      A
 Frequencies --   3128.2867              3140.6656              3163.5901
 Red. masses --      1.0961                 1.0886                 1.0970
 Frc consts  --      6.3197                 6.3264                 6.4685
 IR Inten    --     17.2243                31.2701                21.7488

                     94                     95                     96
                      A                      A                      A
 Frequencies --   3180.7857              3188.2574              3196.2272
 Red. masses --      1.0844                 1.0869                 1.0907
 Frc consts  --      6.4642                 6.5098                 6.5648
 IR Inten    --      1.0828                 2.1704                20.2448

                     97                     98                     99
                      A                      A                      A
 Frequencies --   3203.1134              3211.0780              3677.8248
 Red. masses --      1.0940                 1.0979                 1.0638
 Frc consts  --      6.6131                 6.6700                 8.4782
 IR Inten    --     34.9260                14.8939                43.3693

 - Thermochemistry -
 -------------------
 Temperature   298.150 Kelvin.  Pressure   1.00000 Atm.
 Atom     1 has atomic number  6 and mass  12.00000

 Molecular mass:   234.12559 amu.
 Principal axes and moments of inertia in atomic units:
                           1         2         3
     Eigenvalues --  2982.805184798.834086536.41186
           X            0.99970  -0.02258   0.00922
           Y            0.02264   0.99972  -0.00692
           Z           -0.00907   0.00713   0.99993
 This molecule is an asymmetric top.
 Rotational symmetry number  1.
 Warning -- assumption of classical behavior for rotation
           may cause significant error
 Rotational temperatures (Kelvin)      0.02904     0.01805     0.01325
 Rotational constants (GHZ):           0.60505     0.37608     0.27611
 Zero-point vibrational energy     781763.3 (Joules/Mol)
                                  186.84591 (Kcal/Mol)
 Warning -- explicit consideration of  24 degrees of freedom as
           vibrations may cause significant error
 Vibrational temperatures:     26.36    32.07    74.11    87.64    99.31
          (Kelvin)            120.85   168.04   169.40   262.33   276.65
                              303.63   344.91   380.61   461.28   502.27
                              543.87   594.88   604.19   649.80   683.05
                              694.77   771.23   790.19   819.27   900.60
                              914.55   920.08  1025.79  1029.08  1085.17
                             1131.90  1178.08  1192.06  1248.25  1274.76
                             1325.57  1340.42  1349.08  1396.83  1408.28
                             1430.14  1441.32  1471.16  1480.30  1506.90
                             1521.83  1539.43  1556.51  1589.37  1607.54
                             1628.20  1675.96  1714.20  1738.39  1760.54
                             1772.60  1776.40  1810.79  1857.00  1894.57
                             1911.58  1947.33  1964.98  1983.65  1986.87
                             2038.29  2046.68  2069.09  2090.66  2153.98
                             2162.55  2168.61  2179.76  2180.47  2189.24
                             2206.91  2224.37  2371.83  2399.91  2511.03
                             2656.93  4351.63  4393.36  4401.00  4405.43
                             4409.36  4431.90  4456.76  4468.69  4478.06
                             4500.91  4518.72  4551.70  4576.44  4587.19
                             4598.66  4608.57  4620.03  5291.57

 Zero-point correction=                           0.297758 (Hartree/Particle)
 Thermal correction to Energy=                    0.314532
 Thermal correction to Enthalpy=                  0.315476
 Thermal correction to Gibbs Free Energy=         0.250901
 Sum of electronic and zero-point Energies=           -769.756419
 Sum of electronic and thermal Energies=              -769.739645
 Sum of electronic and thermal Enthalpies=            -769.738700
 Sum of electronic and thermal Free Energies=         -769.803275

                     E (Thermal)             CV                S
                      KCal/Mol        Cal/Mol-Kelvin    Cal/Mol-Kelvin
 Total                  197.372             62.918            135.909
 Electronic               0.000              0.000              0.000
 Translational            0.889              2.981             42.254
 Rotational               0.889              2.981             32.903
 Vibrational            195.594             56.956             60.752
 Vibration     1          0.593              1.986              6.809
 Vibration     2          0.593              1.985              6.419
 Vibration     3          0.596              1.977              4.759
 Vibration     4          0.597              1.973              4.427
 Vibration     5          0.598              1.969              4.181
 Vibration     6          0.601              1.960              3.795
 Vibration     7          0.608              1.935              3.153
 Vibration     8          0.608              1.935              3.137
 Vibration     9          0.630              1.864              2.304
 Vibration    10          0.634              1.851              2.206
 Vibration    11          0.643              1.824              2.035
 Vibration    12          0.657              1.780              1.805
 Vibration    13          0.671              1.738              1.632
 Vibration    14          0.706              1.634              1.307
 Vibration    15          0.726              1.577              1.170
 Vibration    16          0.748              1.517              1.047
 Vibration    17          0.777              1.441              0.914
 Vibration    18          0.783              1.427              0.892
 Vibration    19          0.810              1.357              0.791
 Vibration    20          0.831              1.306              0.724
 Vibration    21          0.839              1.288              0.702
 Vibration    22          0.891              1.170              0.574
 Vibration    23          0.904              1.141              0.546
 Vibration    24          0.925              1.097              0.505

                           ! Non-Optimized Parameters !
 Normal termination of Gaussian 16 at Mon Dec 14 16:58:30 2020.

 ----------------------------------------------------------------------
 # B3LYP/6-311++G(d,p) empiricaldispersion=gd3bj scf=xqc pop=npa geom=c
 heck
 ----------------------------------------------------------------------

 --------------------------------------
 CID_11687298_JID_7302_Energie_neutraal
 --------------------------------------
 Structure from the checkpoint file:  "JID_7302.chk"
 Charge =  0 Multiplicity = 1

 SCF Done:  E(RB3LYP) =  -770.277637248     A.U. after   15 cycles
 Normal termination of Gaussian 16 at Mon Dec 14 17:05:47 2020.

 ----------------------------------------------------------------------
 # B3LYP/6-311++G(d,p) empiricaldispersion=gd3bj scf=xqc pop=npa geom=c
 heck
 ----------------------------------------------------------------------

 ------------------------------------
 CID_11687298_JID_7302_Energie_kation
 ------------------------------------
 Structure from the checkpoint file:  "JID_7302.chk"
 Charge =  1 Multiplicity = 2

 SCF Done:  E(UB3LYP) =  -769.968490043     A.U. after   27 cycles
 Normal termination of Gaussian 16 at Mon Dec 14 17:25:24 2020.
 Gaussian 16:  ES64L-G16RevA.03 25-Dec-2016

 ----------------------------------------------------------------------
 # B3LYP/6-311++G(d,p) empiricaldispersion=gd3bj scf=xqc pop=npa geom=c
 heck
 ----------------------------------------------------------------------

 -----------------------------------
 CID_11687298_JID_7302_Energie_anion
 -----------------------------------
 Structure from the checkpoint file:  "JID_7302.chk"
 Charge = -1 Multiplicity = 2

                         Standard orientation:
 ---------------------------------------------------------------------
 Center     Atomic      Atomic             Coordinates (Angstroms)
 Number     Number       Type             X           Y           Z
 ---------------------------------------------------------------------
      1          6           0       -0.751789    0.374191    1.664763
      2          6           0       -1.004304    1.505358    0.699212
      3          6           0       -0.070546    2.370062    0.272679
      4          6           0        1.392975    2.366862    0.602545
      5          8           0        2.224592    2.223223   -0.559042
      6          6           0        1.905585    1.115511   -1.391508
      7          6           0        1.945159   -0.226902   -0.692924
      8          6           0        0.958878   -1.185110   -0.939709
      9          6           0        0.994736   -2.424982   -0.300351
     10          6           0        2.014604   -2.713677    0.606427
     11          6           0        3.001336   -1.758441    0.863496
     12          6           0        2.968226   -0.525287    0.214528
     13          6           0       -2.418672    1.618253    0.168415
     14          6           0       -2.763750    0.522807   -0.862751
     15          6           0       -3.018172   -0.826764   -0.231085
     16          8           0       -3.644417   -1.019666    0.787256
     17          8           0       -2.481010   -1.843015   -0.956047
     18          1           0        0.232510    0.425162    2.131569
     19          1           0       -0.810599   -0.596070    1.159638
     20          1           0       -1.513046    0.368452    2.453190
     21          1           0       -0.370043    3.147635   -0.431423
     22          1           0        1.697839    3.331258    1.023957
     23          1           0        1.637033    1.589238    1.333748
     24          1           0        0.919477    1.247824   -1.858616
     25          1           0        2.657364    1.154366   -2.188264
     26          1           0        0.146892   -0.960357   -1.625819
     27          1           0        0.215630   -3.154687   -0.501971
     28          1           0        2.039914   -3.674064    1.113749
     29          1           0        3.796847   -1.976028    1.571059
     30          1           0        3.727860    0.225008    0.415853
     31          1           0       -3.146398    1.553255    0.986124
     32          1           0       -2.551077    2.591189   -0.315449
     33          1           0       -3.693542    0.796147   -1.379119
     34          1           0       -1.982622    0.439411   -1.622570
     35          1           0       -2.722956   -2.663359   -0.485426
 ---------------------------------------------------------------------

 SCF Done:  E(UB3LYP) =  -770.267220649     A.U. after   33 cycles
 SCF Done:  E(UB3LYP) =  -770.267220649     a.u. after    1 cycles

 The electronic state is 2-A.
 Alpha  occ. eigenvalues --  -19.06965 -19.03759 -19.01537 -10.20661 -10.13103
 Alpha  occ. eigenvalues --  -10.12712 -10.09356 -10.09094 -10.08953 -10.08697
 Alpha  occ. eigenvalues --  -10.08478 -10.08330 -10.08263 -10.08239 -10.08180
 Alpha  occ. eigenvalues --  -10.07262 -10.06790  -1.00971  -0.94583  -0.92116
 Alpha  occ. eigenvalues --   -0.76887  -0.73619  -0.68670  -0.67481  -0.65741
 Alpha  occ. eigenvalues --   -0.63394  -0.59822  -0.58207  -0.53794  -0.51825
 Alpha  occ. eigenvalues --   -0.49879  -0.48400  -0.43934  -0.42354  -0.40918
 Alpha  occ. eigenvalues --   -0.40543  -0.39525  -0.38994  -0.38133  -0.37429
 Alpha  occ. eigenvalues --   -0.35902  -0.35329  -0.34061  -0.33331  -0.32848
 Alpha  occ. eigenvalues --   -0.31910  -0.31103  -0.30724  -0.30020  -0.28133
 Alpha  occ. eigenvalues --   -0.27910  -0.27221  -0.26815  -0.26267  -0.25579
 Alpha  occ. eigenvalues --   -0.24657  -0.22670  -0.22214  -0.18642  -0.17812
 Alpha  occ. eigenvalues --   -0.16628  -0.16421  -0.15495   0.04155
 Alpha virt. eigenvalues --    0.05907   0.06504   0.06730   0.07292   0.07807
 Alpha virt. eigenvalues --    0.08134   0.08360   0.08666   0.09512   0.10008
 Alpha virt. eigenvalues --    0.10084   0.10363   0.10878   0.11293   0.12226

  Beta  occ. eigenvalues --  -19.06909 -19.03752 -19.01518 -10.20636 -10.13099
  Beta  occ. eigenvalues --  -10.12707 -10.09350 -10.09091 -10.08911 -10.08688
  Beta  occ. eigenvalues --  -10.08473 -10.08311 -10.08248 -10.08229 -10.08165
  Beta  occ. eigenvalues --  -10.07251 -10.06773  -1.00886  -0.94565  -0.92048
  Beta  occ. eigenvalues --   -0.76866  -0.73585  -0.68635  -0.67435  -0.65716
  Beta  occ. eigenvalues --   -0.63360  -0.59787  -0.58146  -0.53752  -0.51796
  Beta  occ. eigenvalues --   -0.49803  -0.48332  -0.43897  -0.42313  -0.40879
  Beta  occ. eigenvalues --   -0.40499  -0.39509  -0.38949  -0.38064  -0.37397
  Beta  occ. eigenvalues --   -0.35865  -0.35295  -0.34034  -0.33297  -0.32819
  Beta  occ. eigenvalues --   -0.31871  -0.31060  -0.30698  -0.29982  -0.28075
  Beta  occ. eigenvalues --   -0.27883  -0.27194  -0.26784  -0.26239  -0.25552
  Beta  occ. eigenvalues --   -0.24625  -0.22599  -0.22191  -0.18598  -0.17798
  Beta  occ. eigenvalues --   -0.16611  -0.16386  -0.15455
  Beta virt. eigenvalues --    0.06304   0.06635   0.06886   0.07271   0.07571
  Beta virt. eigenvalues --    0.08231   0.08417   0.08704   0.08979   0.09635
  Beta virt. eigenvalues --    0.10175   0.10375   0.10937   0.11191   0.11380

 Mulliken charges and spin densities:
               1          2
     1  C   -0.977523   0.094986
     2  C   -0.039554   0.989148
     3  C    0.832084  -1.247092
     4  C    0.191781  -0.585611
     5  O   -0.084320   0.006349
     6  C    0.115323  -0.805468
     7  C    0.243983   0.463999
     8  C   -0.828044   0.666726
     9  C    0.124907  -0.497725
    10  C    1.122950  -1.603141
    11  C    0.131240  -0.382584
    12  C   -0.514193   0.515593
    13  C   -0.704202   0.251631
    14  C    0.954822  -1.004698
    15  C    0.098700  -0.536515
    16  O   -0.248748   0.032413
    17  O   -0.138576   0.060426
    18  H   -0.062625   0.177028
    19  H    0.231657  -0.009219
    20  H    0.136367   0.058566
    21  H    0.078940   0.082415
    22  H    0.057358   0.115266
    23  H    0.175207  -0.065682
    24  H    0.017744   0.154244
    25  H    0.166229   0.012046
    26  H    0.132527   0.035290
    27  H   -0.388606   0.594856
    28  H   -0.518323   0.681128
    29  H   -0.287346   0.464482
    30  H    0.124428   0.055290
    31  H    0.149463   0.037450
    32  H   -0.357601   0.536912
    33  H   -0.834062   1.052408
    34  H    0.172457   0.019491
    35  H   -0.274444   0.579591
 Sum of Mulliken charges =  -1.00000   1.00000

 Dipole moment (field-independent basis, Debye):
    X=              5.2551    Y=              4.5717    Z=              0.5092  Tot=              6.9840
 Quadrupole moment (field-independent basis, Debye-Ang):
   XX=           -174.4196   YY=           -165.0416   ZZ=           -132.7690
   XY=              2.2897   XZ=             -8.4799   YZ=              6.7421

 Summary of Natural Population Analysis:

                                       Natural Population
                Natural  -----------------------------------------------
    Atom  No    Charge         Core      Valence    Rydberg      Total
 -----------------------------------------------------------------------
      C    1   -0.30514      0.99961     2.29982    0.00571     3.30514
      C    2    0.01291      0.99948     1.97728    0.01032     2.98709
      C    3   -0.12460      0.99944     2.11576    0.00941     3.12460
      C    4   -0.02672      0.99955     2.01535    0.01182     3.02672
      O    5   -0.29933      0.99990     3.29125    0.00819     4.29933
      C    6   -0.01693      0.99953     2.00511    0.01228     3.01693
      C    7   -0.03681      0.99949     2.02752    0.00981     3.03681
      C    8   -0.09932      0.99951     2.08985    0.00997     3.09932
      C    9   -0.09642      0.99956     2.08579    0.01107     3.09642
      C   10   -0.10084      0.99956     2.09103    0.01026     3.10084
      C   11   -0.10072      0.99956     2.09080    0.01036     3.10072
      C   12   -0.10446      0.99951     2.09503    0.00993     3.10446
      C   13   -0.19997      0.99958     2.18962    0.01076     3.19997
      C   14   -0.23556      0.99956     2.22613    0.00987     3.23556
      C   15    0.40766      0.99971     1.56717    0.02546     2.59234
      O   16   -0.30885      0.99987     3.30290    0.00609     4.30885
      O   17   -0.34605      0.99988     3.33864    0.00753     4.34605
      H   18    0.10274      0.00000     0.39627    0.00099     0.39726
      H   19    0.11159      0.00000     0.38674    0.00167     0.38841
      H   20    0.10697      0.00000     0.39213    0.00090     0.39303
      H   21    0.09500      0.00000     0.40377    0.00124     0.40500
      H   22    0.09137      0.00000     0.40745    0.00117     0.40863
      H   23    0.08630      0.00000     0.41222    0.00148     0.41370
      H   24    0.08699      0.00000     0.41144    0.00157     0.41301
      H   25    0.09406      0.00000     0.40478    0.00116     0.40594
      H   26    0.10549      0.00000     0.39256    0.00195     0.39451
      H   27    0.10710      0.00000     0.39121    0.00170     0.39290
      H   28    0.10371      0.00000     0.39472    0.00157     0.39629
      H   29    0.10051      0.00000     0.39855    0.00094     0.39949
      H   30    0.10285      0.00000     0.39557    0.00158     0.39715
      H   31    0.10834      0.00000     0.39039    0.00128     0.39166
      H   32    0.10397      0.00000     0.39468    0.00136     0.39603
      H   33    0.12174      0.00000     0.37467    0.00359     0.37826
      H   34    0.10751      0.00000     0.39047    0.00202     0.39249
      H   35    0.24493      0.00000     0.24223    0.01283     0.25507
 =======================================================================
   * Total *   -0.00000     16.99328    45.78888    0.21784    63.00000

 Normal termination of Gaussian 16 at Mon Dec 14 17:49:46 2020.
