 Gaussian 16, Revision A.03,

 -----------------------------------------------------------
 # opt freq B3LYP/6-31G(d) empiricaldispersion=gd3bj scf=xqc
 -----------------------------------------------------------

 -------------------------------
 CID_115154051_JID_8966_neutraal
 -------------------------------
 Symbolic Z-matrix:
 Charge =  0 Multiplicity = 1

 SCF Done:  E(RB3LYP) =  -770.861654831     A.U. after   15 cycles
 SCF Done:  E(RB3LYP) =  -770.867068535     A.U. after   13 cycles
 SCF Done:  E(RB3LYP) =  -770.867379614     A.U. after   12 cycles
 SCF Done:  E(RB3LYP) =  -770.868155202     A.U. after   12 cycles
 SCF Done:  E(RB3LYP) =  -770.868644422     A.U. after   12 cycles
 SCF Done:  E(RB3LYP) =  -770.869388477     A.U. after   13 cycles
 SCF Done:  E(RB3LYP) =  -770.869872858     A.U. after   12 cycles
 SCF Done:  E(RB3LYP) =  -770.869994464     A.U. after   12 cycles
 SCF Done:  E(RB3LYP) =  -770.870473747     A.U. after   12 cycles
 SCF Done:  E(RB3LYP) =  -770.870547312     A.U. after   10 cycles
 SCF Done:  E(RB3LYP) =  -770.873155310     A.U. after   10 cycles
 SCF Done:  E(RB3LYP) =  -770.873155905     A.U. after    9 cycles
 SCF Done:  E(RB3LYP) =  -770.873156437     A.U. after    8 cycles
 SCF Done:  E(RB3LYP) =  -770.873156571     A.U. after    8 cycles
 SCF Done:  E(RB3LYP) =  -770.873156589     A.U. after    6 cycles
 Optimization completed.
    -- Stationary point found.
 Normal termination of Gaussian 16 at Fri Dec 11 23:23:39 2020.

 --------------------------------------------------------------------
 #N Geom=AllCheck Guess=TCheck SCRF=Check GenChk RB3LYP/6-31G(d) Freq
 --------------------------------------------------------------------

 Structure from the checkpoint file:  "JID_8966.chk"
 -------------------------------
 CID_115154051_JID_8966_neutraal
 -------------------------------
 Charge =  0 Multiplicity = 1

 SCF Done:  E(RB3LYP) =  -770.873156589     A.U. after    1 cycles

  Exact polarizability: 251.300   8.421 155.249   9.473 -14.023 126.959
 Approx polarizability: 294.355  13.694 255.113  21.988 -38.157 203.228

                      1                      2                      3
                      A                      A                      A
 Frequencies --     23.4473                30.1167                43.2398
 Red. masses --      3.5995                 3.8733                 3.6995
 Frc consts  --      0.0012                 0.0021                 0.0041
 IR Inten    --      0.2662                 1.2315                 0.4437

                      4                      5                      6
                      A                      A                      A
 Frequencies --     51.9886                63.1233                78.4173
 Red. masses --      3.2215                 3.4153                 3.4160
 Frc consts  --      0.0051                 0.0080                 0.0124
 IR Inten    --      0.4102                 0.5530                 2.3638

                      7                      8                      9
                      A                      A                      A
 Frequencies --     87.8813               130.8341               150.4331
 Red. masses --      3.9150                 2.7979                 3.5030
 Frc consts  --      0.0178                 0.0282                 0.0467
 IR Inten    --      0.3358                 1.5974                 3.1994

                     10                     11                     12
                      A                      A                      A
 Frequencies --    175.4014               200.4806               224.4135
 Red. masses --      1.9994                 1.5486                 2.2154
 Frc consts  --      0.0362                 0.0367                 0.0657
 IR Inten    --      0.5586                 0.7318                 2.0787

                     13                     14                     15
                      A                      A                      A
 Frequencies --    234.8389               251.4681               255.8757
 Red. masses --      1.2581                 2.0750                 1.3983
 Frc consts  --      0.0409                 0.0773                 0.0539
 IR Inten    --      0.8499                 5.3498                 0.4644

                     16                     17                     18
                      A                      A                      A
 Frequencies --    264.1400               281.3280               299.6822
 Red. masses --      1.0424                 1.4327                 2.6224
 Frc consts  --      0.0429                 0.0668                 0.1388
 IR Inten    --      5.3214                41.1964                 1.0726

                     19                     20                     21
                      A                      A                      A
 Frequencies --    327.7645               338.9945               377.0133
 Red. masses --      2.5967                 3.3875                 2.6496
 Frc consts  --      0.1644                 0.2294                 0.2219
 IR Inten    --      2.6085                12.4293                 2.5641

                     22                     23                     24
                      A                      A                      A
 Frequencies --    377.9720               417.9657               421.5750
 Red. masses --      2.7286                 2.7671                 2.8584
 Frc consts  --      0.2297                 0.2848                 0.2993
 IR Inten    --      2.0433                 3.1113                 4.8146

                     25                     26                     27
                      A                      A                      A
 Frequencies --    426.1329               435.9514               451.8456
 Red. masses --      2.2780                 2.4796                 3.4611
 Frc consts  --      0.2437                 0.2777                 0.4163
 IR Inten    --      0.1089                 6.4357                 1.8894

                     28                     29                     30
                      A                      A                      A
 Frequencies --    471.6631               537.0111               585.8340
 Red. masses --      2.2905                 3.0902                 4.1633
 Frc consts  --      0.3002                 0.5251                 0.8419
 IR Inten    --      2.3313                 9.2166                 2.9404

                     31                     32                     33
                      A                      A                      A
 Frequencies --    589.3563               653.6860               662.5510
 Red. masses --      3.0586                 4.6883                 5.1445
 Frc consts  --      0.6259                 1.1803                 1.3306
 IR Inten    --      3.5968                 7.0347                10.3961

                     34                     35                     36
                      A                      A                      A
 Frequencies --    727.7827               762.6777               813.4322
 Red. masses --      3.9087                 4.5772                 2.3542
 Frc consts  --      1.2198                 1.5687                 0.9178
 IR Inten    --      2.2795                 4.1534                12.4602

                     37                     38                     39
                      A                      A                      A
 Frequencies --    838.5428               845.8781               857.1401
 Red. masses --      1.2675                 3.6528                 2.7768
 Frc consts  --      0.5251                 1.5399                 1.2020
 IR Inten    --      1.1084                 2.2103                 3.1059

                     40                     41                     42
                      A                      A                      A
 Frequencies --    862.3515               898.3371               904.5227
 Red. masses --      2.0262                 2.9159                 1.5017
 Frc consts  --      0.8878                 1.3864                 0.7239
 IR Inten    --     24.0790                20.2308                 2.2391

                     43                     44                     45
                      A                      A                      A
 Frequencies --    920.7018               940.1441               943.6221
 Red. masses --      1.5984                 1.4154                 1.1888
 Frc consts  --      0.7983                 0.7371                 0.6237
 IR Inten    --     70.9607                77.6761                 2.0807

                     46                     47                     48
                      A                      A                      A
 Frequencies --    948.7791               961.7233               968.6402
 Red. masses --      1.3464                 1.4506                 1.6997
 Frc consts  --      0.7141                 0.7905                 0.9396
 IR Inten    --      0.7687                 0.7511                 0.3973

                     49                     50                     51
                      A                      A                      A
 Frequencies --    979.8250               983.1365              1043.1866
 Red. masses --      1.4965                 1.7730                 2.8547
 Frc consts  --      0.8465                 1.0097                 1.8304
 IR Inten    --      0.0272                 4.2014                 2.6315

                     52                     53                     54
                      A                      A                      A
 Frequencies --   1049.5101              1103.6239              1109.8109
 Red. masses --      1.5380                 1.9665                 1.6284
 Frc consts  --      0.9981                 1.4112                 1.1817
 IR Inten    --     10.7433                88.8365                 2.7448

                     55                     56                     57
                      A                      A                      A
 Frequencies --   1134.1148              1144.4699              1149.3065
 Red. masses --      1.6342                 2.1288                 2.0410
 Frc consts  --      1.2384                 1.6428                 1.5884
 IR Inten    --    125.8021                 5.9642                 3.2014

                     58                     59                     60
                      A                      A                      A
 Frequencies --   1159.1272              1163.3486              1189.5093
 Red. masses --      1.6014                 1.3871                 1.5867
 Frc consts  --      1.2677                 1.1061                 1.3227
 IR Inten    --      8.8836                 7.6292                32.9382

                     61                     62                     63
                      A                      A                      A
 Frequencies --   1205.6799              1209.3115              1223.2397
 Red. masses --      1.7382                 1.7740                 1.1407
 Frc consts  --      1.4887                 1.5286                 1.0056
 IR Inten    --     11.2684                11.9425                 0.1106

                     64                     65                     66
                      A                      A                      A
 Frequencies --   1244.6694              1261.1620              1270.8685
 Red. masses --      2.5392                 1.5324                 1.8806
 Frc consts  --      2.3177                 1.4361                 1.7896
 IR Inten    --      1.9368                 5.0065                23.5501

                     67                     68                     69
                      A                      A                      A
 Frequencies --   1290.7256              1330.9085              1343.7028
 Red. masses --      2.0384                 1.3597                 2.2992
 Frc consts  --      2.0008                 1.4190                 2.4458
 IR Inten    --     21.3906                11.2790                94.0456

                     70                     71                     72
                      A                      A                      A
 Frequencies --   1357.0194              1364.7554              1387.4008
 Red. masses --      1.6405                 2.5675                 1.4278
 Frc consts  --      1.7799                 2.8175                 1.6192
 IR Inten    --      0.8529                 1.2041                 7.4173

                     73                     74                     75
                      A                      A                      A
 Frequencies --   1388.1166              1392.0113              1407.9442
 Red. masses --      1.4581                 1.4464                 1.7753
 Frc consts  --      1.6553                 1.6513                 2.0734
 IR Inten    --     50.5747                 2.5668               143.8363

                     76                     77                     78
                      A                      A                      A
 Frequencies --   1427.8786              1429.8375              1435.3807
 Red. masses --      1.3342                 1.2815                 1.6242
 Frc consts  --      1.6027                 1.5436                 1.9716
 IR Inten    --     35.1781                 3.2729                92.8719

                     79                     80                     81
                      A                      A                      A
 Frequencies --   1448.1571              1472.0762              1487.4366
 Red. masses --      1.2375                 2.7949                 1.1038
 Frc consts  --      1.5291                 3.5685                 1.4388
 IR Inten    --      4.0890                 7.1453                15.4701

                     82                     83                     84
                      A                      A                      A
 Frequencies --   1493.8368              1513.0405              1519.6977
 Red. masses --      1.1695                 1.0846                 1.0448
 Frc consts  --      1.5376                 1.4629                 1.4216
 IR Inten    --     21.2746                 0.5850                 1.2690

                     85                     86                     87
                      A                      A                      A
 Frequencies --   1520.1878              1526.3379              1532.6184
 Red. masses --      1.0624                 1.0678                 1.0502
 Frc consts  --      1.4466                 1.4657                 1.4534
 IR Inten    --      9.7571                 2.1265                 8.8394

                     88                     89                     90
                      A                      A                      A
 Frequencies --   1534.2368              1540.5950              1540.7589
 Red. masses --      1.0512                 1.0509                 1.0504
 Frc consts  --      1.4579                 1.4695                 1.4692
 IR Inten    --      4.1598                 9.7568                 9.2655

                     91                     92                     93
                      A                      A                      A
 Frequencies --   1544.9265              1566.3405              1633.9933
 Red. masses --      1.0703                 2.5062                 6.4712
 Frc consts  --      1.5052                 3.6228                10.1797
 IR Inten    --     30.5362                99.5233                 1.1720

                     94                     95                     96
                      A                      A                      A
 Frequencies --   1674.7662              1698.6131              1761.4662
 Red. masses --      5.8461                 1.0896                11.0042
 Frc consts  --      9.6611                 1.8522                20.1166
 IR Inten    --     11.1631                21.5271               208.8252

                     97                     98                     99
                      A                      A                      A
 Frequencies --   3018.8553              3029.8059              3030.7888
 Red. masses --      1.0817                 1.0496                 1.0578
 Frc consts  --      5.8083                 5.6767                 5.7249
 IR Inten    --      5.4295                22.3809                27.8626

                    100                    101                    102
                      A                      A                      A
 Frequencies --   3033.4839              3036.2330              3036.4359
 Red. masses --      1.0537                 1.0372                 1.0524
 Frc consts  --      5.7131                 5.6338                 5.7169
 IR Inten    --      5.5599                42.2555                48.8354

                    103                    104                    105
                      A                      A                      A
 Frequencies --   3042.4115              3070.5360              3072.9843
 Red. masses --      1.0405                 1.1038                 1.0943
 Frc consts  --      5.6743                 6.1315                 6.0883
 IR Inten    --     46.5896                19.7522                 4.4682

                    106                    107                    108
                      A                      A                      A
 Frequencies --   3085.0809              3099.0683              3102.7448
 Red. masses --      1.0912                 1.1003                 1.0956
 Frc consts  --      6.1189                 6.2264                 6.2144
 IR Inten    --     18.5011                 8.0988                46.6821

                    109                    110                    111
                      A                      A                      A
 Frequencies --   3105.2462              3111.0099              3126.9731
 Red. masses --      1.1004                 1.1021                 1.1008
 Frc consts  --      6.2514                 6.2847                 6.3417
 IR Inten    --     62.0349                46.6471                37.8820

                    112                    113                    114
                      A                      A                      A
 Frequencies --   3129.5545              3142.7299              3167.9268
 Red. masses --      1.0840                 1.0986                 1.1044
 Frc consts  --      6.2552                 6.3927                 6.5302
 IR Inten    --     19.4803                18.1649                20.0529

                    115                    116                    117
                      A                      A                      A
 Frequencies --   3179.5134              3181.0494              3206.9093
 Red. masses --      1.0896                 1.0881                 1.0928
 Frc consts  --      6.4901                 6.4875                 6.6218
 IR Inten    --     17.7555                17.3416                14.4466

                    118                    119                    120
                      A                      A                      A
 Frequencies --   3260.5170              3437.6564              3524.7035
 Red. masses --      1.0925                 1.0506                 1.0903
 Frc consts  --      6.8427                 7.3148                 7.9806
 IR Inten    --      1.8208                 4.8772                 1.8039

 - Thermochemistry -
 -------------------
 Temperature   298.150 Kelvin.  Pressure   1.00000 Atm.
 Atom     1 has atomic number  6 and mass  12.00000

 Molecular mass:   248.18886 amu.
 Principal axes and moments of inertia in atomic units:
                           1         2         3
     Eigenvalues --  1324.74428********************
           X            0.99999   0.00132  -0.00453
           Y           -0.00131   1.00000   0.00285
           Z            0.00454  -0.00284   0.99999
 This molecule is an asymmetric top.
 Rotational symmetry number  1.
 Warning -- assumption of classical behavior for rotation
           may cause significant error
 Rotational temperatures (Kelvin)      0.06538     0.00667     0.00641
 Rotational constants (GHZ):           1.36233     0.13898     0.13353
 Zero-point vibrational energy     978172.0 (Joules/Mol)
                                  233.78872 (Kcal/Mol)
 Warning -- explicit consideration of  31 degrees of freedom as
           vibrations may cause significant error
 Vibrational temperatures:     33.74    43.33    62.21    74.80    90.82
          (Kelvin)            112.83   126.44   188.24   216.44   252.36
                              288.45   322.88   337.88   361.81   368.15
                              380.04   404.77   431.18   471.58   487.74
                              542.44   543.82   601.36   606.55   613.11
                              627.24   650.11   678.62   772.64   842.88
                              847.95   940.51   953.26  1047.12  1097.32
                             1170.35  1206.48  1217.03  1233.23  1240.73
                             1292.51  1301.41  1324.68  1352.66  1357.66
                             1365.08  1383.71  1393.66  1409.75  1414.51
                             1500.91  1510.01  1587.87  1596.77  1631.74
                             1646.64  1653.60  1667.73  1673.80  1711.44
                             1734.70  1739.93  1759.97  1790.80  1814.53
                             1828.50  1857.07  1914.88  1933.29  1952.45
                             1963.58  1996.16  1997.19  2002.79  2025.72
                             2054.40  2057.22  2065.19  2083.58  2117.99
                             2140.09  2149.30  2176.93  2186.51  2187.21
                             2196.06  2205.10  2207.42  2216.57  2216.81
                             2222.80  2253.61  2350.95  2409.62  2443.93
                             2534.36  4343.46  4359.21  4360.63  4364.51
                             4368.46  4368.75  4377.35  4417.82  4421.34
                             4438.74  4458.87  4464.16  4467.76  4476.05
                             4499.02  4502.73  4521.69  4557.94  4574.61
                             4576.82  4614.03  4691.16  4946.02  5071.26

 Zero-point correction=                           0.372566 (Hartree/Particle)
 Thermal correction to Energy=                    0.392337
 Thermal correction to Enthalpy=                  0.393281
 Thermal correction to Gibbs Free Energy=         0.323113
 Sum of electronic and zero-point Energies=           -770.500591
 Sum of electronic and thermal Energies=              -770.480820
 Sum of electronic and thermal Enthalpies=            -770.479876
 Sum of electronic and thermal Free Energies=         -770.550044

                     E (Thermal)             CV                S
                      KCal/Mol        Cal/Mol-Kelvin    Cal/Mol-Kelvin
 Total                  246.195             74.301            147.682
 Electronic               0.000              0.000              0.000
 Translational            0.889              2.981             42.428
 Rotational               0.889              2.981             33.808
 Vibrational            244.418             68.340             71.446
 Vibration     1          0.593              1.985              6.318
 Vibration     2          0.594              1.984              5.822
 Vibration     3          0.595              1.980              5.105
 Vibration     4          0.596              1.977              4.740
 Vibration     5          0.597              1.972              4.357
 Vibration     6          0.600              1.964              3.930
 Vibration     7          0.601              1.958              3.707
 Vibration     8          0.612              1.922              2.934
 Vibration     9          0.618              1.902              2.667
 Vibration    10          0.627              1.873              2.377
 Vibration    11          0.638              1.839              2.129
 Vibration    12          0.649              1.804              1.923
 Vibration    13          0.655              1.788              1.842
 Vibration    14          0.663              1.760              1.720
 Vibration    15          0.666              1.753              1.690
 Vibration    16          0.671              1.739              1.634
 Vibration    17          0.681              1.708              1.526
 Vibration    18          0.692              1.674              1.419
 Vibration    19          0.711              1.620              1.271
 Vibration    20          0.719              1.598              1.217
 Vibration    21          0.748              1.519              1.051
 Vibration    22          0.748              1.517              1.047
 Vibration    23          0.781              1.431              0.899
 Vibration    24          0.784              1.423              0.887
 Vibration    25          0.788              1.413              0.871
 Vibration    26          0.796              1.392              0.839
 Vibration    27          0.811              1.357              0.790
 Vibration    28          0.829              1.313              0.733
 Vibration    29          0.892              1.168              0.572
 Vibration    30          0.943              1.062              0.475
 Vibration    31          0.947              1.054              0.468

 Optimization completed.
    -- Stationary point found.
 Normal termination of Gaussian 16 at Fri Dec 11 23:40:05 2020.

 ----------------------------------------------------------------------
 # B3LYP/6-311++G(d,p) empiricaldispersion=gd3bj scf=xqc pop=npa geom=c
 heck
 ----------------------------------------------------------------------

 ---------------------------------------
 CID_115154051_JID_8966_Energie_neutraal
 ---------------------------------------
 Structure from the checkpoint file:  "JID_8966.chk"
 Charge =  0 Multiplicity = 1

 SCF Done:  E(RB3LYP) =  -771.091400231     A.U. after   16 cycles
 Normal termination of Gaussian 16 at Fri Dec 11 23:49:11 2020.

 ----------------------------------------------------------------------
 # B3LYP/6-311++G(d,p) empiricaldispersion=gd3bj scf=xqc pop=npa geom=c
 heck
 ----------------------------------------------------------------------

 -------------------------------------
 CID_115154051_JID_8966_Energie_kation
 -------------------------------------
 Structure from the checkpoint file:  "JID_8966.chk"
 Charge =  1 Multiplicity = 2

 SCF Done:  E(UB3LYP) =  -770.808670953     A.U. after   23 cycles
 Normal termination of Gaussian 16 at Sat Dec 12 00:08:01 2020.
 Gaussian 16:  ES64L-G16RevA.03 25-Dec-2016

 ----------------------------------------------------------------------
 # B3LYP/6-311++G(d,p) empiricaldispersion=gd3bj scf=xqc pop=npa geom=c
 heck
 ----------------------------------------------------------------------

 ------------------------------------
 CID_115154051_JID_8966_Energie_anion
 ------------------------------------
 Structure from the checkpoint file:  "JID_8966.chk"
 Charge = -1 Multiplicity = 2

                         Standard orientation:
 ---------------------------------------------------------------------
 Center     Atomic      Atomic             Coordinates (Angstroms)
 Number     Number       Type             X           Y           Z
 ---------------------------------------------------------------------
      1          6           0       -5.041146    1.195469    0.639892
      2          6           0       -5.012078   -0.327341    0.473665
      3          6           0       -6.424373   -0.886523    0.270286
      4          6           0       -4.091205   -0.756587   -0.691962
      5          6           0       -2.646222   -0.364422   -0.500281
      6          6           0       -2.087182    0.725748   -1.171840
      7          6           0       -0.760452    1.100417   -0.963434
      8          6           0        0.042183    0.394312   -0.061388
      9          6           0       -0.505858   -0.699791    0.621461
     10          6           0       -1.827499   -1.067324    0.394079
     11          7           0        1.386408    0.820137    0.171203
     12          6           0        1.642175    2.259969    0.185078
     13          6           0        2.421380   -0.101185    0.221954
     14          8           0        2.224130   -1.309271    0.172477
     15          6           0        3.830085    0.470073    0.363086
     16          6           0        4.923138   -0.596369    0.239058
     17          6           0        5.028335   -1.145762   -1.189075
     18          7           0        6.174888   -0.012867    0.752966
     19          1           0       -5.442942    1.675489   -0.262414
     20          1           0       -4.038833    1.598407    0.815138
     21          1           0       -5.678394    1.485825    1.482990
     22          1           0       -4.598886   -0.762383    1.395480
     23          1           0       -6.873679   -0.483811   -0.646735
     24          1           0       -6.413839   -1.979493    0.184548
     25          1           0       -7.080545   -0.619202    1.106564
     26          1           0       -4.162640   -1.846116   -0.808185
     27          1           0       -4.474696   -0.317038   -1.622684
     28          1           0       -2.694277    1.288452   -1.876623
     29          1           0       -0.348791    1.938373   -1.517083
     30          1           0        0.107458   -1.261517    1.312205
     31          1           0       -2.235672   -1.921296    0.929766
     32          1           0        2.432713    2.500625    0.897242
     33          1           0        1.931491    2.649764   -0.800220
     34          1           0        0.732492    2.769909    0.505792
     35          1           0        3.996895    1.261070   -0.381491
     36          1           0        3.931831    0.948152    1.345959
     37          1           0        4.654774   -1.419596    0.908971
     38          1           0        5.281954   -0.341019   -1.893458
     39          1           0        5.815990   -1.906086   -1.252180
     40          1           0        4.086480   -1.603078   -1.504142
     41          1           0        6.897472   -0.732664    0.752869
     42          1           0        6.503854    0.696405    0.095217
 ---------------------------------------------------------------------

 SCF Done:  E(UB3LYP) =  -771.082033271     A.U. after   33 cycles
 SCF Done:  E(UB3LYP) =  -771.082033271     a.u. after    1 cycles

 The electronic state is 2-A.
 Alpha  occ. eigenvalues --  -18.99655 -14.26042 -14.20440 -10.18311 -10.12355
 Alpha  occ. eigenvalues --  -10.11318 -10.10913 -10.09439 -10.08918 -10.08561
 Alpha  occ. eigenvalues --  -10.08431 -10.08409 -10.08353 -10.08273 -10.08204
 Alpha  occ. eigenvalues --  -10.07914 -10.07303 -10.06429  -0.95070  -0.85521
 Alpha  occ. eigenvalues --   -0.80090  -0.76904  -0.72757  -0.68262  -0.66365
 Alpha  occ. eigenvalues --   -0.66020  -0.62135  -0.61682  -0.60341  -0.58887
 Alpha  occ. eigenvalues --   -0.53026  -0.52300  -0.49494  -0.47770  -0.46224
 Alpha  occ. eigenvalues --   -0.42311  -0.41515  -0.39748  -0.38742  -0.38495
 Alpha  occ. eigenvalues --   -0.37546  -0.36343  -0.35834  -0.35457  -0.34491
 Alpha  occ. eigenvalues --   -0.34039  -0.33270  -0.32710  -0.31670  -0.31373
 Alpha  occ. eigenvalues --   -0.30754  -0.30496  -0.29881  -0.29328  -0.28433
 Alpha  occ. eigenvalues --   -0.27837  -0.26695  -0.25941  -0.25700  -0.25073
 Alpha  occ. eigenvalues --   -0.24626  -0.24479  -0.24177  -0.18891  -0.17286
 Alpha  occ. eigenvalues --   -0.16085  -0.15867  -0.13212   0.03723
 Alpha virt. eigenvalues --    0.05009   0.06043   0.06547   0.06936   0.07405
 Alpha virt. eigenvalues --    0.07636   0.07672   0.08053   0.08589   0.08992
 Alpha virt. eigenvalues --    0.09257   0.10057   0.10128   0.10401   0.10651

  Beta  occ. eigenvalues --  -18.99641 -14.26042 -14.20412 -10.18302 -10.12343
  Beta  occ. eigenvalues --  -10.11271 -10.10911 -10.09436 -10.08910 -10.08553
  Beta  occ. eigenvalues --  -10.08409 -10.08397 -10.08331 -10.08259 -10.08200
  Beta  occ. eigenvalues --  -10.07892 -10.07285 -10.06410  -0.95045  -0.85500
  Beta  occ. eigenvalues --   -0.80049  -0.76877  -0.72737  -0.68222  -0.66329
  Beta  occ. eigenvalues --   -0.65981  -0.62077  -0.61638  -0.60301  -0.58853
  Beta  occ. eigenvalues --   -0.52994  -0.52255  -0.49447  -0.47729  -0.46187
  Beta  occ. eigenvalues --   -0.42271  -0.41481  -0.39705  -0.38713  -0.38457
  Beta  occ. eigenvalues --   -0.37503  -0.36315  -0.35805  -0.35428  -0.34453
  Beta  occ. eigenvalues --   -0.34006  -0.33249  -0.32678  -0.31642  -0.31334
  Beta  occ. eigenvalues --   -0.30715  -0.30473  -0.29843  -0.29302  -0.28389
  Beta  occ. eigenvalues --   -0.27805  -0.26656  -0.25918  -0.25668  -0.25040
  Beta  occ. eigenvalues --   -0.24594  -0.24444  -0.24157  -0.18843  -0.17240
  Beta  occ. eigenvalues --   -0.16032  -0.15837  -0.13156
  Beta virt. eigenvalues --    0.05381   0.05952   0.06672   0.06807   0.07196
  Beta virt. eigenvalues --    0.07560   0.07842   0.07905   0.08501   0.08845
  Beta virt. eigenvalues --    0.09264   0.09413   0.10098   0.10293   0.10758

 Mulliken charges and spin densities:
               1          2
     1  C   -0.058347  -0.638499
     2  C   -0.616590   1.101487
     3  C    0.198092  -0.885561
     4  C    0.075227  -1.230733
     5  C    1.655850  -0.166642
     6  C   -0.150488  -0.088740
     7  C   -0.134124   0.006896
     8  C   -0.707734   0.136910
     9  C   -0.240553   0.226607
    10  C   -0.708070   0.290258
    11  N    0.134274   0.141388
    12  C    1.073922  -1.494895
    13  C   -0.281739   0.158246
    14  O   -0.276989   0.011406
    15  C    0.614225  -0.904123
    16  C   -0.564713   0.149979
    17  C   -0.019447  -0.509587
    18  N   -0.322310   0.018131
    19  H   -0.024167   0.168139
    20  H    0.160359  -0.013174
    21  H   -0.029543   0.160787
    22  H    0.080415   0.062361
    23  H   -0.051193   0.182482
    24  H   -0.114669   0.244576
    25  H   -0.038190   0.173637
    26  H    0.128097   0.032180
    27  H    0.115938   0.038938
    28  H   -0.249986   0.413565
    29  H   -0.168823   0.354547
    30  H    0.150873   0.059853
    31  H   -0.017908   0.171916
    32  H   -0.279597   0.441082
    33  H   -0.481018   0.692905
    34  H   -0.077935   0.240085
    35  H   -0.024831   0.216701
    36  H    0.064972   0.153415
    37  H    0.174449   0.014822
    38  H   -0.143849   0.274451
    39  H   -0.028350   0.148129
    40  H    0.149111   0.038460
    41  H    0.045666   0.182812
    42  H   -0.010311   0.224803
 Sum of Mulliken charges =  -1.00000   1.00000

 Dipole moment (field-independent basis, Debye):
    X=             -3.1657    Y=             -2.8597    Z=              1.2947  Tot=              4.4582
 Quadrupole moment (field-independent basis, Debye-Ang):
   XX=           -240.9011   YY=           -156.4714   ZZ=           -144.0493
   XY=             -9.8053   XZ=              0.1798   YZ=              1.5993

 Summary of Natural Population Analysis:

                                       Natural Population
                Natural  -----------------------------------------------
    Atom  No    Charge         Core      Valence    Rydberg      Total
 -----------------------------------------------------------------------
      C    1   -0.28645      0.99965     2.28185    0.00495     3.28645
      C    2   -0.10961      0.99961     2.10204    0.00796     3.10961
      C    3   -0.28223      0.99965     2.27770    0.00489     3.28223
      C    4   -0.19425      0.99958     2.18573    0.00894     3.19425
      C    5   -0.01918      0.99950     2.01008    0.00959     3.01918
      C    6   -0.09890      0.99951     2.08979    0.00960     3.09890
      C    7   -0.10707      0.99952     2.09848    0.00908     3.10707
      C    8    0.08395      0.99946     1.90450    0.01209     2.91605
      C    9   -0.09461      0.99952     2.08651    0.00858     3.09461
      C   10   -0.09593      0.99951     2.08855    0.00787     3.09593
      N   11   -0.25373      0.99962     2.74293    0.01118     3.75373
      C   12   -0.17915      0.99963     2.17179    0.00773     3.17915
      C   13    0.35584      0.99965     1.62221    0.02229     2.64416
      O   14   -0.32060      0.99988     3.31586    0.00487     4.32060
      C   15   -0.23967      0.99957     2.23099    0.00911     3.23967
      C   16   -0.01523      0.99962     2.00335    0.01226     3.01523
      C   17   -0.29556      0.99964     2.29019    0.00572     3.29556
      N   18   -0.42052      0.99977     2.91067    0.01008     3.92052
      H   19    0.09520      0.00000     0.40364    0.00116     0.40480
      H   20    0.10567      0.00000     0.39333    0.00100     0.39433
      H   21    0.09738      0.00000     0.40169    0.00093     0.40262
      H   22    0.09229      0.00000     0.40598    0.00173     0.40771
      H   23    0.09590      0.00000     0.40292    0.00118     0.40410
      H   24    0.09797      0.00000     0.40090    0.00112     0.40203
      H   25    0.09805      0.00000     0.40087    0.00107     0.40195
      H   26    0.10238      0.00000     0.39660    0.00102     0.39762
      H   27    0.09747      0.00000     0.40050    0.00203     0.40253
      H   28    0.10044      0.00000     0.39851    0.00106     0.39956
      H   29    0.10639      0.00000     0.39237    0.00123     0.39361
      H   30    0.11329      0.00000     0.38575    0.00096     0.38671
      H   31    0.09773      0.00000     0.40099    0.00127     0.40227
      H   32    0.10389      0.00000     0.39477    0.00135     0.39611
      H   33    0.09830      0.00000     0.39902    0.00269     0.40170
      H   34    0.10414      0.00000     0.39464    0.00122     0.39586
      H   35    0.10859      0.00000     0.38988    0.00153     0.39141
      H   36    0.11776      0.00000     0.38071    0.00153     0.38224
      H   37    0.09626      0.00000     0.40198    0.00176     0.40374
      H   38    0.09461      0.00000     0.40411    0.00128     0.40539
      H   39    0.09499      0.00000     0.40408    0.00093     0.40501
      H   40    0.11072      0.00000     0.38841    0.00088     0.38928
      H   41    0.17235      0.00000     0.32611    0.00154     0.32765
      H   42    0.17116      0.00000     0.32678    0.00206     0.32884
 =======================================================================
   * Total *    0.00000     17.99291    49.80774    0.19935    68.00000

 Normal termination of Gaussian 16 at Sat Dec 12 00:34:08 2020.
