 Gaussian 16, Revision A.03,

 -----------------------------------------------------------
 # opt freq B3LYP/6-31G(d) empiricaldispersion=gd3bj scf=xqc
 -----------------------------------------------------------

 -----------------------------
 CID_60912995_JID_297_neutraal
 -----------------------------
 Symbolic Z-matrix:
 Charge =  0 Multiplicity = 1

 SCF Done:  E(RB3LYP) =  -441.258418290     A.U. after   14 cycles
 SCF Done:  E(RB3LYP) =  -441.262025681     A.U. after   12 cycles
 SCF Done:  E(RB3LYP) =  -441.260443656     A.U. after   13 cycles
 SCF Done:  E(RB3LYP) =  -441.262036748     A.U. after   12 cycles
 SCF Done:  E(RB3LYP) =  -441.262869063     A.U. after   12 cycles
 SCF Done:  E(RB3LYP) =  -441.262796121     A.U. after   12 cycles
 SCF Done:  E(RB3LYP) =  -441.263034218     A.U. after   11 cycles
 SCF Done:  E(RB3LYP) =  -441.263127945     A.U. after   12 cycles
 SCF Done:  E(RB3LYP) =  -441.263180778     A.U. after   12 cycles
 SCF Done:  E(RB3LYP) =  -441.263222316     A.U. after   10 cycles
 SCF Done:  E(RB3LYP) =  -441.263242477     A.U. after    9 cycles
 SCF Done:  E(RB3LYP) =  -441.263244042     A.U. after    9 cycles
 SCF Done:  E(RB3LYP) =  -441.263244399     A.U. after    8 cycles
 SCF Done:  E(RB3LYP) =  -441.263244463     A.U. after    8 cycles
 SCF Done:  E(RB3LYP) =  -441.263244266     A.U. after    8 cycles
 SCF Done:  E(RB3LYP) =  -441.263244379     A.U. after    8 cycles
 Optimization completed.
    -- Stationary point found.

 1\1\GINC-NODE106\FOpt\RB3LYP\6-31G(d)\C7H17N3\VSC10255\08-Dec-2020\0\\
 # opt freq B3LYP/6-31G(d) empiricaldispersion=gd3bj scf=xqc\\CID_60912
 995_JID_297_neutraal\\0,1\C,1.0371984508,-0.1249116392,-0.0790535943\C
 ,0.6655133692,-0.6029076681,1.3236533835\N,1.2192381505,0.1950096211,2
 .4259769222\C,0.5646239907,-0.1605359786,3.6849016121\C,2.7004335953,0
 .197104617,2.5833764045\C,3.3585446722,-1.1728256505,2.3578608274\C,3.
 3927886731,1.2910280533,1.7426684109\C,3.0943731345,2.7390728214,2.125
 1144093\N,3.9131780039,3.7199910064,1.9877651188\N,1.8399872175,2.9536

 Normal termination of Gaussian 16 at Tue Dec  8 10:26:29 2020.

 --------------------------------------------------------------------
 #N Geom=AllCheck Guess=TCheck SCRF=Check GenChk RB3LYP/6-31G(d) Freq
 --------------------------------------------------------------------

 Structure from the checkpoint file:  "JID_297.chk"
 -----------------------------
 CID_60912995_JID_297_neutraal
 -----------------------------
 Charge =  0 Multiplicity = 1

 SCF Done:  E(RB3LYP) =  -441.263244379     A.U. after    1 cycles

  Exact polarizability: 109.132   5.657  93.148  -0.078   2.326  80.571
 Approx polarizability: 147.956  11.073 133.792   0.245   3.524 110.534

                      1                      2                      3
                      A                      A                      A
 Frequencies --     42.3972                64.4092               121.9615
 Red. masses --      3.7356                 4.2703                 2.8487
 Frc consts  --      0.0040                 0.0104                 0.0250
 IR Inten    --      1.6908                 1.3005                 1.0151

                      4                      5                      6
                      A                      A                      A
 Frequencies --    138.3552               189.6715               231.1507
 Red. masses --      2.2486                 2.5554                 1.1774
 Frc consts  --      0.0254                 0.0542                 0.0371
 IR Inten    --      0.7658                 0.6608                 0.2417

                      7                      8                      9
                      A                      A                      A
 Frequencies --    243.6339               260.8540               286.7575
 Red. masses --      2.5163                 1.0678                 1.5790
 Frc consts  --      0.0880                 0.0428                 0.0765
 IR Inten    --      3.7369                 0.0331                 0.6119

                     10                     11                     12
                      A                      A                      A
 Frequencies --    310.7667               317.4569               353.9689
 Red. masses --      2.4885                 1.7684                 2.5351
 Frc consts  --      0.1416                 0.1050                 0.1871
 IR Inten    --      2.2979                 1.2659                 7.9296

                     13                     14                     15
                      A                      A                      A
 Frequencies --    389.9824               451.6689               485.0763
 Red. masses --      2.2285                 2.4267                 1.4979
 Frc consts  --      0.1997                 0.2917                 0.2077
 IR Inten    --      0.4726                 3.4933                63.6347

                     16                     17                     18
                      A                      A                      A
 Frequencies --    522.2479               534.7423               561.5573
 Red. masses --      2.3663                 1.9312                 2.0130
 Frc consts  --      0.3803                 0.3254                 0.3740
 IR Inten    --     29.7721               141.6969                13.8475

                     19                     20                     21
                      A                      A                      A
 Frequencies --    648.6855               668.5112               728.7819
 Red. masses --      3.6240                 1.2463                 2.9615
 Frc consts  --      0.8985                 0.3282                 0.9267
 IR Inten    --     33.2012                37.6413                 8.4762

                     22                     23                     24
                      A                      A                      A
 Frequencies --    823.1288               836.8775               871.7945
 Red. masses --      1.1590                 1.1238                 2.5303
 Frc consts  --      0.4627                 0.4637                 1.1330
 IR Inten    --      1.6008                46.6563                 3.4824

                     25                     26                     27
                      A                      A                      A
 Frequencies --    914.0557               918.4582               961.3318
 Red. masses --      1.8318                 1.9387                 1.8937
 Frc consts  --      0.9017                 0.9636                 1.0311
 IR Inten    --      1.0793                 0.9969                 4.3411

                     28                     29                     30
                      A                      A                      A
 Frequencies --   1049.0079              1069.4483              1096.9294
 Red. masses --      2.6050                 2.7783                 2.2337
 Frc consts  --      1.6890                 1.8722                 1.5836
 IR Inten    --     14.6750                10.1717                16.3034

                     31                     32                     33
                      A                      A                      A
 Frequencies --   1101.1434              1128.6971              1160.5368
 Red. masses --      1.5651                 1.6612                 1.7801
 Frc consts  --      1.1181                 1.2469                 1.4126
 IR Inten    --     15.6748                15.2321                 4.9731

                     34                     35                     36
                      A                      A                      A
 Frequencies --   1173.5747              1189.8283              1195.8374
 Red. masses --      1.5157                 1.6543                 1.4854
 Frc consts  --      1.2299                 1.3799                 1.2515
 IR Inten    --    134.3905                 2.6030                25.7159

                     37                     38                     39
                      A                      A                      A
 Frequencies --   1214.3053              1253.1615              1296.1995
 Red. masses --      1.7730                 1.7806                 1.8206
 Frc consts  --      1.5404                 1.6475                 1.8022
 IR Inten    --     10.7998                14.0440                16.8405

                     40                     41                     42
                      A                      A                      A
 Frequencies --   1331.4468              1350.8258              1392.5642
 Red. masses --      1.2784                 1.1434                 1.4553
 Frc consts  --      1.3352                 1.2293                 1.6627
 IR Inten    --     17.9120                 7.0343                 9.3285

                     43                     44                     45
                      A                      A                      A
 Frequencies --   1416.0324              1434.0854              1441.0965
 Red. masses --      1.2395                 1.2312                 1.2665
 Frc consts  --      1.4644                 1.4919                 1.5497
 IR Inten    --      2.4544                 4.4535                 8.5605

                     46                     47                     48
                      A                      A                      A
 Frequencies --   1447.3595              1453.4224              1491.8279
 Red. masses --      1.5433                 1.7526                 1.1430
 Frc consts  --      1.9048                 2.1814                 1.4987
 IR Inten    --     17.9703                37.3629                 5.5945

                     49                     50                     51
                      A                      A                      A
 Frequencies --   1495.6993              1519.8369              1521.8740
 Red. masses --      1.1407                 1.0555                 1.0462
 Frc consts  --      1.5036                 1.4365                 1.4277
 IR Inten    --      2.8637                 6.8340                 5.1409

                     52                     53                     54
                      A                      A                      A
 Frequencies --   1526.9349              1532.8828              1536.6304
 Red. masses --      1.0479                 1.0467                 1.0503
 Frc consts  --      1.4394                 1.4490                 1.4611
 IR Inten    --      6.4343                 5.3189                 4.8566

                     55                     56                     57
                      A                      A                      A
 Frequencies --   1540.5910              1552.8424              1637.8470
 Red. masses --      1.0477                 1.0867                 1.2914
 Frc consts  --      1.4650                 1.5439                 2.0411
 IR Inten    --      1.1745                 1.2559               142.2856

                     58                     59                     60
                      A                      A                      A
 Frequencies --   1726.9966              2963.5718              2970.9133
 Red. masses --      6.1372                 1.0647                 1.0667
 Frc consts  --     10.7845                 5.5097                 5.5474
 IR Inten    --    246.1724                21.2041               129.6987

                     61                     62                     63
                      A                      A                      A
 Frequencies --   3054.6096              3058.7067              3065.7936
 Red. masses --      1.0361                 1.0372                 1.0840
 Frc consts  --      5.6960                 5.7171                 6.0029
 IR Inten    --     18.9872                15.7831                14.1447

                     64                     65                     66
                      A                      A                      A
 Frequencies --   3069.6790              3070.1019              3086.8183
 Red. masses --      1.0822                 1.0712                 1.0743
 Frc consts  --      6.0085                 5.9488                 6.0308
 IR Inten    --      2.4284                23.9249                39.2670

                     67                     68                     69
                      A                      A                      A
 Frequencies --   3116.1256              3122.5664              3123.5871
 Red. masses --      1.0983                 1.1022                 1.1020
 Frc consts  --      6.2838                 6.3319                 6.3346
 IR Inten    --     16.7504                22.8725                52.2470

                     70                     71                     72
                      A                      A                      A
 Frequencies --   3127.0875              3131.6598              3139.4897
 Red. masses --      1.1004                 1.1029                 1.1010
 Frc consts  --      6.3399                 6.3731                 6.3940
 IR Inten    --     15.9148                46.8866                25.5889

                     73                     74                     75
                      A                      A                      A
 Frequencies --   3462.3066              3487.7469              3658.5040
 Red. masses --      1.0751                 1.0531                 1.0964
 Frc consts  --      7.5933                 7.5477                 8.6466
 IR Inten    --      4.7377               179.8282                76.7596

 - Thermochemistry -
 -------------------
 Temperature   298.150 Kelvin.  Pressure   1.00000 Atm.
 Atom     1 has atomic number  6 and mass  12.00000

 Molecular mass:   143.14225 amu.
 Principal axes and moments of inertia in atomic units:
                           1         2         3
     Eigenvalues --  1046.648192144.720382190.23857
           X            0.99998   0.00599   0.00278
           Y           -0.00584   0.99878  -0.04894
           Z           -0.00307   0.04892   0.99880
 This molecule is an asymmetric top.
 Rotational symmetry number  1.
 Warning -- assumption of classical behavior for rotation
           may cause significant error
 Rotational temperatures (Kelvin)      0.08275     0.04038     0.03955
 Rotational constants (GHZ):           1.72431     0.84148     0.82399
 Zero-point vibrational energy     651169.4 (Joules/Mol)
                                  155.63321 (Kcal/Mol)
 Warning -- explicit consideration of  18 degrees of freedom as
           vibrations may cause significant error
 Vibrational temperatures:     61.00    92.67   175.48   199.06   272.90
          (Kelvin)            332.57   350.53   375.31   412.58   447.12
                              456.75   509.28   561.10   649.85   697.92
                              751.40   769.37   807.96   933.31   961.84
                             1048.55  1184.30  1204.08  1254.32  1315.12
                             1321.46  1383.14  1509.29  1538.70  1578.24
                             1584.30  1623.94  1669.75  1688.51  1711.90
                             1720.54  1747.11  1803.02  1864.94  1915.65
                             1943.54  2003.59  2037.35  2063.33  2073.42
                             2082.43  2091.15  2146.41  2151.98  2186.71
                             2189.64  2196.92  2205.48  2210.87  2216.57
                             2234.19  2356.50  2484.76  4263.92  4274.48
                             4394.90  4400.80  4410.99  4416.58  4417.19
                             4441.24  4483.41  4492.68  4494.15  4499.18
                             4505.76  4517.03  4981.49  5018.09  5263.77

 Zero-point correction=                           0.248017 (Hartree/Particle)
 Thermal correction to Energy=                    0.259982
 Thermal correction to Enthalpy=                  0.260926
 Thermal correction to Gibbs Free Energy=         0.210605
 Sum of electronic and zero-point Energies=           -441.015227
 Sum of electronic and thermal Energies=              -441.003262
 Sum of electronic and thermal Enthalpies=            -441.002318
 Sum of electronic and thermal Free Energies=         -441.052639

                     E (Thermal)             CV                S
                      KCal/Mol        Cal/Mol-Kelvin    Cal/Mol-Kelvin
 Total                  163.141             45.199            105.910
 Electronic               0.000              0.000              0.000
 Translational            0.889              2.981             40.787
 Rotational               0.889              2.981             29.976
 Vibrational            161.364             39.238             35.147
 Vibration     1          0.595              1.980              5.144
 Vibration     2          0.597              1.971              4.317
 Vibration     3          0.609              1.931              3.069
 Vibration     4          0.614              1.915              2.826
 Vibration     5          0.633              1.854              2.231
 Vibration     6          0.653              1.793              1.870
 Vibration     7          0.659              1.773              1.776
 Vibration     8          0.669              1.744              1.656
 Vibration     9          0.684              1.698              1.493
 Vibration    10          0.700              1.653              1.358
 Vibration    11          0.704              1.640              1.323
 Vibration    12          0.730              1.567              1.148
 Vibration    13          0.758              1.492              1.000
 Vibration    14          0.810              1.357              0.791
 Vibration    15          0.841              1.283              0.697
 Vibration    16          0.877              1.201              0.605
 Vibration    17          0.890              1.173              0.577
 Vibration    18          0.917              1.114              0.521

 Optimization completed.
    -- Stationary point found.

 1\1\GINC-NODE106\Freq\RB3LYP\6-31G(d)\C7H17N3\VSC10255\08-Dec-2020\0\\
 #N Geom=AllCheck Guess=TCheck SCRF=Check GenChk RB3LYP/6-31G(d) Freq\\
 CID_60912995_JID_297_neutraal\\0,1\C,1.0371984508,-0.1249116392,-0.079
 0535943\C,0.6655133692,-0.6029076681,1.3236533835\N,1.2192381505,0.195
 0096211,2.4259769222\C,0.5646239907,-0.1605359786,3.6849016121\C,2.700
 4335953,0.197104617,2.5833764045\C,3.3585446722,-1.1728256505,2.357860
 8274\C,3.3927886731,1.2910280533,1.7426684109\C,3.0943731345,2.7390728
 214,2.1251144093\N,3.9131780039,3.7199910064,1.9877651188\N,1.83998721

 Normal termination of Gaussian 16 at Tue Dec  8 10:32:23 2020.

 ----------------------------------------------------------------------
 # B3LYP/6-311++G(d,p) empiricaldispersion=gd3bj scf=xqc pop=npa geom=c
 heck
 ----------------------------------------------------------------------

 -------------------------------------
 CID_60912995_JID_297_Energie_neutraal
 -------------------------------------
 Structure from the checkpoint file:  "JID_297.chk"
 Charge =  0 Multiplicity = 1

 SCF Done:  E(RB3LYP) =  -441.401677592     A.U. after   14 cycles
 Normal termination of Gaussian 16 at Tue Dec  8 10:37:03 2020.

 ----------------------------------------------------------------------
 # B3LYP/6-311++G(d,p) empiricaldispersion=gd3bj scf=xqc pop=npa geom=c
 heck
 ----------------------------------------------------------------------

 -----------------------------------
 CID_60912995_JID_297_Energie_kation
 -----------------------------------
 Structure from the checkpoint file:  "JID_297.chk"
 Charge =  1 Multiplicity = 2

 SCF Done:  E(UB3LYP) =  -441.104115039     A.U. after   30 cycles
 Normal termination of Gaussian 16 at Tue Dec  8 10:45:57 2020.
 Gaussian 16:  ES64L-G16RevA.03 25-Dec-2016

 ----------------------------------
 CID_60912995_JID_297_Energie_anion
 ----------------------------------
 Structure from the checkpoint file:  "JID_297.chk"
 Charge = -1 Multiplicity = 2

                         Standard orientation:
 ---------------------------------------------------------------------
 Center     Atomic      Atomic             Coordinates (Angstroms)
 Number     Number       Type             X           Y           Z
 ---------------------------------------------------------------------
      1          6           0        1.495726   -0.664368    2.009658
      2          6           0        2.011575    0.159292    0.830802
      3          7           0        0.980653    0.634463   -0.101836
      4          6           0        1.539446    1.645064   -0.999755
      5          6           0        0.233973   -0.399940   -0.870730
      6          6           0        1.106745   -1.558311   -1.377802
      7          6           0       -1.007619   -0.927242   -0.120254
      8          6           0       -2.135915    0.072787    0.122725
      9          7           0       -3.383897   -0.227215    0.186349
     10          7           0       -1.729142    1.373288    0.288655
     11          1           0        0.653704   -0.161114    2.496117
     12          1           0        2.296853   -0.784566    2.747234
     13          1           0        1.174268   -1.666930    1.714564
     14          1           0        2.489687    1.060335    1.231583
     15          1           0        2.808654   -0.400717    0.309975
     16          1           0        2.296896    1.245402   -1.698238
     17          1           0        0.732893    2.096906   -1.584607
     18          1           0        2.014970    2.435096   -0.409487
     19          1           0       -0.147867    0.126627   -1.751731
     20          1           0        1.436308   -2.211983   -0.563094
     21          1           0        0.540458   -2.172379   -2.085736
     22          1           0        1.997369   -1.188117   -1.896906
     23          1           0       -1.425597   -1.756711   -0.702058
     24          1           0       -0.714834   -1.350041    0.845555
     25          1           0       -3.513441   -1.220497   -0.015162
     26          1           0       -0.750718    1.516915    0.522395
     27          1           0       -2.426477    2.004337    0.659554
 ---------------------------------------------------------------------

 SCF Done:  E(UB3LYP) =  -441.388088145     A.U. after   29 cycles

 The electronic state is 2-A.
 Alpha  occ. eigenvalues --  -14.20719 -14.20697 -14.16556 -10.13738 -10.10444
 Alpha  occ. eigenvalues --  -10.08802 -10.08257 -10.07554 -10.05762 -10.05643
 Alpha  occ. eigenvalues --   -0.84111  -0.81954  -0.73972  -0.68262  -0.64933
 Alpha  occ. eigenvalues --   -0.60155  -0.56123  -0.52918  -0.47661  -0.45774
 Alpha  occ. eigenvalues --   -0.43064  -0.39048  -0.37702  -0.34977  -0.33920
 Alpha  occ. eigenvalues --   -0.33554  -0.32862  -0.31016  -0.30654  -0.29052
 Alpha  occ. eigenvalues --   -0.28284  -0.27916  -0.25611  -0.25163  -0.24409
 Alpha  occ. eigenvalues --   -0.23975  -0.22374  -0.15866  -0.13453  -0.12203
 Alpha  occ. eigenvalues --    0.04574
 Alpha virt. eigenvalues --    0.07132   0.07490   0.07873   0.09566   0.09953
 Alpha virt. eigenvalues --    0.10101   0.10482   0.10875   0.12130   0.12679
 Alpha virt. eigenvalues --    0.12986   0.13600   0.13891   0.14170   0.14480

  Beta  occ. eigenvalues --  -14.20711 -14.20684 -14.16551 -10.13735 -10.10435
  Beta  occ. eigenvalues --  -10.08768 -10.08220 -10.07539 -10.05727 -10.05592
  Beta  occ. eigenvalues --   -0.84094  -0.81927  -0.73956  -0.68226  -0.64885
  Beta  occ. eigenvalues --   -0.60094  -0.56037  -0.52828  -0.47633  -0.45698
  Beta  occ. eigenvalues --   -0.43039  -0.39001  -0.37657  -0.34944  -0.33879
  Beta  occ. eigenvalues --   -0.33524  -0.32825  -0.30975  -0.30621  -0.29005
  Beta  occ. eigenvalues --   -0.28234  -0.27871  -0.25544  -0.25124  -0.24381
  Beta  occ. eigenvalues --   -0.23913  -0.22338  -0.15854  -0.13439  -0.12149
  Beta virt. eigenvalues --    0.06989   0.08089   0.08244   0.08502   0.10026
  Beta virt. eigenvalues --    0.10518   0.10643   0.11095   0.11409   0.12476
  Beta virt. eigenvalues --    0.13114   0.13328   0.14114   0.14428   0.14530

 Mulliken charges and spin densities:
               1          2
     1  C    0.678970  -1.277391
     2  C    0.111811  -0.265043
     3  N   -0.123702   0.139680
     4  C    0.785163  -1.115247
     5  C   -2.568440   2.438790
     6  C    2.708139  -3.310246
     7  C    1.159234  -1.237656
     8  C   -0.915561   0.618329
     9  N   -0.361339   0.012049
    10  N   -0.346338  -0.029811
    11  H    0.009619   0.143939
    12  H   -0.436453   0.587475
    13  H   -0.190141   0.339709
    14  H   -0.457700   0.613069
    15  H   -0.105040   0.245959
    16  H   -0.267200   0.401507
    17  H   -0.199909   0.337640
    18  H   -0.330308   0.471091
    19  H    0.109504   0.074055
    20  H   -0.217577   0.387299
    21  H   -0.323720   0.458471
    22  H   -0.420555   0.577286
    23  H    0.007570   0.133686
    24  H    0.201151  -0.027915
    25  H    0.117350   0.068869
    26  H    0.314566  -0.011570
    27  H    0.060902   0.225975
 Sum of Mulliken charges =  -1.00000   1.00000

 Dipole moment (field-independent basis, Debye):
    X=             -3.4986    Y=             -0.0505    Z=              0.3597  Tot=              3.5174
 Quadrupole moment (field-independent basis, Debye-Ang):
   XX=           -129.8203   YY=           -103.9791   ZZ=           -105.4056
   XY=              2.1889   XZ=             -0.8961   YZ=             -3.4037

 Summary of Natural Population Analysis:

                                       Natural Population
                Natural  -----------------------------------------------
    Atom  No    Charge         Core      Valence    Rydberg      Total
 -----------------------------------------------------------------------
      C    1   -0.29052      0.99966     2.28520    0.00567     3.29052
      C    2   -0.08429      0.99960     2.07270    0.01199     3.08429
      N    3   -0.30022      0.99972     2.78388    0.01662     3.80022
      C    4   -0.17467      0.99963     2.16646    0.00858     3.17467
      C    5   -0.00374      0.99958     1.99084    0.01331     3.00374
      C    6   -0.29636      0.99964     2.29046    0.00626     3.29636
      C    7   -0.22612      0.99955     2.21649    0.01008     3.22612
      C    8    0.23270      0.99967     1.75120    0.01643     2.76730
      N    9   -0.38122      0.99971     2.87315    0.00837     3.88122
      N   10   -0.40977      0.99969     2.90087    0.00921     3.90977
      H   11    0.09861      0.00000     0.39998    0.00140     0.40139
      H   12    0.10341      0.00000     0.39548    0.00111     0.39659
      H   13    0.09493      0.00000     0.40378    0.00129     0.40507
      H   14    0.09758      0.00000     0.40017    0.00225     0.40242
      H   15    0.08555      0.00000     0.41234    0.00211     0.41445
      H   16    0.08544      0.00000     0.41300    0.00156     0.41456
      H   17    0.09592      0.00000     0.40283    0.00125     0.40408
      H   18    0.09763      0.00000     0.40073    0.00164     0.40237
      H   19    0.09668      0.00000     0.40104    0.00227     0.40332
      H   20    0.09992      0.00000     0.39869    0.00138     0.40008
      H   21    0.10316      0.00000     0.39546    0.00138     0.39684
      H   22    0.10561      0.00000     0.39281    0.00159     0.39439
      H   23    0.10478      0.00000     0.39421    0.00101     0.39522
      H   24    0.11088      0.00000     0.38741    0.00171     0.38912
      H   25    0.15990      0.00000     0.33793    0.00217     0.34010
      H   26    0.20574      0.00000     0.29139    0.00287     0.29426
      H   27    0.18847      0.00000     0.30963    0.00190     0.31153
 =======================================================================
   * Total *   -0.00000      9.99645    29.86812    0.13543    40.00000

 Normal termination of Gaussian 16 at Tue Dec  8 10:56:05 2020.
