 Gaussian 16, Revision A.03,

 -----------------------------------------------------------
 # opt freq B3LYP/6-31G(d) empiricaldispersion=gd3bj scf=xqc
 -----------------------------------------------------------

 ------------------------------
 CID_82553007_JID_9953_neutraal
 ------------------------------
 Symbolic Z-matrix:
 Charge =  0 Multiplicity = 1

 SCF Done:  E(RB3LYP) =  -920.494398786     A.U. after   15 cycles
 SCF Done:  E(RB3LYP) =  -920.488901613     A.U. after   14 cycles
 SCF Done:  E(RB3LYP) =  -920.502626112     A.U. after   13 cycles
 SCF Done:  E(RB3LYP) =  -920.504441573     A.U. after   13 cycles
 SCF Done:  E(RB3LYP) =  -920.505575949     A.U. after   13 cycles
 SCF Done:  E(RB3LYP) =  -920.505710033     A.U. after   13 cycles
 SCF Done:  E(RB3LYP) =  -920.506092358     A.U. after   13 cycles
 SCF Done:  E(RB3LYP) =  -920.505303497     A.U. after   13 cycles
 SCF Done:  E(RB3LYP) =  -920.506354807     A.U. after   13 cycles
 SCF Done:  E(RB3LYP) =  -920.507025785     A.U. after   12 cycles
 SCF Done:  E(RB3LYP) =  -920.510266510     A.U. after   10 cycles
 SCF Done:  E(RB3LYP) =  -920.510273488     A.U. after   10 cycles
 SCF Done:  E(RB3LYP) =  -920.510283480     A.U. after   10 cycles
 SCF Done:  E(RB3LYP) =  -920.510292444     A.U. after   10 cycles
 SCF Done:  E(RB3LYP) =  -920.510293971     A.U. after    8 cycles
 SCF Done:  E(RB3LYP) =  -920.510294040     A.U. after    7 cycles
 Optimization completed.
    -- Stationary point found.
 Normal termination of Gaussian 16 at Mon Dec 14 18:10:23 2020.

 --------------------------------------------------------------------
 #N Geom=AllCheck Guess=TCheck SCRF=Check GenChk RB3LYP/6-31G(d) Freq
 --------------------------------------------------------------------

 Structure from the checkpoint file:  "JID_9953.chk"
 ------------------------------
 CID_82553007_JID_9953_neutraal
 ------------------------------
 Charge =  0 Multiplicity = 1

 SCF Done:  E(RB3LYP) =  -920.510294040     A.U. after    1 cycles

  Exact polarizability: 193.879   7.854 152.626  -7.490  24.951 126.177
 Approx polarizability: 286.738  17.445 244.475  -9.501  62.643 198.674

                      1                      2                      3
                      A                      A                      A
 Frequencies --     22.7589                47.0602                49.5270
 Red. masses --      5.5804                 5.0546                 3.6634
 Frc consts  --      0.0017                 0.0066                 0.0053
 IR Inten    --      2.5038                 0.8698                 0.2541

                      4                      5                      6
                      A                      A                      A
 Frequencies --     69.7237                91.5528                93.2342
 Red. masses --      3.9839                 4.2485                 4.7585
 Frc consts  --      0.0114                 0.0210                 0.0244
 IR Inten    --      1.8006                 0.3674                 2.6909

                      7                      8                      9
                      A                      A                      A
 Frequencies --    103.6166               118.9406               132.8053
 Red. masses --      3.0929                 3.7397                 4.3007
 Frc consts  --      0.0196                 0.0312                 0.0447
 IR Inten    --      5.2166                 1.6840                 0.5473

                     10                     11                     12
                      A                      A                      A
 Frequencies --    151.1843               159.3558               180.7107
 Red. masses --      1.4328                 2.4421                 2.6157
 Frc consts  --      0.0193                 0.0365                 0.0503
 IR Inten    --      0.1539                 1.9902                 5.1385

                     13                     14                     15
                      A                      A                      A
 Frequencies --    211.7010               225.9986               235.1388
 Red. masses --      3.6273                 1.6085                 2.2766
 Frc consts  --      0.0958                 0.0484                 0.0742
 IR Inten    --      1.5840                 3.1799                 2.4939

                     16                     17                     18
                      A                      A                      A
 Frequencies --    240.0513               271.5527               294.2809
 Red. masses --      1.3220                 4.4059                 2.9547
 Frc consts  --      0.0449                 0.1914                 0.1508
 IR Inten    --      0.7753                14.6917                 9.5997

                     19                     20                     21
                      A                      A                      A
 Frequencies --    306.5371               376.3121               385.0763
 Red. masses --      2.5206                 3.9189                 3.7647
 Frc consts  --      0.1395                 0.3270                 0.3289
 IR Inten    --      0.5946                 5.0861                 2.7370

                     22                     23                     24
                      A                      A                      A
 Frequencies --    388.5496               402.9356               424.0629
 Red. masses --      3.6877                 5.5580                 3.0542
 Frc consts  --      0.3280                 0.5317                 0.3236
 IR Inten    --      5.7614                 0.3354                 1.3194

                     25                     26                     27
                      A                      A                      A
 Frequencies --    456.6551               459.6705               520.5606
 Red. masses --      4.8249                 3.7826                 3.3684
 Frc consts  --      0.5928                 0.4709                 0.5378
 IR Inten    --      1.6462                 0.0618                 4.7606

                     28                     29                     30
                      A                      A                      A
 Frequencies --    571.4128               584.8013               624.8943
 Red. masses --      3.6136                 3.4784                 4.2499
 Frc consts  --      0.6952                 0.7009                 0.9778
 IR Inten    --     25.5484                 2.8724                 0.4702

                     31                     32                     33
                      A                      A                      A
 Frequencies --    637.3956               694.7591               700.0615
 Red. masses --      3.7314                 5.5723                 5.4733
 Frc consts  --      0.8932                 1.5847                 1.5804
 IR Inten    --      0.8650                 1.9539                 7.3083

                     34                     35                     36
                      A                      A                      A
 Frequencies --    736.7222               757.9989               779.8739
 Red. masses --      4.0985                 4.1665                 3.0114
 Frc consts  --      1.3106                 1.4105                 1.0791
 IR Inten    --      4.6500                33.0500                 2.3171

                     37                     38                     39
                      A                      A                      A
 Frequencies --    830.0062               833.5952               865.2558
 Red. masses --      1.2048                 1.5462                 3.6102
 Frc consts  --      0.4890                 0.6330                 1.5925
 IR Inten    --      0.9273                32.2170                 8.1456

                     40                     41                     42
                      A                      A                      A
 Frequencies --    875.1772               903.3807               916.4066
 Red. masses --      3.4900                 1.6554                 2.1768
 Frc consts  --      1.5749                 0.7960                 1.0771
 IR Inten    --     18.4053                14.3946                10.0089

                     43                     44                     45
                      A                      A                      A
 Frequencies --    940.5054               948.3270               976.7967
 Red. masses --      1.4275                 2.6038                 3.0986
 Frc consts  --      0.7440                 1.3796                 1.7419
 IR Inten    --      2.2004                 9.4079                 0.4827

                     46                     47                     48
                      A                      A                      A
 Frequencies --   1032.7230              1059.6811              1066.5368
 Red. masses --      2.2908                 5.3222                 3.7738
 Frc consts  --      1.4395                 3.5212                 2.5292
 IR Inten    --      2.3324                30.0503                22.2307

                     49                     50                     51
                      A                      A                      A
 Frequencies --   1075.0656              1093.9891              1129.1020
 Red. masses --      4.1002                 2.9517                 1.9951
 Frc consts  --      2.7921                 2.0814                 1.4986
 IR Inten    --     44.7198                51.9985                44.6127

                     52                     53                     54
                      A                      A                      A
 Frequencies --   1148.3796              1176.2466              1186.6989
 Red. masses --      1.6875                 1.3677                 1.2812
 Frc consts  --      1.3112                 1.1149                 1.0631
 IR Inten    --     14.0970                54.3425                 5.3615

                     55                     56                     57
                      A                      A                      A
 Frequencies --   1189.8314              1199.2460              1208.9749
 Red. masses --      1.2828                 1.4984                 1.6504
 Frc consts  --      1.0700                 1.2697                 1.4212
 IR Inten    --      5.5450               101.7829                 3.3618

                     58                     59                     60
                      A                      A                      A
 Frequencies --   1220.3803              1222.5063              1262.6629
 Red. masses --      1.4267                 1.4552                 2.1440
 Frc consts  --      1.2519                 1.2814                 2.0140
 IR Inten    --      7.1117                 2.3802               281.6112

                     61                     62                     63
                      A                      A                      A
 Frequencies --   1279.7115              1286.0828              1309.4296
 Red. masses --      2.2208                 1.8282                 3.8407
 Frc consts  --      2.1428                 1.7816                 3.8800
 IR Inten    --     39.5657                81.8247                53.1593

                     64                     65                     66
                      A                      A                      A
 Frequencies --   1320.5622              1334.6832              1362.6306
 Red. masses --      1.5593                 1.3443                 1.9789
 Frc consts  --      1.6021                 1.4109                 2.1648
 IR Inten    --    129.3155                 5.2522                31.7746

                     67                     68                     69
                      A                      A                      A
 Frequencies --   1375.1897              1387.9903              1418.5201
 Red. masses --      2.5753                 1.6009                 1.3404
 Frc consts  --      2.8695                 1.8171                 1.5891
 IR Inten    --     90.2134                58.6660                 7.8252

                     70                     71                     72
                      A                      A                      A
 Frequencies --   1442.0941              1459.8101              1492.6445
 Red. masses --      1.3143                 3.3009                 1.1900
 Frc consts  --      1.6104                 4.1446                 1.5622
 IR Inten    --     29.5788                91.8538                 5.7728

                     73                     74                     75
                      A                      A                      A
 Frequencies --   1497.3890              1504.5625              1512.1531
 Red. masses --      1.2180                 1.1424                 1.0701
 Frc consts  --      1.6090                 1.5236                 1.4417
 IR Inten    --     11.8484                39.1587                15.1729

                     76                     77                     78
                      A                      A                      A
 Frequencies --   1512.7782              1517.8354              1520.7564
 Red. masses --      1.1287                 1.0442                 1.0541
 Frc consts  --      1.5219                 1.4173                 1.4363
 IR Inten    --     39.4377                 3.0152                14.8645

                     79                     80                     81
                      A                      A                      A
 Frequencies --   1524.3867              1532.0674              1535.2143
 Red. masses --      1.0492                 1.0791                 1.0538
 Frc consts  --      1.4365                 1.4924                 1.4634
 IR Inten    --      5.5891                31.5342                 0.8830

                     82                     83                     84
                      A                      A                      A
 Frequencies --   1548.3927              1553.7417              1632.0166
 Red. masses --      1.2433                 1.8275                 7.6234
 Frc consts  --      1.7562                 2.5994                11.9633
 IR Inten    --     35.7385               190.0402                14.4315

                     85                     86                     87
                      A                      A                      A
 Frequencies --   1669.9871              1764.1860              1815.9131
 Red. masses --      6.0902                11.1361                10.6617
 Frc consts  --     10.0072                20.4207                20.7141
 IR Inten    --     19.5599               171.7698               180.1844

                     88                     89                     90
                      A                      A                      A
 Frequencies --   3041.1133              3051.0231              3060.0105
 Red. masses --      1.0378                 1.0679                 1.0357
 Frc consts  --      5.6549                 5.8570                 5.7136
 IR Inten    --     65.9067                37.2869                13.5491

                     91                     92                     93
                      A                      A                      A
 Frequencies --   3082.7180              3083.6796              3106.0138
 Red. masses --      1.0301                 1.0593                 1.0649
 Frc consts  --      5.7678                 5.9347                 6.0527
 IR Inten    --     26.9648                10.5307                20.6640

                     94                     95                     96
                      A                      A                      A
 Frequencies --   3115.8403              3121.3763              3128.6862
 Red. masses --      1.0981                 1.0996                 1.1024
 Frc consts  --      6.2810                 6.3122                 6.3578
 IR Inten    --     15.7976                22.0327                27.6735

                     97                     98                     99
                      A                      A                      A
 Frequencies --   3138.8643              3143.8713              3163.7784
 Red. masses --      1.1059                 1.1027                 1.1065
 Frc consts  --      6.4198                 6.4215                 6.5255
 IR Inten    --      6.8591                44.0392                11.5995

                    100                    101                    102
                      A                      A                      A
 Frequencies --   3166.9281              3189.7375              3190.2881
 Red. masses --      1.1042                 1.0990                 1.1075
 Frc consts  --      6.5247                 6.5882                 6.6410
 IR Inten    --     19.4784                 0.7953                11.3180

                    103                    104                    105
                      A                      A                      A
 Frequencies --   3210.7043              3233.4850              3248.8845
 Red. masses --      1.0889                 1.0923                 1.0890
 Frc consts  --      6.6139                 6.7289                 6.7723
 IR Inten    --      6.1513                 8.7877                 5.5389

 - Thermochemistry -
 -------------------
 Temperature   298.150 Kelvin.  Pressure   1.00000 Atm.
 Atom     1 has atomic number  6 and mass  12.00000

 Molecular mass:   266.11542 amu.
 Principal axes and moments of inertia in atomic units:
                           1         2         3
     Eigenvalues --  3541.137025817.622426321.50362
           X            0.99928   0.03673  -0.00924
           Y           -0.03640   0.99877   0.03375
           Z            0.01047  -0.03339   0.99939
 This molecule is an asymmetric top.
 Rotational symmetry number  1.
 Warning -- assumption of classical behavior for rotation
           may cause significant error
 Rotational temperatures (Kelvin)      0.02446     0.01489     0.01370
 Rotational constants (GHZ):           0.50965     0.31022     0.28549
 Zero-point vibrational energy     804229.5 (Joules/Mol)
                                  192.21547 (Kcal/Mol)
 Warning -- explicit consideration of  29 degrees of freedom as
           vibrations may cause significant error
 Vibrational temperatures:     32.75    67.71    71.26   100.32   131.72
          (Kelvin)            134.14   149.08   171.13   191.08   217.52
                              229.28   260.00   304.59   325.16   338.31
                              345.38   390.70   423.40   441.04   541.43
                              554.04   559.04   579.73   610.13   657.02
                              661.36   748.97   822.14   841.40   899.08
                              917.07   999.60  1007.23  1059.98  1090.59
                             1122.06  1194.19  1199.36  1244.91  1259.18
                             1299.76  1318.50  1353.18  1364.43  1405.39
                             1485.86  1524.64  1534.51  1546.78  1574.01
                             1624.53  1652.26  1692.36  1707.40  1711.90
                             1725.45  1739.45  1755.86  1758.91  1816.69
                             1841.22  1850.39  1883.98  1899.99  1920.31
                             1960.52  1978.59  1997.01  2040.93  2074.85
                             2100.34  2147.58  2154.41  2164.73  2175.65
                             2176.55  2183.83  2188.03  2193.25  2204.30
                             2208.83  2227.79  2235.49  2348.11  2402.74
                             2538.27  2612.69  4375.48  4389.74  4402.67
                             4435.34  4436.73  4468.86  4483.00  4490.96
                             4501.48  4516.13  4523.33  4551.97  4556.50
                             4589.32  4590.11  4619.49  4652.26  4674.42

 Zero-point correction=                           0.306315 (Hartree/Particle)
 Thermal correction to Energy=                    0.325741
 Thermal correction to Enthalpy=                  0.326685
 Thermal correction to Gibbs Free Energy=         0.257796
 Sum of electronic and zero-point Energies=           -920.203979
 Sum of electronic and thermal Energies=              -920.184553
 Sum of electronic and thermal Enthalpies=            -920.183609
 Sum of electronic and thermal Free Energies=         -920.252498

                     E (Thermal)             CV                S
                      KCal/Mol        Cal/Mol-Kelvin    Cal/Mol-Kelvin
 Total                  204.405             71.246            144.989
 Electronic               0.000              0.000              0.000
 Translational            0.889              2.981             42.635
 Rotational               0.889              2.981             33.232
 Vibrational            202.628             65.284             69.122
 Vibration     1          0.593              1.985              6.378
 Vibration     2          0.595              1.979              4.937
 Vibration     3          0.595              1.978              4.836
 Vibration     4          0.598              1.969              4.161
 Vibration     5          0.602              1.955              3.627
 Vibration     6          0.602              1.954              3.591
 Vibration     7          0.605              1.946              3.385
 Vibration     8          0.609              1.934              3.118
 Vibration     9          0.613              1.921              2.905
 Vibration    10          0.619              1.901              2.657
 Vibration    11          0.621              1.892              2.557
 Vibration    12          0.630              1.866              2.321
 Vibration    13          0.643              1.823              2.029
 Vibration    14          0.650              1.801              1.911
 Vibration    15          0.655              1.787              1.839
 Vibration    16          0.657              1.779              1.802
 Vibration    17          0.675              1.726              1.586
 Vibration    18          0.689              1.684              1.449
 Vibration    19          0.697              1.661              1.381
 Vibration    20          0.747              1.521              1.054
 Vibration    21          0.754              1.502              1.019
 Vibration    22          0.757              1.495              1.006
 Vibration    23          0.768              1.464              0.952
 Vibration    24          0.786              1.418              0.878
 Vibration    25          0.815              1.346              0.776
 Vibration    26          0.818              1.339              0.767
 Vibration    27          0.876              1.204              0.609
 Vibration    28          0.928              1.093              0.502
 Vibration    29          0.942              1.064              0.477

 Optimization completed.
    -- Stationary point found.
 Normal termination of Gaussian 16 at Mon Dec 14 18:32:37 2020.

 ----------------------------------------------------------------------
 # B3LYP/6-311++G(d,p) empiricaldispersion=gd3bj scf=xqc pop=npa geom=c
 heck
 ----------------------------------------------------------------------

 --------------------------------------
 CID_82553007_JID_9953_Energie_neutraal
 --------------------------------------
 Structure from the checkpoint file:  "JID_9953.chk"
 Charge =  0 Multiplicity = 1

 SCF Done:  E(RB3LYP) =  -920.771457160     A.U. after   16 cycles
 Normal termination of Gaussian 16 at Mon Dec 14 18:42:35 2020.

 ----------------------------------------------------------------------
 # B3LYP/6-311++G(d,p) empiricaldispersion=gd3bj scf=xqc pop=npa geom=c
 heck
 ----------------------------------------------------------------------

 ------------------------------------
 CID_82553007_JID_9953_Energie_kation
 ------------------------------------
 Structure from the checkpoint file:  "JID_9953.chk"
 Charge =  1 Multiplicity = 2

 SCF Done:  E(UB3LYP) =  -920.488672028     A.U. after   23 cycles
 Normal termination of Gaussian 16 at Mon Dec 14 19:03:25 2020.
 Gaussian 16:  ES64L-G16RevA.03 25-Dec-2016

 ----------------------------------------------------------------------
 # B3LYP/6-311++G(d,p) empiricaldispersion=gd3bj scf=xqc pop=npa geom=c
 heck
 ----------------------------------------------------------------------

 -----------------------------------
 CID_82553007_JID_9953_Energie_anion
 -----------------------------------
 Structure from the checkpoint file:  "JID_9953.chk"
 Charge = -1 Multiplicity = 2

                         Standard orientation:
 ---------------------------------------------------------------------
 Center     Atomic      Atomic             Coordinates (Angstroms)
 Number     Number       Type             X           Y           Z
 ---------------------------------------------------------------------
      1          6           0        3.694377    1.407660   -0.575544
      2          6           0        4.013920    0.268427    0.386616
      3          8           0        3.353418   -0.949268    0.032126
      4          6           0        2.002783   -1.039508    0.226137
      5          6           0        1.234417   -0.134936    0.951867
      6          6           0       -0.157272   -0.282008    1.065006
      7          6           0       -0.781273   -1.402537    0.482684
      8          6           0       -0.000051   -2.326904   -0.226791
      9          6           0        1.370136   -2.142003   -0.362304
     10          8           0       -2.121394   -1.565492    0.671857
     11          6           0       -2.829816   -2.399493   -0.238855
     12          6           0       -0.861009    0.846705    1.761577
     13          8           0       -0.261636    1.519304    2.588620
     14          6           0       -2.255902    1.272286    1.321784
     15          6           0       -2.175122    2.115205    0.022489
     16          6           0       -1.699420    1.290378   -1.154807
     17          8           0       -2.352167    0.426238   -1.703848
     18          8           0       -0.437841    1.610690   -1.507387
     19          6           0        0.136261    0.789909   -2.539319
     20          1           0        3.957550    1.119272   -1.598555
     21          1           0        4.272640    2.298769   -0.307207
     22          1           0        2.632904    1.671525   -0.552983
     23          1           0        5.077006    0.017815    0.344220
     24          1           0        3.779812    0.539657    1.423917
     25          1           0        1.667181    0.734668    1.428211
     26          1           0       -0.461378   -3.197684   -0.676514
     27          1           0        1.971787   -2.848290   -0.925514
     28          1           0       -2.614087   -2.111379   -1.272153
     29          1           0       -2.593513   -3.458744   -0.077713
     30          1           0       -3.887375   -2.233924   -0.028263
     31          1           0       -2.904761    0.414221    1.155601
     32          1           0       -2.663903    1.901384    2.116873
     33          1           0       -3.179186    2.480110   -0.215014
     34          1           0       -1.513094    2.971683    0.171842
     35          1           0        0.170349   -0.251079   -2.211958
     36          1           0       -0.451083    0.865333   -3.457817
     37          1           0        1.143943    1.175791   -2.691149
 ---------------------------------------------------------------------

 SCF Done:  E(UB3LYP) =  -920.778994187     A.U. after   30 cycles

 The electronic state is 2-A.
 Alpha  occ. eigenvalues --  -19.05363 -19.02322 -19.01804 -18.99377 -18.92106
 Alpha  occ. eigenvalues --  -10.18250 -10.11883 -10.11056 -10.10383 -10.08399
 Alpha  occ. eigenvalues --  -10.08395 -10.06669 -10.06437 -10.06008 -10.03258
 Alpha  occ. eigenvalues --  -10.02907 -10.01830 -10.01775 -10.01389  -0.99204
 Alpha  occ. eigenvalues --   -0.93820  -0.93502  -0.90350  -0.86240  -0.70896
 Alpha  occ. eigenvalues --   -0.67082  -0.66078  -0.62044  -0.61059  -0.60582
 Alpha  occ. eigenvalues --   -0.57082  -0.53686  -0.52070  -0.48536  -0.45184
 Alpha  occ. eigenvalues --   -0.45023  -0.42000  -0.39256  -0.38834  -0.37724
 Alpha  occ. eigenvalues --   -0.37427  -0.37316  -0.36049  -0.34643  -0.34133
 Alpha  occ. eigenvalues --   -0.33748  -0.32217  -0.31439  -0.30795  -0.29696
 Alpha  occ. eigenvalues --   -0.29489  -0.28330  -0.27441  -0.27284  -0.26444
 Alpha  occ. eigenvalues --   -0.25809  -0.25454  -0.24445  -0.23834  -0.23588
 Alpha  occ. eigenvalues --   -0.22635  -0.22448  -0.21169  -0.19694  -0.19209
 Alpha  occ. eigenvalues --   -0.18518  -0.16598  -0.15718  -0.11497  -0.08314
 Alpha  occ. eigenvalues --   -0.07390   0.04823
 Alpha virt. eigenvalues --    0.07497   0.08214   0.08754   0.08942   0.10015
 Alpha virt. eigenvalues --    0.10593   0.10772   0.11447   0.11985   0.12192
 Alpha virt. eigenvalues --    0.12532   0.12984   0.13231   0.14043   0.14269

  Beta  occ. eigenvalues --  -19.05355 -19.02341 -19.01796 -18.99377 -18.91616
  Beta  occ. eigenvalues --  -10.18241 -10.11882 -10.11056 -10.10381 -10.08494
  Beta  occ. eigenvalues --  -10.08301 -10.06432 -10.06331 -10.05958 -10.03288
  Beta  occ. eigenvalues --  -10.02898 -10.01678 -10.01509 -10.01158  -0.99189
  Beta  occ. eigenvalues --   -0.93856  -0.93455  -0.90343  -0.85334  -0.70598
  Beta  occ. eigenvalues --   -0.66951  -0.66044  -0.61818  -0.60970  -0.60198
  Beta  occ. eigenvalues --   -0.57000  -0.53409  -0.51943  -0.47990  -0.45074
  Beta  occ. eigenvalues --   -0.44962  -0.41784  -0.39147  -0.38773  -0.37595
  Beta  occ. eigenvalues --   -0.37367  -0.37201  -0.35847  -0.34562  -0.34051
  Beta  occ. eigenvalues --   -0.33730  -0.32105  -0.31244  -0.30658  -0.29608
  Beta  occ. eigenvalues --   -0.29367  -0.28257  -0.27226  -0.27110  -0.26296
  Beta  occ. eigenvalues --   -0.25361  -0.25153  -0.24232  -0.23616  -0.23417
  Beta  occ. eigenvalues --   -0.22527  -0.22275  -0.20625  -0.19508  -0.18718
  Beta  occ. eigenvalues --   -0.17481  -0.16503  -0.15328  -0.10025  -0.07817
  Beta  occ. eigenvalues --   -0.06537
  Beta virt. eigenvalues --    0.07441   0.08061   0.08740   0.08929   0.09868
  Beta virt. eigenvalues --    0.10490   0.10670   0.11144   0.11570   0.12062
  Beta virt. eigenvalues --    0.12134   0.12522   0.12966   0.13233   0.14135

 Mulliken charges and spin densities:
               1          2
     1  C   -0.384916  -0.014223
     2  C   -0.271433  -0.006390
     3  O   -0.088094   0.002950
     4  C   -1.267961  -0.118939
     5  C    0.522363   0.210271
     6  C    1.133943   0.083976
     7  C   -0.846587   0.088339
     8  C    0.000284  -0.004938
     9  C   -0.202887   0.262482
    10  O   -0.090710   0.014827
    11  C   -0.369553  -0.013884
    12  C   -0.372979   0.156770
    13  O   -0.348265   0.169127
    14  C   -0.253774   0.086884
    15  C    0.033804  -0.396132
    16  C   -0.241754   0.121804
    17  O   -0.224639   0.004161
    18  O    0.103480  -0.006471
    19  C   -0.241522  -0.009312
    20  H    0.140040   0.000383
    21  H    0.096208   0.002769
    22  H    0.147498   0.006649
    23  H    0.149624  -0.000098
    24  H    0.121178   0.005088
    25  H    0.221070  -0.012924
    26  H    0.121198   0.010707
    27  H    0.137039  -0.012101
    28  H    0.198385  -0.002413
    29  H    0.099544   0.018697
    30  H    0.103114   0.016508
    31  H    0.221289  -0.027034
    32  H    0.088966   0.099167
    33  H   -0.109081   0.287308
    34  H    0.197050  -0.043311
    35  H    0.221321   0.001884
    36  H    0.142092   0.011756
    37  H    0.114664   0.005661
 Sum of Mulliken charges =  -1.00000   1.00000

 Dipole moment (field-independent basis, Debye):
    X=              1.6798    Y=             -0.4382    Z=             -5.1412  Tot=              5.4264
 Quadrupole moment (field-independent basis, Debye-Ang):
   XX=           -136.5595   YY=           -133.5814   ZZ=           -140.4115
   XY=             11.2476   XZ=             -1.4751   YZ=             -5.8905

 Summary of Natural Population Analysis:

                                       Natural Population
                Natural  -----------------------------------------------
    Atom  No    Charge         Core      Valence    Rydberg      Total
 -----------------------------------------------------------------------
      C    1   -0.30232      0.99966     2.29880    0.00386     3.30232
      C    2   -0.00895      0.99959     1.99927    0.01009     3.00895
      O    3   -0.28937      0.99986     3.27900    0.01052     4.28937
      C    4    0.11933      0.99936     1.86834    0.01297     2.88067
      C    5   -0.07692      0.99948     2.06757    0.00986     3.07692
      C    6   -0.06565      0.99944     2.05459    0.01162     3.06565
      C    7    0.17355      0.99935     1.81338    0.01372     2.82645
      C    8   -0.14792      0.99953     2.14092    0.00747     3.14792
      C    9   -0.05672      0.99954     2.04829    0.00888     3.05672
      O   10   -0.27952      0.99985     3.27019    0.00948     4.27952
      C   11   -0.09938      0.99960     2.09187    0.00791     3.09938
      C   12    0.31877      0.99962     1.65988    0.02172     2.68123
      O   13   -0.26158      0.99988     3.25559    0.00611     4.26158
      C   14   -0.22764      0.99959     2.21792    0.01014     3.22764
      C   15   -0.22509      0.99957     2.21686    0.00865     3.22509
      C   16    0.41232      0.99969     1.55987    0.02812     2.58768
      O   17   -0.31809      0.99986     3.31219    0.00604     4.31809
      O   18   -0.27391      0.99986     3.26611    0.00794     4.27391
      C   19   -0.10914      0.99960     2.10149    0.00805     3.10914
      H   20    0.09521      0.00000     0.40375    0.00104     0.40479
      H   21    0.09463      0.00000     0.40449    0.00088     0.40537
      H   22    0.11144      0.00000     0.38753    0.00103     0.38856
      H   23    0.08256      0.00000     0.41634    0.00111     0.41744
      H   24    0.08461      0.00000     0.41410    0.00129     0.41539
      H   25    0.10648      0.00000     0.39210    0.00142     0.39352
      H   26    0.09443      0.00000     0.40411    0.00146     0.40557
      H   27    0.09127      0.00000     0.40717    0.00156     0.40873
      H   28    0.09287      0.00000     0.40564    0.00149     0.40713
      H   29    0.07512      0.00000     0.42353    0.00135     0.42488
      H   30    0.08636      0.00000     0.41279    0.00085     0.41364
      H   31    0.11371      0.00000     0.38464    0.00166     0.38629
      H   32    0.10194      0.00000     0.39613    0.00193     0.39806
      H   33    0.10534      0.00000     0.39306    0.00160     0.39466
      H   34    0.10609      0.00000     0.39267    0.00124     0.39391
      H   35    0.10456      0.00000     0.39342    0.00202     0.39544
      H   36    0.08379      0.00000     0.41498    0.00123     0.41621
      H   37    0.08783      0.00000     0.41141    0.00076     0.41217
 =======================================================================
   * Total *   -0.00000     18.99294    51.77998    0.22707    71.00000

 Normal termination of Gaussian 16 at Mon Dec 14 19:30:07 2020.
