 Gaussian 16, Revision A.03,

 -----------------------------------------------------------
 # opt freq B3LYP/6-31G(d) empiricaldispersion=gd3bj scf=xqc
 -----------------------------------------------------------

 -----------------------------
 CID_13877316_JID_601_neutraal
 -----------------------------
 Symbolic Z-matrix:
 Charge =  0 Multiplicity = 1

 SCF Done:  E(RB3LYP) =  -478.566165791     A.U. after   15 cycles
 SCF Done:  E(RB3LYP) =  -478.573925524     A.U. after   12 cycles
 SCF Done:  E(RB3LYP) =  -478.575701980     A.U. after   13 cycles
 SCF Done:  E(RB3LYP) =  -478.577289522     A.U. after   14 cycles
 SCF Done:  E(RB3LYP) =  -478.578526694     A.U. after   12 cycles
 SCF Done:  E(RB3LYP) =  -478.578709859     A.U. after   12 cycles
 SCF Done:  E(RB3LYP) =  -478.579029200     A.U. after   12 cycles
 SCF Done:  E(RB3LYP) =  -478.579164538     A.U. after   11 cycles
 SCF Done:  E(RB3LYP) =  -478.579171565     A.U. after   10 cycles
 SCF Done:  E(RB3LYP) =  -478.579179960     A.U. after    9 cycles
 SCF Done:  E(RB3LYP) =  -478.579184269     A.U. after    9 cycles
 SCF Done:  E(RB3LYP) =  -478.579185456     A.U. after    9 cycles
 SCF Done:  E(RB3LYP) =  -478.579185676     A.U. after    8 cycles
 SCF Done:  E(RB3LYP) =  -478.579185731     A.U. after    7 cycles
 Optimization completed.
    -- Stationary point found.
 Normal termination of Gaussian 16 at Tue Dec  8 12:43:24 2020.

 --------------------------------------------------------------------
 #N Geom=AllCheck Guess=TCheck SCRF=Check GenChk RB3LYP/6-31G(d) Freq
 --------------------------------------------------------------------

 Structure from the checkpoint file:  "JID_601.chk"
 -----------------------------
 CID_13877316_JID_601_neutraal
 -----------------------------
 Charge =  0 Multiplicity = 1

 SCF Done:  E(RB3LYP) =  -478.579185731     A.U. after    1 cycles

  Exact polarizability:  96.185  -4.829  91.366   5.776   0.507  60.085
 Approx polarizability: 118.789  -2.636 152.528   9.280   2.243  90.096

                      1                      2                      3
                      A                      A                      A
 Frequencies --     62.6049               107.3124               123.8101
 Red. masses --      3.8724                 3.5171                 3.0773
 Frc consts  --      0.0089                 0.0239                 0.0278
 IR Inten    --      1.9396                 2.3943                 1.4666

                      4                      5                      6
                      A                      A                      A
 Frequencies --    155.4449               221.0720               267.4195
 Red. masses --      2.3084                 4.1503                 1.8718
 Frc consts  --      0.0329                 0.1195                 0.0789
 IR Inten    --      4.2526                 5.5840                 4.2670

                      7                      8                      9
                      A                      A                      A
 Frequencies --    277.2533               316.3341               385.7841
 Red. masses --      2.3408                 1.4801                 5.3799
 Frc consts  --      0.1060                 0.0873                 0.4718
 IR Inten    --     19.5166                89.8843                 8.2016

                     10                     11                     12
                      A                      A                      A
 Frequencies --    461.3460               506.4882               533.7122
 Red. masses --      2.1800                 3.0397                 3.7506
 Frc consts  --      0.2734                 0.4594                 0.6294
 IR Inten    --     11.7068                 6.0341                10.9551

                     13                     14                     15
                      A                      A                      A
 Frequencies --    568.2707               595.4480               651.8943
 Red. masses --      2.7554                 2.6511                 3.3010
 Frc consts  --      0.5243                 0.5538                 0.8265
 IR Inten    --      6.2843                 8.1562                 6.8676

                     16                     17                     18
                      A                      A                      A
 Frequencies --    760.3038               811.3615               877.6683
 Red. masses --      2.7229                 3.5596                 1.8502
 Frc consts  --      0.9274                 1.3806                 0.8397
 IR Inten    --     22.2986                18.1742                12.7856

                     19                     20                     21
                      A                      A                      A
 Frequencies --    906.9301               928.6230               955.5869
 Red. masses --      1.7335                 2.4462                 2.2215
 Frc consts  --      0.8401                 1.2429                 1.1952
 IR Inten    --     20.9459                13.8276                 6.0634

                     22                     23                     24
                      A                      A                      A
 Frequencies --    977.1947              1004.9695              1039.6959
 Red. masses --      2.2386                 1.3805                 1.9110
 Frc consts  --      1.2595                 0.8215                 1.2171
 IR Inten    --      2.9583                11.6560                12.4323

                     25                     26                     27
                      A                      A                      A
 Frequencies --   1060.0829              1081.3318              1107.4383
 Red. masses --      1.0774                 3.1874                 1.4674
 Frc consts  --      0.7134                 2.1959                 1.0603
 IR Inten    --     42.2742               109.3891                42.4898

                     28                     29                     30
                      A                      A                      A
 Frequencies --   1115.0368              1182.3394              1215.0732
 Red. masses --      1.8143                 2.8361                 1.5878
 Frc consts  --      1.3291                 2.3359                 1.3812
 IR Inten    --     37.3242                11.2813                17.7459

                     31                     32                     33
                      A                      A                      A
 Frequencies --   1233.1063              1267.4582              1322.1335
 Red. masses --      1.7248                 1.3952                 1.3987
 Frc consts  --      1.5452                 1.3206                 1.4405
 IR Inten    --     14.6658                38.6810                19.9049

                     34                     35                     36
                      A                      A                      A
 Frequencies --   1323.9084              1339.4294              1350.4589
 Red. masses --      1.3241                 1.3446                 1.3763
 Frc consts  --      1.3674                 1.4213                 1.4788
 IR Inten    --     17.6710                 4.8309                 4.7882

                     37                     38                     39
                      A                      A                      A
 Frequencies --   1364.5387              1383.5042              1411.2798
 Red. masses --      1.4834                 1.4203                 2.6021
 Frc consts  --      1.6273                 1.6018                 3.0536
 IR Inten    --     10.2154                 5.2945               242.8940

                     40                     41                     42
                      A                      A                      A
 Frequencies --   1461.6998              1478.3162              1516.0258
 Red. masses --      1.2486                 1.3452                 1.0843
 Frc consts  --      1.5718                 1.7322                 1.4683
 IR Inten    --     46.1667                88.6409                 4.5181

                     43                     44                     45
                      A                      A                      A
 Frequencies --   1527.1182              1552.9815              1696.3173
 Red. masses --      1.0975                 1.0966                 4.9353
 Frc consts  --      1.5080                 1.5583                 8.3671
 IR Inten    --      2.5740                 6.8812                65.6514

                     46                     47                     48
                      A                      A                      A
 Frequencies --   1742.5509              3030.5317              3059.2361
 Red. masses --      7.9949                 1.0744                 1.0699
 Frc consts  --     14.3031                 5.8138                 5.8998
 IR Inten    --    200.6344                45.6083                17.7926

                     49                     50                     51
                      A                      A                      A
 Frequencies --   3068.8573              3116.2407              3122.3721
 Red. masses --      1.0620                 1.0931                 1.0996
 Frc consts  --      5.8927                 6.2540                 6.3163
 IR Inten    --     31.5310                19.3454                15.1108

                     52                     53                     54
                      A                      A                      A
 Frequencies --   3133.3502              3166.4254              3168.5147
 Red. masses --      1.0950                 1.0914                 1.0608
 Frc consts  --      6.3341                 6.4471                 6.2746
 IR Inten    --     41.1839                 4.0811                16.3938

                     55                     56                     57
                      A                      A                      A
 Frequencies --   3192.1097              3266.8131              3722.9577
 Red. masses --      1.0921                 1.1149                 1.0657
 Frc consts  --      6.5567                 7.0103                 8.7026
 IR Inten    --     14.3468                 3.1085                14.5974

 - Thermochemistry -
 -------------------
 Temperature   298.150 Kelvin.  Pressure   1.00000 Atm.
 Atom     1 has atomic number  6 and mass  12.00000

 Molecular mass:   141.07898 amu.
 Principal axes and moments of inertia in atomic units:
                           1         2         3
     Eigenvalues --   942.969981479.216102189.81363
           X            0.99820  -0.05984   0.00461
           Y            0.05985   0.99821  -0.00107
           Z           -0.00454   0.00135   0.99999
 This molecule is an asymmetric top.
 Rotational symmetry number  1.
 Warning -- assumption of classical behavior for rotation
           may cause significant error
 Rotational temperatures (Kelvin)      0.09185     0.05855     0.03955
 Rotational constants (GHZ):           1.91389     1.22007     0.82415
 Zero-point vibrational energy     468194.8 (Joules/Mol)
                                  111.90125 (Kcal/Mol)
 Warning -- explicit consideration of  14 degrees of freedom as
           vibrations may cause significant error
 Vibrational temperatures:     90.07   154.40   178.14   223.65   318.07
          (Kelvin)            384.76   398.91   455.13   555.06   663.77
                              728.72   767.89   817.61   856.72   937.93
                             1093.91  1167.37  1262.77  1304.87  1336.08
                             1374.88  1405.97  1445.93  1495.89  1525.22
                             1555.80  1593.36  1604.29  1701.12  1748.22
                             1774.16  1823.59  1902.26  1904.81  1927.14
                             1943.01  1963.27  1990.55  2030.52  2103.06
                             2126.97  2181.22  2197.18  2234.39  2440.62
                             2507.14  4360.26  4401.56  4415.40  4483.58
                             4492.40  4508.19  4555.78  4558.79  4592.73
                             4700.22  5356.51

 Zero-point correction=                           0.178326 (Hartree/Particle)
 Thermal correction to Energy=                    0.188057
 Thermal correction to Enthalpy=                  0.189001
 Thermal correction to Gibbs Free Energy=         0.143281
 Sum of electronic and zero-point Energies=           -478.400860
 Sum of electronic and thermal Energies=              -478.391129
 Sum of electronic and thermal Enthalpies=            -478.390184
 Sum of electronic and thermal Free Energies=         -478.435905

                     E (Thermal)             CV                S
                      KCal/Mol        Cal/Mol-Kelvin    Cal/Mol-Kelvin
 Total                  118.008             36.503             96.226
 Electronic               0.000              0.000              0.000
 Translational            0.889              2.981             40.744
 Rotational               0.889              2.981             29.503
 Vibrational            116.230             30.541             25.979
 Vibration     1          0.597              1.972              4.373
 Vibration     2          0.606              1.943              3.317
 Vibration     3          0.610              1.929              3.040
 Vibration     4          0.620              1.897              2.604
 Vibration     5          0.648              1.809              1.950
 Vibration     6          0.673              1.733              1.613
 Vibration     7          0.678              1.716              1.551
 Vibration     8          0.703              1.642              1.329
 Vibration     9          0.754              1.501              1.016
 Vibration    10          0.819              1.336              0.762
 Vibration    11          0.862              1.236              0.642
 Vibration    12          0.889              1.175              0.579
 Vibration    13          0.924              1.100              0.508
 Vibration    14          0.953              1.041              0.458

                           ! Non-Optimized Parameters !
 Normal termination of Gaussian 16 at Tue Dec  8 13:03:56 2020.

 ----------------------------------------------------------------------
 # B3LYP/6-311++G(d,p) empiricaldispersion=gd3bj scf=xqc pop=npa geom=c
 heck
 ----------------------------------------------------------------------

 -------------------------------------
 CID_13877316_JID_601_Energie_neutraal
 -------------------------------------
 Structure from the checkpoint file:  "JID_601.chk"
 Charge =  0 Multiplicity = 1

 SCF Done:  E(RB3LYP) =  -478.726438236     A.U. after   13 cycles
 Normal termination of Gaussian 16 at Tue Dec  8 13:05:38 2020.

 ----------------------------------------------------------------------
 # B3LYP/6-311++G(d,p) empiricaldispersion=gd3bj scf=xqc pop=npa geom=c
 heck
 ----------------------------------------------------------------------

 -----------------------------------
 CID_13877316_JID_601_Energie_kation
 -----------------------------------
 Structure from the checkpoint file:  "JID_601.chk"
 Charge =  1 Multiplicity = 2

 SCF Done:  E(UB3LYP) =  -478.393343112     A.U. after   29 cycles
 Normal termination of Gaussian 16 at Tue Dec  8 13:10:02 2020.
 Gaussian 16:  ES64L-G16RevA.03 25-Dec-2016

 ----------------------------------------------------------------------
 # B3LYP/6-311++G(d,p) empiricaldispersion=gd3bj scf=xqc pop=npa geom=c
 heck
 ----------------------------------------------------------------------

 ----------------------------------
 CID_13877316_JID_601_Energie_anion
 ----------------------------------
 Structure from the checkpoint file:  "JID_601.chk"
 Charge = -1 Multiplicity = 2

                         Standard orientation:
 ---------------------------------------------------------------------
 Center     Atomic      Atomic             Coordinates (Angstroms)
 Number     Number       Type             X           Y           Z
 ---------------------------------------------------------------------
      1          6           0        2.532112   -1.208058    0.194630
      2          6           0        2.269401    0.078869    0.441811
      3          6           0        1.124536    0.907348   -0.038077
      4          8           0        1.315666    2.103656   -0.249014
      5          7           0       -0.125994    0.345314   -0.225974
      6          6           0       -1.265422    1.241655   -0.476694
      7          6           0       -2.333234    0.711372    0.483873
      8          6           0       -2.093461   -0.802713    0.444197
      9          6           0       -0.571416   -0.972761    0.223085
     10          8           0       -0.276137   -2.017387   -0.695367
     11          1           0        1.855918   -1.846387   -0.363191
     12          1           0        3.462314   -1.648568    0.544308
     13          1           0        2.999727    0.695887    0.959738
     14          1           0       -0.952201    2.269155   -0.294672
     15          1           0       -1.594229    1.166583   -1.522700
     16          1           0       -3.349325    0.992692    0.191814
     17          1           0       -2.147725    1.105039    1.489820
     18          1           0       -2.612616   -1.251717   -0.411506
     19          1           0       -2.430434   -1.331690    1.339556
     20          1           0       -0.040676   -1.259730    1.132744
     21          1           0       -0.600122   -1.732883   -1.566003
 ---------------------------------------------------------------------

 SCF Done:  E(UB3LYP) =  -478.715488774     A.U. after   32 cycles

 The electronic state is 2-A.
 Alpha  occ. eigenvalues --  -19.01672 -18.95192 -14.21299 -10.14313 -10.13536
 Alpha  occ. eigenvalues --  -10.07924 -10.05818 -10.05666 -10.04571 -10.03682
 Alpha  occ. eigenvalues --   -0.92990  -0.90379  -0.81082  -0.67732  -0.64497
 Alpha  occ. eigenvalues --   -0.61026  -0.53206  -0.49176  -0.47499  -0.45949
 Alpha  occ. eigenvalues --   -0.38776  -0.37251  -0.35018  -0.33448  -0.32630
 Alpha  occ. eigenvalues --   -0.31729  -0.30795  -0.27927  -0.27290  -0.25599
 Alpha  occ. eigenvalues --   -0.24836  -0.23606  -0.23113  -0.22698  -0.17610
 Alpha  occ. eigenvalues --   -0.15538  -0.13026  -0.12637   0.05234
 Alpha virt. eigenvalues --    0.07277   0.08586   0.08873   0.09573   0.10654
 Alpha virt. eigenvalues --    0.11505   0.11899   0.12944   0.13250   0.13517
 Alpha virt. eigenvalues --    0.15079   0.16717   0.17060   0.17796   0.18571

  Beta  occ. eigenvalues --  -19.01653 -18.95049 -14.21275 -10.14312 -10.13418
  Beta  occ. eigenvalues --  -10.07907 -10.05783 -10.05631 -10.04501 -10.03463
  Beta  occ. eigenvalues --   -0.92944  -0.90144  -0.80984  -0.67596  -0.64197
  Beta  occ. eigenvalues --   -0.60956  -0.52960  -0.49015  -0.47174  -0.45866
  Beta  occ. eigenvalues --   -0.38677  -0.37149  -0.34869  -0.33349  -0.32507
  Beta  occ. eigenvalues --   -0.31641  -0.30573  -0.27795  -0.27182  -0.25199
  Beta  occ. eigenvalues --   -0.24633  -0.23546  -0.23023  -0.22615  -0.17540
  Beta  occ. eigenvalues --   -0.14558  -0.12724  -0.12305
  Beta virt. eigenvalues --    0.08162   0.09025   0.09132   0.09423   0.10172
  Beta virt. eigenvalues --    0.11286   0.11675   0.12206   0.13323   0.13569
  Beta virt. eigenvalues --    0.13826   0.15230   0.16982   0.17225   0.17975

 Mulliken charges and spin densities:
               1          2
     1  C   -0.568345   0.294022
     2  C    0.241506  -0.010103
     3  C   -0.253890   0.085616
     4  O   -0.392273   0.052118
     5  N   -0.020234   0.114543
     6  C    0.215426  -0.422504
     7  C    0.539938  -0.830345
     8  C    0.757029  -1.063050
     9  C   -0.474742   0.124247
    10  O   -0.259406   0.021572
    11  H    0.172975   0.002875
    12  H    0.040670   0.047971
    13  H    0.138480   0.030945
    14  H    0.087616   0.098505
    15  H   -0.261043   0.417008
    16  H   -0.745294   0.920223
    17  H    0.180996  -0.044209
    18  H   -0.301023   0.453545
    19  H   -0.417873   0.556396
    20  H    0.185078   0.009277
    21  H    0.134407   0.141349
 Sum of Mulliken charges =  -1.00000   1.00000

 Dipole moment (field-independent basis, Debye):
    X=              3.8523    Y=             -1.1225    Z=              1.6686  Tot=              4.3456
 Quadrupole moment (field-independent basis, Debye-Ang):
   XX=           -115.2063   YY=            -93.7129   ZZ=            -78.9562
   XY=             -3.7888   XZ=             -3.7283   YZ=              3.9418

 Summary of Natural Population Analysis:

                                       Natural Population
                Natural  -----------------------------------------------
    Atom  No    Charge         Core      Valence    Rydberg      Total
 -----------------------------------------------------------------------
      C    1   -0.13797      0.99958     2.13049    0.00790     3.13797
      C    2   -0.13343      0.99955     2.12343    0.01045     3.13343
      C    3    0.34466      0.99962     1.63401    0.02171     2.65534
      O    4   -0.31693      0.99988     3.31181    0.00524     4.31693
      N    5   -0.26761      0.99963     2.75828    0.00970     3.76761
      C    6   -0.08715      0.99962     2.07578    0.01175     3.08715
      C    7   -0.19545      0.99963     2.18726    0.00856     3.19545
      C    8   -0.20245      0.99962     2.19321    0.00961     3.20245
      C    9    0.15120      0.99959     1.83233    0.01688     2.84880
      O   10   -0.37236      0.99989     3.36601    0.00646     4.37236
      H   11    0.10243      0.00000     0.39607    0.00150     0.39757
      H   12    0.08346      0.00000     0.41533    0.00120     0.41654
      H   13    0.09593      0.00000     0.40266    0.00141     0.40407
      H   14    0.11316      0.00000     0.38562    0.00122     0.38684
      H   15    0.09265      0.00000     0.40533    0.00202     0.40735
      H   16    0.10715      0.00000     0.38852    0.00432     0.39285
      H   17    0.09332      0.00000     0.40549    0.00118     0.40668
      H   18    0.10388      0.00000     0.39234    0.00378     0.39612
      H   19    0.10356      0.00000     0.39529    0.00115     0.39644
      H   20    0.09350      0.00000     0.40516    0.00134     0.40650
      H   21    0.22846      0.00000     0.26843    0.00311     0.27154
 =======================================================================
   * Total *    0.00000      9.99663    27.87289    0.13049    38.00000

 Normal termination of Gaussian 16 at Tue Dec  8 13:17:22 2020.
