 Gaussian 16, Revision A.03,

 -----------------------------------------------------------
 # opt freq B3LYP/6-31G(d) empiricaldispersion=gd3bj scf=xqc
 -----------------------------------------------------------

 -------------------------------
 CID_129924934_JID_1926_neutraal
 -------------------------------
 Symbolic Z-matrix:
 Charge =  0 Multiplicity = 1

 SCF Done:  E(RB3LYP) =  -601.906494396     A.U. after   15 cycles
 SCF Done:  E(RB3LYP) =  -601.913593550     A.U. after   13 cycles
 SCF Done:  E(RB3LYP) =  -601.913923039     A.U. after   13 cycles
 SCF Done:  E(RB3LYP) =  -601.914505183     A.U. after   12 cycles
 SCF Done:  E(RB3LYP) =  -601.915127529     A.U. after   12 cycles
 SCF Done:  E(RB3LYP) =  -601.915326346     A.U. after   11 cycles
 SCF Done:  E(RB3LYP) =  -601.915480485     A.U. after   12 cycles
 SCF Done:  E(RB3LYP) =  -601.915654995     A.U. after   12 cycles
 SCF Done:  E(RB3LYP) =  -601.915755464     A.U. after   11 cycles
 SCF Done:  E(RB3LYP) =  -601.915844869     A.U. after   12 cycles
 SCF Done:  E(RB3LYP) =  -601.916126258     A.U. after   11 cycles
 SCF Done:  E(RB3LYP) =  -601.916121493     A.U. after   10 cycles
 SCF Done:  E(RB3LYP) =  -601.916127269     A.U. after   11 cycles
 SCF Done:  E(RB3LYP) =  -601.916127823     A.U. after    9 cycles
 SCF Done:  E(RB3LYP) =  -601.916128022     A.U. after    8 cycles
 SCF Done:  E(RB3LYP) =  -601.916128065     A.U. after    7 cycles
 Optimization completed.
    -- Stationary point found.
 Normal termination of Gaussian 16 at Tue Dec  8 21:54:22 2020.

 --------------------------------------------------------------------
 #N Geom=AllCheck Guess=TCheck SCRF=Check GenChk RB3LYP/6-31G(d) Freq
 --------------------------------------------------------------------

 Structure from the checkpoint file:  "JID_1926.chk"
 -------------------------------
 CID_129924934_JID_1926_neutraal
 -------------------------------
 Charge =  0 Multiplicity = 1

 SCF Done:  E(RB3LYP) =  -601.916128065     A.U. after    1 cycles

  Exact polarizability:  80.881   5.403  78.971   3.681  -3.166  67.137
 Approx polarizability: 111.246  10.796 129.673   8.042 -14.579  98.628

                      1                      2                      3
                      A                      A                      A
 Frequencies --     31.2459                56.3285                59.8873
 Red. masses --      8.1744                 7.2375                 6.6742
 Frc consts  --      0.0047                 0.0135                 0.0141
 IR Inten    --      2.7342                 2.3972                 1.9367

                      4                      5                      6
                      A                      A                      A
 Frequencies --     75.1677               122.1936               161.8355
 Red. masses --      4.5081                 3.7635                 1.1455
 Frc consts  --      0.0150                 0.0331                 0.0177
 IR Inten    --      2.4961                 3.2128                 0.0749

                      7                      8                      9
                      A                      A                      A
 Frequencies --    239.3218               258.2504               308.3596
 Red. masses --      3.8740                 8.0416                 4.0240
 Frc consts  --      0.1307                 0.3160                 0.2254
 IR Inten    --      9.5093                 5.6224                 4.7948

                     10                     11                     12
                      A                      A                      A
 Frequencies --    346.8954               407.3767               415.6766
 Red. masses --      7.1044                 2.6152                 1.5012
 Frc consts  --      0.5037                 0.2557                 0.1528
 IR Inten    --      6.6502                11.2403                26.0383

                     13                     14                     15
                      A                      A                      A
 Frequencies --    447.2453               494.8941               546.4393
 Red. masses --      2.3305                 4.1286                 1.3852
 Frc consts  --      0.2747                 0.5958                 0.2437
 IR Inten    --     13.5707                29.7356                66.3251

                     16                     17                     18
                      A                      A                      A
 Frequencies --    590.5776               619.5778               632.0715
 Red. masses --      2.9466                 3.5442                 1.5226
 Frc consts  --      0.6055                 0.8016                 0.3584
 IR Inten    --     25.9462                78.9587               154.1997

                     19                     20                     21
                      A                      A                      A
 Frequencies --    657.4967               743.5173               765.2703
 Red. masses --      1.7312                 4.6115                 5.7216
 Frc consts  --      0.4410                 1.5020                 1.9742
 IR Inten    --     70.9791                63.1575                10.8492

                     22                     23                     24
                      A                      A                      A
 Frequencies --    799.6042               804.4966               851.5481
 Red. masses --      3.3771                 3.2079                 1.9243
 Frc consts  --      1.2722                 1.2232                 0.8222
 IR Inten    --    174.8742                28.2866                33.5775

                     25                     26                     27
                      A                      A                      A
 Frequencies --    868.9540              1054.8628              1108.6326
 Red. masses --      2.0106                 2.2158                 1.6233
 Frc consts  --      0.8945                 1.4527                 1.1755
 IR Inten    --     28.6677                46.9913                37.7445

                     28                     29                     30
                      A                      A                      A
 Frequencies --   1166.7652              1180.2398              1186.6100
 Red. masses --      1.3221                 2.6034                 1.5787
 Frc consts  --      1.0605                 2.1367                 1.3097
 IR Inten    --     14.8025               274.0862                60.3273

                     31                     32                     33
                      A                      A                      A
 Frequencies --   1236.0098              1288.5243              1314.3997
 Red. masses --      3.9766                 2.3855                 1.9873
 Frc consts  --      3.5794                 2.3336                 2.0229
 IR Inten    --      7.9429                 7.5665               111.5962

                     34                     35                     36
                      A                      A                      A
 Frequencies --   1424.8647              1427.8392              1468.2663
 Red. masses --      2.2005                 2.5366                 2.0661
 Frc consts  --      2.6322                 3.0469                 2.6243
 IR Inten    --    142.9843                71.4727                12.4048

                     37                     38                     39
                      A                      A                      A
 Frequencies --   1500.0457              1523.3352              1536.9794
 Red. masses --      1.4168                 1.0732                 1.0753
 Frc consts  --      1.8783                 1.4673                 1.4966
 IR Inten    --     59.7705                 8.4931                 8.0883

                     40                     41                     42
                      A                      A                      A
 Frequencies --   1657.3962              1759.5187              1821.3496
 Red. masses --      1.2382                 5.0779                10.4690
 Frc consts  --      2.0040                 9.2624                20.4618
 IR Inten    --     87.8617               217.2433               387.2597

                     43                     44                     45
                      A                      A                      A
 Frequencies --   1844.2577              3028.8841              3136.1071
 Red. masses --     10.2648                 1.0529                 1.0861
 Frc consts  --     20.5705                 5.6914                 6.2936
 IR Inten    --    224.6785                53.3919                10.4024

                     46                     47                     48
                      A                      A                      A
 Frequencies --   3200.7947              3486.4140              3504.5317
 Red. masses --      1.1012                 1.0760                 1.0738
 Frc consts  --      6.6472                 7.7055                 7.7704
 IR Inten    --      5.2065                15.7018                 1.4477

                     49                     50                     51
                      A                      A                      A
 Frequencies --   3531.3846              3635.4310              3660.2594
 Red. masses --      1.0490                 1.0961                 1.0637
 Frc consts  --      7.7073                 8.5354                 8.3961
 IR Inten    --     16.2937                19.6319                51.1165

 - Thermochemistry -
 -------------------
 Temperature   298.150 Kelvin.  Pressure   1.00000 Atm.
 Atom     1 has atomic number  6 and mass  12.00000

 Molecular mass:   160.05964 amu.
 Principal axes and moments of inertia in atomic units:
                           1         2         3
     Eigenvalues --  1102.725702338.327162426.25069
           X            0.99988   0.01071  -0.01143
           Y           -0.01094   0.99974  -0.01977
           Z            0.01121   0.01989   0.99974
 This molecule is an asymmetric top.
 Rotational symmetry number  1.
 Warning -- assumption of classical behavior for rotation
           may cause significant error
 Rotational temperatures (Kelvin)      0.07855     0.03704     0.03570
 Rotational constants (GHZ):           1.63662     0.77181     0.74384
 Zero-point vibrational energy     382732.8 (Joules/Mol)
                                   91.47535 (Kcal/Mol)
 Warning -- explicit consideration of  17 degrees of freedom as
           vibrations may cause significant error
 Vibrational temperatures:     44.96    81.04    86.16   108.15   175.81
          (Kelvin)            232.85   344.33   371.56   443.66   499.11
                              586.12   598.07   643.49   712.04   786.20
                              849.71   891.43   909.41   945.99  1069.76
                             1101.05  1150.45  1157.49  1225.19  1250.23
                             1517.71  1595.08  1678.71  1698.10  1707.27
                             1778.34  1853.90  1891.13  2050.06  2054.34
                             2112.51  2158.23  2191.74  2211.37  2384.62
                             2531.55  2620.52  2653.48  4357.89  4512.16
                             4605.23  5016.17  5042.24  5080.87  5230.57
                             5266.30

 Zero-point correction=                           0.145775 (Hartree/Particle)
 Thermal correction to Energy=                    0.157492
 Thermal correction to Enthalpy=                  0.158436
 Thermal correction to Gibbs Free Energy=         0.106662
 Sum of electronic and zero-point Energies=           -601.770353
 Sum of electronic and thermal Energies=              -601.758636
 Sum of electronic and thermal Enthalpies=            -601.757692
 Sum of electronic and thermal Free Energies=         -601.809466

                     E (Thermal)             CV                S
                      KCal/Mol        Cal/Mol-Kelvin    Cal/Mol-Kelvin
 Total                   98.828             41.234            108.967
 Electronic               0.000              0.000              0.000
 Translational            0.889              2.981             41.120
 Rotational               0.889              2.981             30.215
 Vibrational             97.050             35.273             37.631
 Vibration     1          0.594              1.983              5.749
 Vibration     2          0.596              1.975              4.582
 Vibration     3          0.597              1.973              4.461
 Vibration     4          0.599              1.966              4.013
 Vibration     5          0.610              1.931              3.065
 Vibration     6          0.622              1.889              2.528
 Vibration     7          0.657              1.780              1.808
 Vibration     8          0.667              1.749              1.674
 Vibration     9          0.698              1.658              1.371
 Vibration    10          0.725              1.582              1.180
 Vibration    11          0.772              1.454              0.936
 Vibration    12          0.779              1.436              0.907
 Vibration    13          0.806              1.367              0.804
 Vibration    14          0.851              1.261              0.671
 Vibration    15          0.902              1.147              0.552
 Vibration    16          0.948              1.052              0.466
 Vibration    17          0.980              0.991              0.417

 Optimization completed.
    -- Stationary point found.
 Normal termination of Gaussian 16 at Tue Dec  8 21:58:09 2020.

 ----------------------------------------------------------------------
 # B3LYP/6-311++G(d,p) empiricaldispersion=gd3bj scf=xqc pop=npa geom=c
 heck
 ----------------------------------------------------------------------

 ---------------------------------------
 CID_129924934_JID_1926_Energie_neutraal
 ---------------------------------------
 Structure from the checkpoint file:  "JID_1926.chk"
 Charge =  0 Multiplicity = 1

 SCF Done:  E(RB3LYP) =  -602.120531594     A.U. after   14 cycles
 Normal termination of Gaussian 16 at Tue Dec  8 21:59:29 2020.

 ----------------------------------------------------------------------
 # B3LYP/6-311++G(d,p) empiricaldispersion=gd3bj scf=xqc pop=npa geom=c
 heck
 ----------------------------------------------------------------------

 -------------------------------------
 CID_129924934_JID_1926_Energie_kation
 -------------------------------------
 Structure from the checkpoint file:  "JID_1926.chk"
 Charge =  1 Multiplicity = 2

 SCF Done:  E(UB3LYP) =  -601.782832611     A.U. after   25 cycles
 Normal termination of Gaussian 16 at Tue Dec  8 22:03:01 2020.
 Gaussian 16:  ES64L-G16RevA.03 25-Dec-2016

 ----------------------------------------------------------------------
 # B3LYP/6-311++G(d,p) empiricaldispersion=gd3bj scf=xqc pop=npa geom=c
 heck
 ----------------------------------------------------------------------

 ------------------------------------
 CID_129924934_JID_1926_Energie_anion
 ------------------------------------
 Structure from the checkpoint file:  "JID_1926.chk"
 Charge = -1 Multiplicity = 2

                         Standard orientation:
 ---------------------------------------------------------------------
 Center     Atomic      Atomic             Coordinates (Angstroms)
 Number     Number       Type             X           Y           Z
 ---------------------------------------------------------------------
      1          6           0        1.079218    0.841579   -1.714084
      2          7           0        0.836647    0.060221   -0.495122
      3          6           0        1.894366   -0.274428    0.395200
      4          7           0        2.032186   -1.361872    1.045949
      5          7           0        2.832079    0.751083    0.514643
      6          7           0       -0.103846   -0.942062   -0.669902
      7          6           0       -1.408920   -0.737091   -0.311666
      8          8           0       -2.313828   -1.511899   -0.545957
      9          6           0       -1.658821    0.611969    0.374579
     10          8           0       -1.810371    1.646647   -0.233251
     11          8           0       -1.792152    0.476045    1.703076
     12          1           0        1.369615    0.189314   -2.550415
     13          1           0        1.886839    1.549649   -1.538264
     14          1           0        0.162567    1.378768   -1.966701
     15          1           0        1.319827   -2.042606    0.782510
     16          1           0        2.425348    1.670237    0.655884
     17          1           0        3.493966    0.521405    1.247842
     18          1           0        0.094236   -1.712518   -1.307748
     19          1           0       -2.036103    1.355638    2.052808
 ---------------------------------------------------------------------

 SCF Done:  E(UB3LYP) =  -602.114001978     A.U. after   31 cycles

 The electronic state is 2-A.
 Alpha  occ. eigenvalues --  -19.07670 -19.02393 -19.01341 -14.28282 -14.27771
 Alpha  occ. eigenvalues --  -14.21631 -14.17112 -10.21612 -10.19432 -10.17051
 Alpha  occ. eigenvalues --  -10.10087  -1.02074  -0.96983  -0.93232  -0.93016
 Alpha  occ. eigenvalues --   -0.84401  -0.75280  -0.74153  -0.60989  -0.60096
 Alpha  occ. eigenvalues --   -0.52594  -0.50462  -0.45840  -0.43418  -0.40881
 Alpha  occ. eigenvalues --   -0.39559  -0.38349  -0.36233  -0.35693  -0.34085
 Alpha  occ. eigenvalues --   -0.33874  -0.32147  -0.31433  -0.30777  -0.27859
 Alpha  occ. eigenvalues --   -0.23370  -0.22038  -0.19145  -0.17882  -0.17390
 Alpha  occ. eigenvalues --   -0.16596  -0.14384   0.04348
 Alpha virt. eigenvalues --    0.06651   0.07308   0.08192   0.09022   0.10054
 Alpha virt. eigenvalues --    0.10704   0.11525   0.12345   0.12885   0.13956
 Alpha virt. eigenvalues --    0.14850   0.15154   0.16270   0.17296   0.18046

  Beta  occ. eigenvalues --  -19.07603 -19.02333 -19.01288 -14.28255 -14.27767
  Beta  occ. eigenvalues --  -14.21567 -14.17083 -10.21589 -10.19370 -10.17038
  Beta  occ. eigenvalues --  -10.10034  -1.01963  -0.96897  -0.93158  -0.92922
  Beta  occ. eigenvalues --   -0.84339  -0.75209  -0.74090  -0.60834  -0.59997
  Beta  occ. eigenvalues --   -0.52516  -0.50347  -0.45753  -0.43239  -0.40812
  Beta  occ. eigenvalues --   -0.39464  -0.38279  -0.36147  -0.35628  -0.33977
  Beta  occ. eigenvalues --   -0.33802  -0.32031  -0.31301  -0.30646  -0.27775
  Beta  occ. eigenvalues --   -0.23226  -0.21886  -0.19012  -0.17790  -0.17308
  Beta  occ. eigenvalues --   -0.16507  -0.14314
  Beta virt. eigenvalues --    0.07202   0.08088   0.08198   0.09096   0.09456
  Beta virt. eigenvalues --    0.10358   0.11588   0.12001   0.12606   0.13093
  Beta virt. eigenvalues --    0.14162   0.15163   0.15298   0.16448   0.17657

 Mulliken charges and spin densities:
               1          2
     1  C    0.992857  -1.288188
     2  N    0.246625   0.062247
     3  C    0.011513  -0.124970
     4  N   -0.264812  -0.065685
     5  N   -0.212297  -0.083043
     6  N   -0.671178   0.041241
     7  C    0.436935  -0.253196
     8  O   -0.302770   0.014196
     9  C    0.264756  -0.331113
    10  O   -0.257451   0.036224
    11  O   -0.100683   0.007837
    12  H   -0.508147   0.657664
    13  H   -0.239825   0.386611
    14  H    0.010705   0.167654
    15  H    0.191722   0.012968
    16  H   -0.323434   0.582638
    17  H    0.007022   0.270864
    18  H    0.123142   0.205606
    19  H   -0.404678   0.700443
 Sum of Mulliken charges =  -1.00000   1.00000

 Dipole moment (field-independent basis, Debye):
    X=             -0.8339    Y=             -2.4206    Z=             -1.6767  Tot=              3.0604
 Quadrupole moment (field-independent basis, Debye-Ang):
   XX=           -112.8269   YY=            -97.9635   ZZ=            -99.2867
   XY=             -3.1046   XZ=              1.7336   YZ=             -2.4219

 Summary of Natural Population Analysis:

                                       Natural Population
                Natural  -----------------------------------------------
    Atom  No    Charge         Core      Valence    Rydberg      Total
 -----------------------------------------------------------------------
      C    1   -0.17791      0.99962     2.16995    0.00834     3.17791
      N    2   -0.18593      0.99967     2.67099    0.01528     3.68593
      C    3    0.30799      0.99964     1.67352    0.01884     2.69201
      N    4   -0.37402      0.99970     2.86623    0.00809     3.87402
      N    5   -0.41151      0.99971     2.90120    0.01060     3.91151
      N    6   -0.22506      0.99966     2.71159    0.01381     3.72506
      C    7    0.31521      0.99965     1.66197    0.02317     2.68479
      O    8   -0.29492      0.99988     3.28904    0.00600     4.29492
      C    9    0.37390      0.99972     1.59981    0.02658     2.62610
      O   10   -0.29183      0.99987     3.28491    0.00706     4.29183
      O   11   -0.33068      0.99987     3.32363    0.00718     4.33068
      H   12    0.08998      0.00000     0.40800    0.00202     0.41002
      H   13    0.11011      0.00000     0.38776    0.00212     0.38989
      H   14    0.10526      0.00000     0.39318    0.00156     0.39474
      H   15    0.16918      0.00000     0.32873    0.00210     0.33082
      H   16    0.19340      0.00000     0.29825    0.00835     0.30660
      H   17    0.19335      0.00000     0.30453    0.00212     0.30665
      H   18    0.18903      0.00000     0.30770    0.00327     0.31097
      H   19    0.24447      0.00000     0.23872    0.01681     0.25553
 =======================================================================
   * Total *   -0.00000     10.99699    30.81971    0.18330    42.00000

 Normal termination of Gaussian 16 at Tue Dec  8 22:07:20 2020.
