 Gaussian 16, Revision A.03,

 -----------------------------------------------------------
 # opt freq B3LYP/6-31G(d) empiricaldispersion=gd3bj scf=xqc
 -----------------------------------------------------------

 ------------------------------
 CID_150863301_JID_579_neutraal
 ------------------------------
 Symbolic Z-matrix:
 Charge =  0 Multiplicity = 1

 SCF Done:  E(RB3LYP) =  -530.481246815     A.U. after   14 cycles
 SCF Done:  E(RB3LYP) =  -530.484662281     A.U. after   13 cycles
 SCF Done:  E(RB3LYP) =  -530.485287151     A.U. after   13 cycles
 SCF Done:  E(RB3LYP) =  -530.485434737     A.U. after   12 cycles
 SCF Done:  E(RB3LYP) =  -530.485501330     A.U. after   11 cycles
 SCF Done:  E(RB3LYP) =  -530.485507753     A.U. after   10 cycles
 SCF Done:  E(RB3LYP) =  -530.485511532     A.U. after    9 cycles
 SCF Done:  E(RB3LYP) =  -530.485513318     A.U. after    9 cycles
 SCF Done:  E(RB3LYP) =  -530.485514439     A.U. after    9 cycles
 SCF Done:  E(RB3LYP) =  -530.485514787     A.U. after    8 cycles
 SCF Done:  E(RB3LYP) =  -530.485514942     A.U. after    8 cycles
 Optimization completed.
    -- Stationary point found.
 Normal termination of Gaussian 16 at Tue Dec  8 12:15:36 2020.

 --------------------------------------------------------------------
 #N Geom=AllCheck Guess=TCheck SCRF=Check GenChk RB3LYP/6-31G(d) Freq
 --------------------------------------------------------------------

 Structure from the checkpoint file:  "JID_579.chk"
 ------------------------------
 CID_150863301_JID_579_neutraal
 ------------------------------
 Charge =  0 Multiplicity = 1

 SCF Done:  E(RB3LYP) =  -530.485514942     A.U. after    1 cycles

  Exact polarizability:  88.476   2.267  64.090   7.199  -4.254  55.251
 Approx polarizability: 121.994   9.155 110.314  13.519 -14.739  85.298

                      1                      2                      3
                      A                      A                      A
 Frequencies --     49.8112                79.9805               109.2263
 Red. masses --      6.6766                 4.9912                 7.3393
 Frc consts  --      0.0098                 0.0188                 0.0516
 IR Inten    --      0.5842                 3.0922                 0.3752

                      4                      5                      6
                      A                      A                      A
 Frequencies --    147.8946               239.4323               339.4793
 Red. masses --      3.7422                 7.2392                 3.5492
 Frc consts  --      0.0482                 0.2445                 0.2410
 IR Inten    --      2.8339                 3.5252                12.5750

                      7                      8                      9
                      A                      A                      A
 Frequencies --    352.7036               368.4197               442.2937
 Red. masses --      3.7901                 3.1083                 2.3580
 Frc consts  --      0.2778                 0.2486                 0.2718
 IR Inten    --      1.2732                 4.4586                 2.2602

                     10                     11                     12
                      A                      A                      A
 Frequencies --    478.3337               573.4287               626.8524
 Red. masses --      1.1267                 1.0725                 4.0108
 Frc consts  --      0.1519                 0.2078                 0.9286
 IR Inten    --     53.4056               180.6250                 3.6909

                     13                     14                     15
                      A                      A                      A
 Frequencies --    653.9430               714.7168               803.5159
 Red. masses --      2.7470                 4.7237                 5.3929
 Frc consts  --      0.6921                 1.4217                 2.0514
 IR Inten    --     10.9609                 5.3154                13.5779

                     16                     17                     18
                      A                      A                      A
 Frequencies --    828.8611               893.5413               907.6627
 Red. masses --      3.7174                 1.4812                 5.0875
 Frc consts  --      1.5047                 0.6968                 2.4695
 IR Inten    --      9.2503                 6.0523                19.0152

                     19                     20                     21
                      A                      A                      A
 Frequencies --    930.2762               962.3996               986.7160
 Red. masses --      2.1468                 2.4431                 9.2259
 Frc consts  --      1.0946                 1.3332                 5.2923
 IR Inten    --     32.0981                 7.0298                 0.3235

                     22                     23                     24
                      A                      A                      A
 Frequencies --   1013.4750              1058.2142              1091.7430
 Red. masses --      5.0619                 3.3919                 2.1492
 Frc consts  --      3.0633                 2.2379                 1.5092
 IR Inten    --     28.8773                28.7938               125.7106

                     25                     26                     27
                      A                      A                      A
 Frequencies --   1127.8645              1149.8387              1178.7433
 Red. masses --      3.5340                 2.9529                 1.1936
 Frc consts  --      2.6487                 2.3003                 0.9771
 IR Inten    --     46.2150                39.7390                 9.0712

                     28                     29                     30
                      A                      A                      A
 Frequencies --   1246.8750              1274.4185              1305.4946
 Red. masses --      1.1977                 1.3169                 1.7086
 Frc consts  --      1.0971                 1.2602                 1.7157
 IR Inten    --     40.7353                14.2396                 0.1544

                     31                     32                     33
                      A                      A                      A
 Frequencies --   1345.3649              1382.0378              1400.7858
 Red. masses --      1.5903                 1.5957                 2.7369
 Frc consts  --      1.6960                 1.7957                 3.1641
 IR Inten    --     34.3986                24.9150                51.4529

                     34                     35                     36
                      A                      A                      A
 Frequencies --   1415.0560              1434.1831              1452.0556
 Red. masses --      1.3172                 1.2029                 1.2942
 Frc consts  --      1.5540                 1.4578                 1.6077
 IR Inten    --      0.7935                41.9675               103.1569

                     37                     38                     39
                      A                      A                      A
 Frequencies --   1498.3999              1524.5724              1525.6457
 Red. masses --      1.3441                 2.4180                 1.2556
 Frc consts  --      1.7781                 3.3113                 1.7219
 IR Inten    --      7.5058                 3.1501                 6.0578

                     40                     41                     42
                      A                      A                      A
 Frequencies --   1599.9651              3043.4319              3082.5676
 Red. masses --      6.9360                 1.0657                 1.0850
 Frc consts  --     10.4611                 5.8159                 6.0742
 IR Inten    --     62.1022                36.1135                24.9233

                     43                     44                     45
                      A                      A                      A
 Frequencies --   3094.8015              3114.5558              3150.0332
 Red. masses --      1.0623                 1.1006                 1.1042
 Frc consts  --      5.9948                 6.2903                 6.4555
 IR Inten    --     13.7865                36.9383                 6.1597

                     46                     47                     48
                      A                      A                      A
 Frequencies --   3291.1300              3682.1177              3689.6452
 Red. masses --      1.1000                 1.0662                 1.0655
 Frc consts  --      7.0202                 8.5173                 8.5461
 IR Inten    --      0.3784                71.5727                39.3912

 - Thermochemistry -
 -------------------
 Temperature   298.150 Kelvin.  Pressure   1.00000 Atm.
 Atom     1 has atomic number  6 and mass  12.00000

 Molecular mass:   144.05349 amu.
 Principal axes and moments of inertia in atomic units:
                           1         2         3
     Eigenvalues --   645.939962056.688652399.18654
           X            0.99998  -0.00523   0.00318
           Y            0.00515   0.99967   0.02525
           Z           -0.00331  -0.02523   0.99968
 This molecule is an asymmetric top.
 Rotational symmetry number  1.
 Warning -- assumption of classical behavior for rotation
           may cause significant error
 Rotational temperatures (Kelvin)      0.13409     0.04211     0.03610
 Rotational constants (GHZ):           2.79398     0.87750     0.75223
 Zero-point vibrational energy     374805.0 (Joules/Mol)
                                   89.58055 (Kcal/Mol)
 Warning -- explicit consideration of  11 degrees of freedom as
           vibrations may cause significant error
 Vibrational temperatures:     71.67   115.07   157.15   212.79   344.49
          (Kelvin)            488.43   507.46   530.07   636.36   688.22
                              825.04   901.90   940.88  1028.32  1156.08
                             1192.55  1285.61  1305.92  1338.46  1384.68
                             1419.66  1458.16  1522.53  1570.77  1622.75
                             1654.36  1695.95  1793.97  1833.60  1878.32
                             1935.68  1988.44  2015.42  2035.95  2063.47
                             2089.18  2155.86  2193.52  2195.06  2301.99
                             4378.82  4435.13  4452.73  4481.15  4532.20
                             4735.20  5297.75  5308.58

 Zero-point correction=                           0.142756 (Hartree/Particle)
 Thermal correction to Energy=                    0.151842
 Thermal correction to Enthalpy=                  0.152786
 Thermal correction to Gibbs Free Energy=         0.107639
 Sum of electronic and zero-point Energies=           -530.342759
 Sum of electronic and thermal Energies=              -530.333673
 Sum of electronic and thermal Enthalpies=            -530.332729
 Sum of electronic and thermal Free Energies=         -530.377876

                     E (Thermal)             CV                S
                      KCal/Mol        Cal/Mol-Kelvin    Cal/Mol-Kelvin
 Total                   95.282             33.274             95.020
 Electronic               0.000              0.000              0.000
 Translational            0.889              2.981             40.806
 Rotational               0.889              2.981             29.545
 Vibrational             93.505             27.313             24.669
 Vibration     1          0.595              1.978              4.825
 Vibration     2          0.600              1.963              3.891
 Vibration     3          0.606              1.942              3.283
 Vibration     4          0.617              1.905              2.699
 Vibration     5          0.657              1.780              1.807
 Vibration     6          0.719              1.597              1.215
 Vibration     7          0.729              1.570              1.154
 Vibration     8          0.741              1.537              1.086
 Vibration     9          0.802              1.378              0.819
 Vibration    10          0.835              1.298              0.715
 Vibration    11          0.930              1.089              0.498

 Optimization completed.
    -- Stationary point found.
 Normal termination of Gaussian 16 at Tue Dec  8 12:22:05 2020.

 ----------------------------------------------------------------------
 # B3LYP/6-311++G(d,p) empiricaldispersion=gd3bj scf=xqc pop=npa geom=c
 heck
 ----------------------------------------------------------------------

 --------------------------------------
 CID_150863301_JID_579_Energie_neutraal
 --------------------------------------
 Structure from the checkpoint file:  "JID_579.chk"
 Charge =  0 Multiplicity = 1

 SCF Done:  E(RB3LYP) =  -530.654748349     A.U. after   14 cycles
 Normal termination of Gaussian 16 at Tue Dec  8 12:24:37 2020.

 ----------------------------------------------------------------------
 # B3LYP/6-311++G(d,p) empiricaldispersion=gd3bj scf=xqc pop=npa geom=c
 heck
 ----------------------------------------------------------------------

 ------------------------------------
 CID_150863301_JID_579_Energie_kation
 ------------------------------------
 Structure from the checkpoint file:  "JID_579.chk"
 Charge =  1 Multiplicity = 2

 SCF Done:  E(UB3LYP) =  -530.297363653     A.U. after   24 cycles
 Normal termination of Gaussian 16 at Tue Dec  8 12:27:56 2020.
 Gaussian 16:  ES64L-G16RevA.03 25-Dec-2016

 ----------------------------------------------------------------------
 # B3LYP/6-311++G(d,p) empiricaldispersion=gd3bj scf=xqc pop=npa geom=c
 heck
 ----------------------------------------------------------------------

 -----------------------------------
 CID_150863301_JID_579_Energie_anion
 -----------------------------------
 Structure from the checkpoint file:  "JID_579.chk"
 Charge = -1 Multiplicity = 2

                         Standard orientation:
 ---------------------------------------------------------------------
 Center     Atomic      Atomic             Coordinates (Angstroms)
 Number     Number       Type             X           Y           Z
 ---------------------------------------------------------------------
      1          6           0        2.758551   -0.320895    0.476586
      2          7           0        1.784858   -1.173379    0.381396
      3          6           0        0.854136   -0.464326   -0.357335
      4          7           0        1.240475    0.747653   -0.684443
      5          8           0        2.527402    0.852834   -0.122202
      6          6           0       -0.511637   -0.954921   -0.698835
      7          6           0       -1.570472   -0.647527    0.395579
      8          6           0       -1.493861    0.800036    0.890378
      9          8           0       -1.623097    1.712987   -0.194892
     10          8           0       -2.859491   -0.921327   -0.128710
     11          1           0        3.714609   -0.443785    0.966924
     12          1           0       -0.835570   -0.461183   -1.619350
     13          1           0       -0.486978   -2.031516   -0.880534
     14          1           0       -1.428018   -1.325741    1.244244
     15          1           0       -2.340732    0.979018    1.559870
     16          1           0       -0.569718    0.974225    1.457246
     17          1           0       -0.736588    1.816809   -0.584483
     18          1           0       -3.073139   -0.157892   -0.694394
 ---------------------------------------------------------------------

 SCF Done:  E(UB3LYP) =  -530.646285019     A.U. after   33 cycles
 SCF Done:  E(UB3LYP) =  -530.646285019     a.u. after    1 cycles

 The electronic state is 2-A.
 Alpha  occ. eigenvalues --  -19.06094 -19.01687 -19.01076 -14.21272 -14.17599
 Alpha  occ. eigenvalues --  -10.11349 -10.10909 -10.10189 -10.09365 -10.06394
 Alpha  occ. eigenvalues --   -1.01550  -0.92944  -0.90410  -0.79464  -0.72893
 Alpha  occ. eigenvalues --   -0.65524  -0.58887  -0.50880  -0.49781  -0.45753
 Alpha  occ. eigenvalues --   -0.41054  -0.39438  -0.37815  -0.35435  -0.34749
 Alpha  occ. eigenvalues --   -0.33402  -0.30930  -0.29010  -0.27065  -0.26306
 Alpha  occ. eigenvalues --   -0.23752  -0.22701  -0.20428  -0.19738  -0.18377
 Alpha  occ. eigenvalues --   -0.16572  -0.16098  -0.14915   0.05900
 Alpha virt. eigenvalues --    0.08421   0.08653   0.09628   0.10949   0.11576
 Alpha virt. eigenvalues --    0.12637   0.13564   0.13899   0.15289   0.15577
 Alpha virt. eigenvalues --    0.17065   0.18248   0.18575   0.19494   0.20182

  Beta  occ. eigenvalues --  -19.05728 -19.01676 -19.01062 -14.20957 -14.17650
  Beta  occ. eigenvalues --  -10.11329 -10.10538 -10.10174 -10.09242 -10.06405
  Beta  occ. eigenvalues --   -1.00983  -0.92909  -0.90376  -0.79182  -0.72420
  Beta  occ. eigenvalues --   -0.65401  -0.58802  -0.50764  -0.49226  -0.45473
  Beta  occ. eigenvalues --   -0.40982  -0.39272  -0.37618  -0.34896  -0.34582
  Beta  occ. eigenvalues --   -0.32575  -0.30785  -0.28871  -0.26791  -0.26225
  Beta  occ. eigenvalues --   -0.23684  -0.22655  -0.20075  -0.19161  -0.17850
  Beta  occ. eigenvalues --   -0.16163  -0.15888  -0.13544
  Beta virt. eigenvalues --    0.08536   0.09613   0.09898   0.10824   0.11743
  Beta virt. eigenvalues --    0.11832   0.12833   0.13869   0.14116   0.15545
  Beta virt. eigenvalues --    0.15756   0.17379   0.18251   0.18566   0.19830

 Mulliken charges and spin densities:
               1          2
     1  C   -0.072777   0.373511
     2  N   -0.227663   0.105338
     3  C    1.084549  -1.030032
     4  N   -0.523439   0.319221
     5  O    0.143906   0.030412
     6  C   -0.084911  -0.717924
     7  C   -0.220195   0.292919
     8  C    0.294721  -0.819984
     9  O   -0.293796   0.000707
    10  O   -0.222783   0.000734
    11  H   -1.319268   1.465419
    12  H    0.208275  -0.013859
    13  H    0.128149   0.021608
    14  H    0.106867   0.056878
    15  H   -0.376485   0.585604
    16  H   -0.082866   0.259919
    17  H    0.230829   0.042692
    18  H    0.226887   0.026838
 Sum of Mulliken charges =  -1.00000   1.00000

 Dipole moment (field-independent basis, Debye):
    X=             -4.5881    Y=             -0.8187    Z=             -4.0870  Tot=              6.1987
 Quadrupole moment (field-independent basis, Debye-Ang):
   XX=           -113.5307   YY=            -82.9357   ZZ=            -80.0034
   XY=              2.3468   XZ=             -8.2563   YZ=              0.6513

 Summary of Natural Population Analysis:

                                       Natural Population
                Natural  -----------------------------------------------
    Atom  No    Charge         Core      Valence    Rydberg      Total
 -----------------------------------------------------------------------
      C    1    0.25502      0.99967     1.72377    0.02154     2.74498
      N    2   -0.29295      0.99970     2.78247    0.01078     3.79295
      C    3    0.17856      0.99963     1.80178    0.02002     2.82144
      N    4   -0.08959      0.99963     2.57576    0.01419     3.58959
      O    5   -0.14167      0.99987     3.13247    0.00932     4.14167
      C    6   -0.22254      0.99956     2.21305    0.00993     3.22254
      C    7    0.05794      0.99958     1.92736    0.01513     2.94206
      C    8   -0.02922      0.99958     2.01515    0.01449     3.02922
      O    9   -0.38836      0.99990     3.38117    0.00729     4.38836
      O   10   -0.37497      0.99990     3.36803    0.00704     4.37497
      H   11    0.08753      0.00000     0.40920    0.00326     0.41247
      H   12    0.10592      0.00000     0.39285    0.00123     0.39408
      H   13    0.11029      0.00000     0.38868    0.00103     0.38971
      H   14    0.08909      0.00000     0.40962    0.00129     0.41091
      H   15    0.08750      0.00000     0.41111    0.00138     0.41250
      H   16    0.09282      0.00000     0.40570    0.00149     0.40718
      H   17    0.24490      0.00000     0.25178    0.00332     0.25510
      H   18    0.22973      0.00000     0.26744    0.00284     0.27027
 =======================================================================
   * Total *   -0.00000      9.99703    27.85740    0.14557    38.00000

 Normal termination of Gaussian 16 at Tue Dec  8 12:32:49 2020.
