 Gaussian 16, Revision A.03,

 -----------------------------------------------------------
 # opt freq B3LYP/6-31G(d) empiricaldispersion=gd3bj scf=xqc
 -----------------------------------------------------------

 ------------------------------
 CID_10444513_JID_8626_neutraal
 ------------------------------
 Symbolic Z-matrix:
 Charge =  0 Multiplicity = 1

 SCF Done:  E(RB3LYP) =  -803.078335310     A.U. after   16 cycles
 SCF Done:  E(RB3LYP) =  -803.083176736     A.U. after   15 cycles
 SCF Done:  E(RB3LYP) =  -803.076945217     A.U. after   16 cycles
 SCF Done:  E(RB3LYP) =  -803.085638810     A.U. after   15 cycles
 SCF Done:  E(RB3LYP) =  -803.086016661     A.U. after   14 cycles
 SCF Done:  E(RB3LYP) =  -803.086154829     A.U. after   13 cycles
 SCF Done:  E(RB3LYP) =  -803.086197158     A.U. after   12 cycles
 SCF Done:  E(RB3LYP) =  -803.086208323     A.U. after   10 cycles
 SCF Done:  E(RB3LYP) =  -803.086214150     A.U. after   10 cycles
 SCF Done:  E(RB3LYP) =  -803.086217999     A.U. after   10 cycles
 SCF Done:  E(RB3LYP) =  -803.086219667     A.U. after    9 cycles
 SCF Done:  E(RB3LYP) =  -803.086220143     A.U. after    9 cycles
 SCF Done:  E(RB3LYP) =  -803.086220279     A.U. after    8 cycles
 SCF Done:  E(RB3LYP) =  -803.086220358     A.U. after    7 cycles
 Optimization completed.
    -- Stationary point found.
 Normal termination of Gaussian 16 at Fri Dec 11 21:21:30 2020.

 --------------------------------------------------------------------
 #N Geom=AllCheck Guess=TCheck SCRF=Check GenChk RB3LYP/6-31G(d) Freq
 --------------------------------------------------------------------

 Structure from the checkpoint file:  "JID_8626.chk"
 ------------------------------
 CID_10444513_JID_8626_neutraal
 ------------------------------
 Charge =  0 Multiplicity = 1

 SCF Done:  E(RB3LYP) =  -803.086220358     A.U. after    1 cycles

  Exact polarizability: 258.793   5.928 183.430   0.652  -0.797  86.870
 Approx polarizability: 384.412  21.786 323.275   1.897  -5.417 140.320

                      1                      2                      3
                      A                      A                      A
 Frequencies --     44.1300                50.0702                92.6606
 Red. masses --      7.6609                 4.9779                 2.7433
 Frc consts  --      0.0088                 0.0074                 0.0139
 IR Inten    --      0.2490                 0.4527                 0.0407

                      4                      5                      6
                      A                      A                      A
 Frequencies --    105.4973               142.3796               153.8780
 Red. masses --      2.8403                 2.9733                 3.8830
 Frc consts  --      0.0186                 0.0355                 0.0542
 IR Inten    --      1.3596                 0.1154                 0.4041

                      7                      8                      9
                      A                      A                      A
 Frequencies --    167.2668               187.8115               197.7276
 Red. masses --      1.1780                 1.2294                 2.9714
 Frc consts  --      0.0194                 0.0255                 0.0684
 IR Inten    --      0.1529                 0.4760                 3.5328

                     10                     11                     12
                      A                      A                      A
 Frequencies --    237.0264               262.1340               285.4986
 Red. masses --      3.6316                 3.3231                 5.3792
 Frc consts  --      0.1202                 0.1345                 0.2583
 IR Inten    --      1.5194                 1.0963                 0.8063

                     13                     14                     15
                      A                      A                      A
 Frequencies --    314.9280               328.1802               332.9434
 Red. masses --      2.0582                 2.8991                 3.0905
 Frc consts  --      0.1203                 0.1840                 0.2018
 IR Inten    --      4.2592                 2.3554                13.7473

                     16                     17                     18
                      A                      A                      A
 Frequencies --    345.8939               368.5403               401.6793
 Red. masses --      2.1879                 3.1727                 1.8836
 Frc consts  --      0.1542                 0.2539                 0.1791
 IR Inten    --     25.4417                 3.7297                32.8511

                     19                     20                     21
                      A                      A                      A
 Frequencies --    447.4702               464.6051               480.4856
 Red. masses --      4.7825                 3.2697                 3.5572
 Frc consts  --      0.5642                 0.4158                 0.4839
 IR Inten    --      3.9939                 0.2199                 0.1881

                     22                     23                     24
                      A                      A                      A
 Frequencies --    484.4339               566.5196               588.5858
 Red. masses --      5.4080                 3.9368                 4.5407
 Frc consts  --      0.7478                 0.7444                 0.9268
 IR Inten    --      0.3101                 3.1795                 4.1101

                     25                     26                     27
                      A                      A                      A
 Frequencies --    602.4829               620.9998               664.4305
 Red. masses --      3.2134                 3.9974                 3.8853
 Frc consts  --      0.6872                 0.9083                 1.0106
 IR Inten    --      2.7315                 4.5799                 2.1634

                     28                     29                     30
                      A                      A                      A
 Frequencies --    675.4791               726.3927               764.8679
 Red. masses --      4.3439                 3.0854                 7.3571
 Frc consts  --      1.1678                 0.9592                 2.5359
 IR Inten    --      0.7639                 1.1777                 7.1526

                     31                     32                     33
                      A                      A                      A
 Frequencies --    776.6438               777.4005               811.4829
 Red. masses --      6.2285                 6.7406                 4.6546
 Frc consts  --      2.2135                 2.4001                 1.8059
 IR Inten    --      9.2364                 8.8205                 7.1649

                     34                     35                     36
                      A                      A                      A
 Frequencies --    847.4203               870.9941               895.5128
 Red. masses --      1.5187                 2.6737                 1.3693
 Frc consts  --      0.6426                 1.1951                 0.6470
 IR Inten    --      4.8275                 4.0009                 9.9722

                     37                     38                     39
                      A                      A                      A
 Frequencies --    915.4445               932.7712               972.2660
 Red. masses --      2.9819                 1.5108                 2.6307
 Frc consts  --      1.4724                 0.7745                 1.4652
 IR Inten    --      7.4987                 0.1015                 1.1895

                     40                     41                     42
                      A                      A                      A
 Frequencies --    981.4268              1013.8192              1062.3000
 Red. masses --      2.2611                 2.2753                 1.5282
 Frc consts  --      1.2832                 1.3779                 1.0161
 IR Inten    --      9.8474                 2.7493                13.7608

                     43                     44                     45
                      A                      A                      A
 Frequencies --   1066.8126              1075.4005              1080.3466
 Red. masses --      1.5882                 1.5064                 2.7519
 Frc consts  --      1.0649                 1.0264                 1.8924
 IR Inten    --     30.1107                 3.4955                 7.2707

                     46                     47                     48
                      A                      A                      A
 Frequencies --   1084.1925              1113.7605              1147.9838
 Red. masses --      2.3326                 1.8618                 2.7459
 Frc consts  --      1.6155                 1.3607                 2.1321
 IR Inten    --      1.2966                 1.0157                 0.0051

                     49                     50                     51
                      A                      A                      A
 Frequencies --   1170.3144              1186.6164              1194.3969
 Red. masses --      1.1817                 3.1615                 1.4027
 Frc consts  --      0.9536                 2.6228                 1.1790
 IR Inten    --      4.5935                 8.7815                13.5827

                     52                     53                     54
                      A                      A                      A
 Frequencies --   1233.5676              1258.6777              1280.7813
 Red. masses --      1.9710                 1.9007                 1.2686
 Frc consts  --      1.7671                 1.7742                 1.2261
 IR Inten    --     46.6536                 7.2264                10.1146

                     55                     56                     57
                      A                      A                      A
 Frequencies --   1296.6535              1332.6634              1339.5809
 Red. masses --      1.4680                 2.5123                 1.7689
 Frc consts  --      1.4542                 2.6288                 1.8702
 IR Inten    --      3.4556                33.2417                51.0877

                     58                     59                     60
                      A                      A                      A
 Frequencies --   1373.4033              1380.7000              1386.4983
 Red. masses --      3.5370                 2.4266                 1.9400
 Frc consts  --      3.9308                 2.7255                 2.1973
 IR Inten    --    178.9242               316.0585               146.3502

                     61                     62                     63
                      A                      A                      A
 Frequencies --   1396.3371              1399.1960              1411.7170
 Red. masses --      2.0668                 1.9533                 2.1118
 Frc consts  --      2.3742                 2.2531                 2.4797
 IR Inten    --     51.0662                10.4390                 5.0144

                     64                     65                     66
                      A                      A                      A
 Frequencies --   1440.1963              1445.7613              1449.4958
 Red. masses --      2.2133                 1.3580                 1.5702
 Frc consts  --      2.7048                 1.6724                 1.9437
 IR Inten    --     29.2452                 0.8341                 2.4976

                     67                     68                     69
                      A                      A                      A
 Frequencies --   1495.2123              1504.7111              1508.8120
 Red. masses --      2.2537                 1.1315                 1.2092
 Frc consts  --      2.9686                 1.5094                 1.6218
 IR Inten    --     18.2695                 8.5411                 0.7589

                     70                     71                     72
                      A                      A                      A
 Frequencies --   1512.7355              1515.3819              1517.3189
 Red. masses --      1.0772                 1.1430                 1.1058
 Frc consts  --      1.4524                 1.5464                 1.4999
 IR Inten    --      3.5815                16.1131                13.2561

                     73                     74                     75
                      A                      A                      A
 Frequencies --   1520.9292              1526.7129              1532.3977
 Red. masses --      1.2610                 1.1290                 1.1225
 Frc consts  --      1.7187                 1.5504                 1.5530
 IR Inten    --     16.6614                 7.4142                 1.4877

                     76                     77                     78
                      A                      A                      A
 Frequencies --   1560.6533              1599.5539              1609.0885
 Red. masses --      3.3496                 9.5089                 6.3748
 Frc consts  --      4.8068                14.3344                 9.7248
 IR Inten    --     11.0716               131.2318                91.2368

                     79                     80                     81
                      A                      A                      A
 Frequencies --   1639.9439              1673.0688              3014.9059
 Red. masses --      9.5193                 6.0938                 1.0693
 Frc consts  --     15.0839                10.0500                 5.7267
 IR Inten    --     65.7887                 4.7037                50.7288

                     82                     83                     84
                      A                      A                      A
 Frequencies --   3015.1458              3037.3101              3043.1645
 Red. masses --      1.0678                 1.0675                 1.0707
 Frc consts  --      5.7197                 5.8025                 5.8422
 IR Inten    --     12.4219                25.8730                 8.7028

                     85                     86                     87
                      A                      A                      A
 Frequencies --   3048.0890              3057.0786              3062.7786
 Red. masses --      1.0395                 1.0855                 1.0398
 Frc consts  --      5.6903                 5.9770                 5.7468
 IR Inten    --     24.1203                50.8108                30.2467

                     88                     89                     90
                      A                      A                      A
 Frequencies --   3082.1879              3090.4418              3095.7335
 Red. masses --      1.0884                 1.0984                 1.1034
 Frc consts  --      6.0918                 6.1808                 6.2304
 IR Inten    --     31.1278                64.9522                48.8899

                     91                     92                     93
                      A                      A                      A
 Frequencies --   3102.2036              3123.0184              3133.6097
 Red. masses --      1.0996                 1.1009                 1.1013
 Frc consts  --      6.2351                 6.3264                 6.3714
 IR Inten    --     25.7565                18.2151                17.5109

                     94                     95                     96
                      A                      A                      A
 Frequencies --   3156.7092              3245.8540              3672.8066
 Red. masses --      1.0976                 1.0900                 1.0793
 Frc consts  --      6.4442                 6.7663                 8.5782
 IR Inten    --      6.1009                 1.3487                51.9350

 - Thermochemistry -
 -------------------
 Temperature   298.150 Kelvin.  Pressure   1.00000 Atm.
 Atom     1 has atomic number  6 and mass  12.00000

 Molecular mass:   244.12118 amu.
 Principal axes and moments of inertia in atomic units:
                           1         2         3
     Eigenvalues --  1901.111657114.840658899.09514
           X            0.99998  -0.00619  -0.00066
           Y            0.00620   0.99998   0.00275
           Z            0.00065  -0.00276   1.00000
 This molecule is an asymmetric top.
 Rotational symmetry number  1.
 Warning -- assumption of classical behavior for rotation
           may cause significant error
 Rotational temperatures (Kelvin)      0.04556     0.01217     0.00973
 Rotational constants (GHZ):           0.94931     0.25366     0.20280
 Zero-point vibrational energy     742911.4 (Joules/Mol)
                                  177.56009 (Kcal/Mol)
 Warning -- explicit consideration of  25 degrees of freedom as
           vibrations may cause significant error
 Vibrational temperatures:     63.49    72.04   133.32   151.79   204.85
          (Kelvin)            221.40   240.66   270.22   284.49   341.03
                              377.15   410.77   453.11   472.18   479.03
                              497.66   530.25   577.93   643.81   668.46
                              691.31   696.99   815.10   846.84   866.84
                              893.48   955.97   971.86  1045.12  1100.47
                             1117.42  1118.51  1167.54  1219.25  1253.17
                             1288.44  1317.12  1342.05  1398.87  1412.05
                             1458.66  1528.41  1534.91  1547.26  1554.38
                             1559.91  1602.45  1651.69  1683.82  1707.28
                             1718.47  1774.83  1810.96  1842.76  1865.60
                             1917.41  1927.36  1976.02  1986.52  1994.86
                             2009.02  2013.13  2031.15  2072.12  2080.13
                             2085.50  2151.28  2164.94  2170.84  2176.49
                             2180.30  2183.08  2188.28  2196.60  2204.78
                             2245.43  2301.40  2315.12  2359.51  2407.17
                             4337.78  4338.12  4370.01  4378.44  4385.52
                             4398.45  4406.66  4434.58  4446.46  4454.07
                             4463.38  4493.33  4508.57  4541.80  4670.06
                             5284.35

 Zero-point correction=                           0.282960 (Hartree/Particle)
 Thermal correction to Energy=                    0.298753
 Thermal correction to Enthalpy=                  0.299697
 Thermal correction to Gibbs Free Energy=         0.240110
 Sum of electronic and zero-point Energies=           -802.803260
 Sum of electronic and thermal Energies=              -802.787468
 Sum of electronic and thermal Enthalpies=            -802.786524
 Sum of electronic and thermal Free Energies=         -802.846111

                     E (Thermal)             CV                S
                      KCal/Mol        Cal/Mol-Kelvin    Cal/Mol-Kelvin
 Total                  187.470             61.764            125.412
 Electronic               0.000              0.000              0.000
 Translational            0.889              2.981             42.378
 Rotational               0.889              2.981             33.153
 Vibrational            185.693             55.803             49.880
 Vibration     1          0.595              1.980              5.064
 Vibration     2          0.595              1.978              4.815
 Vibration     3          0.602              1.954              3.603
 Vibration     4          0.605              1.945              3.350
 Vibration     5          0.616              1.911              2.772
 Vibration     6          0.619              1.898              2.624
 Vibration     7          0.624              1.883              2.466
 Vibration     8          0.632              1.857              2.249
 Vibration     9          0.637              1.843              2.154
 Vibration    10          0.656              1.784              1.825
 Vibration    11          0.669              1.742              1.648
 Vibration    12          0.683              1.701              1.501
 Vibration    13          0.702              1.645              1.336
 Vibration    14          0.711              1.619              1.269
 Vibration    15          0.715              1.610              1.246
 Vibration    16          0.724              1.584              1.185
 Vibration    17          0.741              1.537              1.086
 Vibration    18          0.767              1.466              0.956
 Vibration    19          0.807              1.366              0.803
 Vibration    20          0.822              1.329              0.753
 Vibration    21          0.837              1.293              0.709
 Vibration    22          0.841              1.285              0.698
 Vibration    23          0.922              1.104              0.511
 Vibration    24          0.946              1.056              0.470
 Vibration    25          0.961              1.027              0.445

                           ! Non-Optimized Parameters !
 Normal termination of Gaussian 16 at Fri Dec 11 21:35:53 2020.

 ----------------------------------------------------------------------
 # B3LYP/6-311++G(d,p) empiricaldispersion=gd3bj scf=xqc pop=npa geom=c
 heck
 ----------------------------------------------------------------------

 --------------------------------------
 CID_10444513_JID_8626_Energie_neutraal
 --------------------------------------
 Structure from the checkpoint file:  "JID_8626.chk"
 Charge =  0 Multiplicity = 1

 SCF Done:  E(RB3LYP) =  -803.299506203     A.U. after   15 cycles
 Normal termination of Gaussian 16 at Fri Dec 11 21:42:40 2020.

 ----------------------------------------------------------------------
 # B3LYP/6-311++G(d,p) empiricaldispersion=gd3bj scf=xqc pop=npa geom=c
 heck
 ----------------------------------------------------------------------

 ------------------------------------
 CID_10444513_JID_8626_Energie_kation
 ------------------------------------
 Structure from the checkpoint file:  "JID_8626.chk"
 Charge =  1 Multiplicity = 2

 SCF Done:  E(UB3LYP) =  -803.023127185     A.U. after   23 cycles
 Normal termination of Gaussian 16 at Fri Dec 11 21:57:06 2020.
 Gaussian 16:  ES64L-G16RevA.03 25-Dec-2016

 ----------------------------------------------------------------------
 # B3LYP/6-311++G(d,p) empiricaldispersion=gd3bj scf=xqc pop=npa geom=c
 heck
 ----------------------------------------------------------------------

 -----------------------------------
 CID_10444513_JID_8626_Energie_anion
 -----------------------------------
 Structure from the checkpoint file:  "JID_8626.chk"
 Charge = -1 Multiplicity = 2

                         Standard orientation:
 ---------------------------------------------------------------------
 Center     Atomic      Atomic             Coordinates (Angstroms)
 Number     Number       Type             X           Y           Z
 ---------------------------------------------------------------------
      1          6           0       -0.093214    3.071681    0.072853
      2          6           0        0.449432    1.665943    0.036316
      3          6           0        1.813264    1.433853    0.032718
      4          6           0        2.352344    0.130519    0.001357
      5          6           0        1.559727   -1.026917   -0.047308
      6          6           0        0.183472   -0.766746   -0.036331
      7          6           0       -0.399757    0.535096    0.003934
      8          6           0       -1.826515    0.358046    0.002409
      9          6           0       -2.061993   -0.999885   -0.028957
     10          7           0       -0.860673   -1.675978   -0.066305
     11          6           0       -3.399560   -1.666851   -0.033208
     12          6           0       -4.478449   -0.648543    0.379403
     13          6           0       -4.283079    0.691437   -0.344819
     14          6           0       -2.949195    1.360136    0.036302
     15          6           0        2.060037   -2.446833   -0.129982
     16          7           0        3.809184    0.040062    0.027280
     17          8           0        4.459329    1.059588   -0.219928
     18          8           0        4.329123   -1.046467    0.307419
     19          1           0       -0.631681    3.317442   -0.850524
     20          1           0        0.716666    3.797385    0.189008
     21          1           0       -0.795722    3.211677    0.902130
     22          1           0        2.510262    2.261472    0.058492
     23          1           0       -0.762675   -2.677874   -0.027522
     24          1           0       -3.406885   -2.531411    0.644518
     25          1           0       -3.621282   -2.059725   -1.037027
     26          1           0       -4.422977   -0.484995    1.463751
     27          1           0       -5.471837   -1.058898    0.167561
     28          1           0       -4.301916    0.516793   -1.429360
     29          1           0       -5.114557    1.367977   -0.117273
     30          1           0       -2.750655    2.195754   -0.643846
     31          1           0       -3.035813    1.801644    1.040343
     32          1           0        2.888442   -2.540904   -0.833521
     33          1           0        2.435218   -2.797472    0.836402
     34          1           0        1.259131   -3.118039   -0.457995
 ---------------------------------------------------------------------

 SCF Done:  E(UB3LYP) =  -803.322106032     A.U. after   26 cycles

 The electronic state is 2-A.
 Alpha  occ. eigenvalues --  -18.93523 -18.93498 -14.31384 -14.23213 -10.08682
 Alpha  occ. eigenvalues --  -10.08582 -10.08176 -10.08143 -10.07529 -10.07457
 Alpha  occ. eigenvalues --  -10.05660 -10.05622 -10.04808 -10.04703 -10.04216
 Alpha  occ. eigenvalues --  -10.04024 -10.03666 -10.02630  -1.01529  -0.86082
 Alpha  occ. eigenvalues --   -0.84237  -0.73463  -0.72350  -0.67624  -0.65589
 Alpha  occ. eigenvalues --   -0.63351  -0.61868  -0.60009  -0.55365  -0.53993
 Alpha  occ. eigenvalues --   -0.51332  -0.49630  -0.47403  -0.43909  -0.42359
 Alpha  occ. eigenvalues --   -0.39152  -0.37416  -0.37059  -0.35044  -0.34309
 Alpha  occ. eigenvalues --   -0.33883  -0.33648  -0.31909  -0.31849  -0.30963
 Alpha  occ. eigenvalues --   -0.30376  -0.30169  -0.29421  -0.28818  -0.28172
 Alpha  occ. eigenvalues --   -0.27561  -0.26447  -0.25876  -0.24845  -0.24635
 Alpha  occ. eigenvalues --   -0.23407  -0.21771  -0.21120  -0.19608  -0.14468
 Alpha  occ. eigenvalues --   -0.12780  -0.11550  -0.10048  -0.09131  -0.07920
 Alpha  occ. eigenvalues --    0.03628
 Alpha virt. eigenvalues --    0.05699   0.07264   0.08049   0.08152   0.09278
 Alpha virt. eigenvalues --    0.10050   0.10386   0.10704   0.11358   0.11964
 Alpha virt. eigenvalues --    0.12594   0.13038   0.13419   0.13725   0.14858

  Beta  occ. eigenvalues --  -18.93035 -18.93030 -14.30764 -14.23151 -10.08695
  Beta  occ. eigenvalues --  -10.08577 -10.08175 -10.07975 -10.07531 -10.07523
  Beta  occ. eigenvalues --  -10.05621 -10.05620 -10.04848 -10.04774 -10.04044
  Beta  occ. eigenvalues --  -10.03941 -10.03498 -10.02574  -1.00492  -0.85952
  Beta  occ. eigenvalues --   -0.83331  -0.73409  -0.72147  -0.67394  -0.65521
  Beta  occ. eigenvalues --   -0.63231  -0.61486  -0.59922  -0.55018  -0.53917
  Beta  occ. eigenvalues --   -0.51060  -0.49362  -0.47265  -0.43856  -0.42001
  Beta  occ. eigenvalues --   -0.39030  -0.37227  -0.36725  -0.34604  -0.34231
  Beta  occ. eigenvalues --   -0.33552  -0.32186  -0.31724  -0.30954  -0.30706
  Beta  occ. eigenvalues --   -0.30092  -0.29907  -0.29340  -0.28372  -0.28019
  Beta  occ. eigenvalues --   -0.27478  -0.26292  -0.25791  -0.24783  -0.24602
  Beta  occ. eigenvalues --   -0.23353  -0.21705  -0.21048  -0.19051  -0.13846
  Beta  occ. eigenvalues --   -0.11106  -0.09632  -0.09255  -0.08566  -0.07143
  Beta virt. eigenvalues --    0.05686   0.07199   0.08005   0.08022   0.09208
  Beta virt. eigenvalues --    0.09842   0.10188   0.10502   0.10747   0.11622
  Beta virt. eigenvalues --    0.12038   0.12971   0.13066   0.13374   0.13710

 Mulliken charges and spin densities:
               1          2
     1  C   -0.447038   0.002065
     2  C    0.756883  -0.010826
     3  C   -0.649134   0.058919
     4  C   -0.759762  -0.007704
     5  C    0.174648   0.176782
     6  C   -0.193508  -0.062515
     7  C    0.900369   0.117358
     8  C    0.795208  -0.016964
     9  C   -0.535679  -0.021627
    10  N    0.036720   0.038882
    11  C   -0.649334  -0.045892
    12  C   -0.345293   0.072835
    13  C   -0.245583  -0.035215
    14  C   -0.714950  -0.053749
    15  C   -0.653678  -0.019048
    16  N   -0.292368   0.200247
    17  O   -0.165078   0.179666
    18  O   -0.176505   0.183185
    19  H    0.130298   0.006009
    20  H    0.148695  -0.001573
    21  H    0.128932  -0.000124
    22  H    0.193921  -0.000729
    23  H    0.265635  -0.005549
    24  H    0.122501  -0.009359
    25  H    0.059278   0.113840
    26  H    0.129544  -0.001555
    27  H    0.070765   0.082745
    28  H    0.099446   0.030114
    29  H    0.134665   0.012887
    30  H    0.126203  -0.001088
    31  H    0.152621  -0.002863
    32  H    0.181954   0.004203
    33  H    0.194727   0.009019
    34  H    0.024894   0.007622
 Sum of Mulliken charges =  -1.00000   1.00000

 Dipole moment (field-independent basis, Debye):
    X=            -13.2531    Y=             -1.1160    Z=              0.3093  Tot=             13.3036
 Quadrupole moment (field-independent basis, Debye-Ang):
   XX=           -195.8778   YY=           -115.3627   ZZ=           -115.4606
   XY=             -1.7618   XZ=             -2.8041   YZ=              0.6483

 Summary of Natural Population Analysis:

                                       Natural Population
                Natural  -----------------------------------------------
    Atom  No    Charge         Core      Valence    Rydberg      Total
 -----------------------------------------------------------------------
      C    1   -0.28593      0.99960     2.28119    0.00513     3.28593
      C    2   -0.04809      0.99943     2.03645    0.01221     3.04809
      C    3   -0.10029      0.99953     2.08947    0.01129     3.10029
      C    4    0.04837      0.99940     1.93990    0.01234     2.95163
      C    5    0.02666      0.99935     1.96569    0.00831     2.97334
      C    6    0.04670      0.99954     1.93869    0.01506     2.95330
      C    7    0.06103      0.99939     1.93202    0.00756     2.93897
      C    8   -0.09412      0.99950     2.08131    0.01331     3.09412
      C    9    0.10242      0.99948     1.88420    0.01390     2.89758
      N   10   -0.24934      0.99963     2.74248    0.00723     3.74934
      C   11   -0.20216      0.99960     2.19461    0.00795     3.20216
      C   12   -0.18460      0.99964     2.17697    0.00799     3.18460
      C   13   -0.18664      0.99964     2.17871    0.00829     3.18664
      C   14   -0.18948      0.99961     2.18297    0.00689     3.18948
      C   15   -0.29021      0.99961     2.28514    0.00547     3.29021
      N   16    0.30108      0.99971     2.16965    0.02955     3.19892
      O   17   -0.20003      0.99990     3.19238    0.00776     4.20003
      O   18   -0.19891      0.99990     3.19077    0.00825     4.19891
      H   19    0.09438      0.00000     0.40395    0.00167     0.40562
      H   20    0.09861      0.00000     0.39998    0.00142     0.40139
      H   21    0.09508      0.00000     0.40333    0.00159     0.40492
      H   22    0.11160      0.00000     0.38682    0.00158     0.38840
      H   23    0.19268      0.00000     0.30558    0.00173     0.30732
      H   24    0.09815      0.00000     0.40041    0.00144     0.40185
      H   25    0.09797      0.00000     0.39970    0.00234     0.40203
      H   26    0.09342      0.00000     0.40514    0.00144     0.40658
      H   27    0.09275      0.00000     0.40545    0.00180     0.40725
      H   28    0.09304      0.00000     0.40526    0.00170     0.40696
      H   29    0.09281      0.00000     0.40564    0.00156     0.40719
      H   30    0.09951      0.00000     0.39908    0.00141     0.40049
      H   31    0.09224      0.00000     0.40633    0.00143     0.40776
      H   32    0.11644      0.00000     0.38205    0.00151     0.38356
      H   33    0.10981      0.00000     0.38866    0.00153     0.39019
      H   34    0.07976      0.00000     0.41866    0.00158     0.42024
 =======================================================================
   * Total *    0.01472     17.99245    46.77863    0.21420    64.98528

 Normal termination of Gaussian 16 at Fri Dec 11 22:14:33 2020.
