 Gaussian 16, Revision A.03,

 -----------------------------------------------------------
 # opt freq B3LYP/6-31G(d) empiricaldispersion=gd3bj scf=xqc
 -----------------------------------------------------------

 ------------------------------
 CID_66074374_JID_6711_neutraal
 ------------------------------
 Symbolic Z-matrix:
 Charge =  0 Multiplicity = 1

 SCF Done:  E(RB3LYP) =  -745.366626374     A.U. after   14 cycles
 SCF Done:  E(RB3LYP) =  -745.372468885     A.U. after   13 cycles
 SCF Done:  E(RB3LYP) =  -745.367932890     A.U. after   13 cycles
 SCF Done:  E(RB3LYP) =  -745.374317109     A.U. after   13 cycles
 SCF Done:  E(RB3LYP) =  -745.375280317     A.U. after   13 cycles
 SCF Done:  E(RB3LYP) =  -745.376433151     A.U. after   12 cycles
 SCF Done:  E(RB3LYP) =  -745.376603043     A.U. after   12 cycles
 SCF Done:  E(RB3LYP) =  -745.377069424     A.U. after   12 cycles
 SCF Done:  E(RB3LYP) =  -745.377204530     A.U. after   11 cycles
 SCF Done:  E(RB3LYP) =  -745.377312071     A.U. after   11 cycles
 SCF Done:  E(RB3LYP) =  -745.377338109     A.U. after    9 cycles
 SCF Done:  E(RB3LYP) =  -745.377339213     A.U. after    9 cycles
 SCF Done:  E(RB3LYP) =  -745.377339838     A.U. after    8 cycles
 SCF Done:  E(RB3LYP) =  -745.377340169     A.U. after    8 cycles
 SCF Done:  E(RB3LYP) =  -745.377340244     A.U. after    7 cycles
 Optimization completed.
    -- Stationary point found.
 Normal termination of Gaussian 16 at Fri Dec 11 00:27:27 2020.

 --------------------------------------------------------------------
 #N Geom=AllCheck Guess=TCheck SCRF=Check GenChk RB3LYP/6-31G(d) Freq
 --------------------------------------------------------------------

 Structure from the checkpoint file:  "JID_6711.chk"
 ------------------------------
 CID_66074374_JID_6711_neutraal
 ------------------------------
 Charge =  0 Multiplicity = 1

 SCF Done:  E(RB3LYP) =  -745.377340244     A.U. after    1 cycles

  Exact polarizability: 140.261   6.174 132.157  -0.253   2.914 121.597
 Approx polarizability: 188.016  17.493 203.705   2.735  16.339 191.064

                      1                      2                      3
                      A                      A                      A
 Frequencies --     49.4382                59.1086                83.3622
 Red. masses --      4.8942                 6.3971                 4.5970
 Frc consts  --      0.0070                 0.0132                 0.0188
 IR Inten    --      0.4945                 0.0920                 2.9771

                      4                      5                      6
                      A                      A                      A
 Frequencies --    108.3704               139.4982               189.1247
 Red. masses --      3.4348                 4.5579                 2.0941
 Frc consts  --      0.0238                 0.0523                 0.0441
 IR Inten    --      3.0933                 1.1887                 1.0023

                      7                      8                      9
                      A                      A                      A
 Frequencies --    199.3415               208.0698               250.1845
 Red. masses --      1.6731                 2.0449                 2.3284
 Frc consts  --      0.0392                 0.0522                 0.0859
 IR Inten    --      0.4255                 0.1631                 0.7762

                     10                     11                     12
                      A                      A                      A
 Frequencies --    266.9938               290.8371               298.8910
 Red. masses --      1.8337                 2.5281                 2.0137
 Frc consts  --      0.0770                 0.1260                 0.1060
 IR Inten    --      0.6843                 0.3551                 4.8021

                     13                     14                     15
                      A                      A                      A
 Frequencies --    344.2037               356.5134               378.0149
 Red. masses --      2.2164                 2.5636                 3.4250
 Frc consts  --      0.1547                 0.1920                 0.2884
 IR Inten    --      6.2191                 6.2683                12.0984

                     16                     17                     18
                      A                      A                      A
 Frequencies --    394.3188               413.4785               461.1282
 Red. masses --      3.2389                 2.7347                 2.9749
 Frc consts  --      0.2967                 0.2755                 0.3727
 IR Inten    --      7.6983                 5.5182                 3.3768

                     19                     20                     21
                      A                      A                      A
 Frequencies --    475.4632               489.3349               514.5441
 Red. masses --      2.8871                 2.9107                 4.0759
 Frc consts  --      0.3845                 0.4106                 0.6358
 IR Inten    --      1.2810                 3.2453                14.3235

                     22                     23                     24
                      A                      A                      A
 Frequencies --    538.3078               553.8375               590.1489
 Red. masses --      2.5026                 2.4831                 3.9085
 Frc consts  --      0.4273                 0.4488                 0.8020
 IR Inten    --      6.0832                 5.4352                 1.1372

                     25                     26                     27
                      A                      A                      A
 Frequencies --    617.5923               693.0329               718.4541
 Red. masses --      4.1425                 2.3451                 1.5999
 Frc consts  --      0.9309                 0.6636                 0.4866
 IR Inten    --      8.2801                 4.5973                67.6973

                     28                     29                     30
                      A                      A                      A
 Frequencies --    735.3688               757.6020               771.0948
 Red. masses --      3.5000                 2.4960                 3.5377
 Frc consts  --      1.1151                 0.8441                 1.2393
 IR Inten    --     14.4844                 1.9436                31.4181

                     31                     32                     33
                      A                      A                      A
 Frequencies --    782.8604               809.7669               861.8053
 Red. masses --      1.7182                 2.6673                 2.3144
 Frc consts  --      0.6204                 1.0305                 1.0128
 IR Inten    --      9.3915                92.7548                67.2819

                     34                     35                     36
                      A                      A                      A
 Frequencies --    887.9296               896.1512               897.7620
 Red. masses --      2.1862                 2.4966                 3.0006
 Frc consts  --      1.0156                 1.1813                 1.4249
 IR Inten    --      8.6927                 2.8331                 1.3170

                     37                     38                     39
                      A                      A                      A
 Frequencies --    946.4996               961.2113               992.1858
 Red. masses --      2.0699                 1.9246                 1.5006
 Frc consts  --      1.0926                 1.0477                 0.8704
 IR Inten    --     11.6750                15.3971                 5.9742

                     40                     41                     42
                      A                      A                      A
 Frequencies --    995.1480              1016.1867              1032.5063
 Red. masses --      1.6860                 2.1668                 1.3683
 Frc consts  --      0.9837                 1.3183                 0.8595
 IR Inten    --      7.7685                 7.3500                 3.4702

                     43                     44                     45
                      A                      A                      A
 Frequencies --   1054.6762              1080.9740              1119.1368
 Red. masses --      2.6191                 2.1332                 2.8236
 Frc consts  --      1.7165                 1.4687                 2.0836
 IR Inten    --     10.3503                14.2051                 8.4357

                     46                     47                     48
                      A                      A                      A
 Frequencies --   1129.4742              1150.4678              1176.9128
 Red. masses --      3.7047                 2.8813                 2.1617
 Frc consts  --      2.7845                 2.2469                 1.7642
 IR Inten    --     11.9882                16.7335                15.1644

                     49                     50                     51
                      A                      A                      A
 Frequencies --   1196.8371              1198.9186              1204.0672
 Red. masses --      2.2642                 1.0698                 2.1960
 Frc consts  --      1.9109                 0.9060                 1.8758
 IR Inten    --     67.0101                 0.1204                34.6767

                     52                     53                     54
                      A                      A                      A
 Frequencies --   1232.8418              1260.6169              1283.8614
 Red. masses --      1.4903                 3.5348                 2.4566
 Frc consts  --      1.3345                 3.3097                 2.3857
 IR Inten    --     16.0618                68.0904                91.3780

                     55                     56                     57
                      A                      A                      A
 Frequencies --   1312.5332              1328.0228              1351.1477
 Red. masses --      1.4806                 1.6726                 1.3240
 Frc consts  --      1.5028                 1.7380                 1.4242
 IR Inten    --     51.2526                51.1843                 0.8910

                     58                     59                     60
                      A                      A                      A
 Frequencies --   1360.0093              1362.6726              1365.7778
 Red. masses --      1.5900                 1.3064                 3.1362
 Frc consts  --      1.7327                 1.4293                 3.4468
 IR Inten    --     22.3186                13.2316                27.3757

                     61                     62                     63
                      A                      A                      A
 Frequencies --   1377.8976              1398.6224              1410.9699
 Red. masses --      1.3181                 1.2974                 1.3150
 Frc consts  --      1.4745                 1.4953                 1.5425
 IR Inten    --      3.5489                 4.2392                 0.8787

                     64                     65                     66
                      A                      A                      A
 Frequencies --   1420.5960              1421.6460              1426.5108
 Red. masses --      1.4254                 1.3113                 1.6401
 Frc consts  --      1.6948                 1.5615                 1.9664
 IR Inten    --     15.1885                 3.5177                26.2548

                     67                     68                     69
                      A                      A                      A
 Frequencies --   1447.6084              1478.4625              1495.9365
 Red. masses --      1.2209                 1.1052                 1.0944
 Frc consts  --      1.5074                 1.4233                 1.4429
 IR Inten    --     18.2335                 0.3389                11.1782

                     70                     71                     72
                      A                      A                      A
 Frequencies --   1501.4762              1509.1713              1516.1660
 Red. masses --      1.0858                 1.0563                 1.1252
 Frc consts  --      1.4423                 1.4175                 1.5240
 IR Inten    --      8.7675                 5.0335                 5.8021

                     73                     74                     75
                      A                      A                      A
 Frequencies --   1519.0394              1521.6606              1525.0304
 Red. masses --      1.0865                 1.0920                 1.0828
 Frc consts  --      1.4771                 1.4897                 1.4837
 IR Inten    --      1.7282                 6.7627                 2.0691

                     76                     77                     78
                      A                      A                      A
 Frequencies --   1538.8891              1545.9236              1562.4154
 Red. masses --      1.0836                 1.0706                 1.0635
 Frc consts  --      1.5119                 1.5075                 1.5296
 IR Inten    --      6.7746                 9.0180                 5.4916

                     79                     80                     81
                      A                      A                      A
 Frequencies --   1807.2346              1824.1174              3023.3216
 Red. masses --      8.9977                11.4898                 1.0739
 Frc consts  --     17.3145                22.5252                 5.7832
 IR Inten    --    390.5908               201.9112                23.1942

                     82                     83                     84
                      A                      A                      A
 Frequencies --   3028.8806              3059.2099              3062.9862
 Red. masses --      1.0718                 1.0665                 1.0621
 Frc consts  --      5.7932                 5.8806                 5.8707
 IR Inten    --     13.6775                 8.6774                40.1402

                     85                     86                     87
                      A                      A                      A
 Frequencies --   3068.7274              3072.3923              3073.7840
 Red. masses --      1.0744                 1.0501                 1.0672
 Frc consts  --      5.9613                 5.8403                 5.9408
 IR Inten    --     49.8876                32.2096                27.4087

                     88                     89                     90
                      A                      A                      A
 Frequencies --   3094.5576              3098.5263              3103.2232
 Red. masses --      1.0634                 1.0728                 1.0986
 Frc consts  --      5.9999                 6.0686                 6.2333
 IR Inten    --      4.2311                16.3068                37.8208

                     91                     92                     93
                      A                      A                      A
 Frequencies --   3111.3481              3126.9907              3140.2407
 Red. masses --      1.0927                 1.0954                 1.0924
 Frc consts  --      6.2325                 6.3107                 6.3468
 IR Inten    --     29.1824                47.4944                14.4138

                     94                     95                     96
                      A                      A                      A
 Frequencies --   3147.2780              3150.9229              3163.7514
 Red. masses --      1.1038                 1.1018                 1.1023
 Frc consts  --      6.4416                 6.4449                 6.5008
 IR Inten    --      6.0462                21.8689                17.7186

                     97                     98                     99
                      A                      A                      A
 Frequencies --   3231.3028              3460.6896              3561.6647
 Red. masses --      1.0931                 1.0735                 1.0767
 Frc consts  --      6.7243                 7.5749                 8.0476
 IR Inten    --      7.3837                 4.0107                36.2202

 - Thermochemistry -
 -------------------
 Temperature   298.150 Kelvin.  Pressure   1.00000 Atm.
 Atom     1 has atomic number  6 and mass  12.00000

 Molecular mass:   225.14773 amu.
 Principal axes and moments of inertia in atomic units:
                           1         2         3
     Eigenvalues --  2237.893174124.233484473.78512
           X            0.99970  -0.02305   0.00813
           Y            0.02366   0.99612  -0.08477
           Z           -0.00615   0.08494   0.99637
 This molecule is an asymmetric top.
 Rotational symmetry number  1.
 Warning -- assumption of classical behavior for rotation
           may cause significant error
 Rotational temperatures (Kelvin)      0.03870     0.02100     0.01936
 Rotational constants (GHZ):           0.80645     0.43759     0.40340
 Zero-point vibrational energy     808817.9 (Joules/Mol)
                                  193.31212 (Kcal/Mol)
 Warning -- explicit consideration of  25 degrees of freedom as
           vibrations may cause significant error
 Vibrational temperatures:     71.13    85.04   119.94   155.92   200.71
          (Kelvin)            272.11   286.81   299.37   359.96   384.14
                              418.45   430.04   495.23   512.94   543.88
                              567.34   594.90   663.46   684.09   704.04
                              740.31   774.50   796.85   849.09   888.58
                              997.12  1033.70  1058.03  1090.02  1109.43
                             1126.36  1165.07  1239.95  1277.53  1289.36
                             1291.68  1361.80  1382.97  1427.53  1431.80
                             1462.07  1485.55  1517.44  1555.28  1610.19
                             1625.06  1655.27  1693.32  1721.98  1724.98
                             1732.38  1773.78  1813.75  1847.19  1888.44
                             1910.73  1944.00  1956.75  1960.58  1965.05
                             1982.49  2012.31  2030.07  2043.92  2045.43
                             2052.43  2082.79  2127.18  2152.32  2160.29
                             2171.36  2181.42  2185.56  2189.33  2194.18
                             2214.12  2224.24  2247.97  2600.21  2624.50
                             4349.89  4357.88  4401.52  4406.95  4415.21
                             4420.49  4422.49  4452.38  4458.09  4464.85
                             4476.54  4499.04  4518.11  4528.23  4533.48
                             4551.93  4649.12  4979.16  5124.44

 Zero-point correction=                           0.308062 (Hartree/Particle)
 Thermal correction to Energy=                    0.322998
 Thermal correction to Enthalpy=                  0.323942
 Thermal correction to Gibbs Free Energy=         0.266878
 Sum of electronic and zero-point Energies=           -745.069278
 Sum of electronic and thermal Energies=              -745.054342
 Sum of electronic and thermal Enthalpies=            -745.053398
 Sum of electronic and thermal Free Energies=         -745.110462

                     E (Thermal)             CV                S
                      KCal/Mol        Cal/Mol-Kelvin    Cal/Mol-Kelvin
 Total                  202.684             59.742            120.103
 Electronic               0.000              0.000              0.000
 Translational            0.889              2.981             42.137
 Rotational               0.889              2.981             32.090
 Vibrational            200.907             53.780             45.875
 Vibration     1          0.595              1.978              4.840
 Vibration     2          0.596              1.974              4.487
 Vibration     3          0.600              1.961              3.810
 Vibration     4          0.606              1.943              3.298
 Vibration     5          0.615              1.914              2.811
 Vibration     6          0.633              1.855              2.236
 Vibration     7          0.637              1.841              2.139
 Vibration     8          0.641              1.828              2.061
 Vibration     9          0.663              1.762              1.729
 Vibration    10          0.672              1.734              1.616
 Vibration    11          0.687              1.691              1.469
 Vibration    12          0.692              1.676              1.423
 Vibration    13          0.723              1.587              1.193
 Vibration    14          0.732              1.562              1.137
 Vibration    15          0.748              1.517              1.047
 Vibration    16          0.761              1.482              0.984
 Vibration    17          0.777              1.441              0.914
 Vibration    18          0.819              1.336              0.763
 Vibration    19          0.832              1.304              0.722
 Vibration    20          0.845              1.274              0.685
 Vibration    21          0.870              1.218              0.623
 Vibration    22          0.893              1.165              0.569
 Vibration    23          0.909              1.131              0.536
 Vibration    24          0.947              1.053              0.467
 Vibration    25          0.977              0.995              0.420

 Optimization completed.
    -- Stationary point found.
 Normal termination of Gaussian 16 at Fri Dec 11 00:41:49 2020.

 ----------------------------------------------------------------------
 # B3LYP/6-311++G(d,p) empiricaldispersion=gd3bj scf=xqc pop=npa geom=c
 heck
 ----------------------------------------------------------------------

 --------------------------------------
 CID_66074374_JID_6711_Energie_neutraal
 --------------------------------------
 Structure from the checkpoint file:  "JID_6711.chk"
 Charge =  0 Multiplicity = 1

 SCF Done:  E(RB3LYP) =  -745.594217941     A.U. after   15 cycles
 Normal termination of Gaussian 16 at Fri Dec 11 00:47:38 2020.

 ----------------------------------------------------------------------
 # B3LYP/6-311++G(d,p) empiricaldispersion=gd3bj scf=xqc pop=npa geom=c
 heck
 ----------------------------------------------------------------------

 ------------------------------------
 CID_66074374_JID_6711_Energie_kation
 ------------------------------------
 Structure from the checkpoint file:  "JID_6711.chk"
 Charge =  1 Multiplicity = 2

 SCF Done:  E(UB3LYP) =  -745.302008628     A.U. after   25 cycles
 Normal termination of Gaussian 16 at Fri Dec 11 01:00:40 2020.
 Gaussian 16:  ES64L-G16RevA.03 25-Dec-2016

 ----------------------------------------------------------------------
 # B3LYP/6-311++G(d,p) empiricaldispersion=gd3bj scf=xqc pop=npa geom=c
 heck
 ----------------------------------------------------------------------

 -----------------------------------
 CID_66074374_JID_6711_Energie_anion
 -----------------------------------
 Structure from the checkpoint file:  "JID_6711.chk"
 Charge = -1 Multiplicity = 2

                         Standard orientation:
 ---------------------------------------------------------------------
 Center     Atomic      Atomic             Coordinates (Angstroms)
 Number     Number       Type             X           Y           Z
 ---------------------------------------------------------------------
      1          6           0       -1.816027    2.015128   -0.995407
      2          6           0       -0.687898    1.211492   -0.295134
      3          6           0       -1.236655    0.765497    1.071642
      4          8           0       -1.020824    1.328016    2.128209
      5          7           0       -2.073250   -0.351864    1.021660
      6          6           0       -2.290657   -1.187787   -0.070911
      7          8           0       -3.057114   -2.128786   -0.006902
      8          6           0       -1.516130   -0.806431   -1.330520
      9          7           0       -0.339650    0.039244   -1.132811
     10          6           0        0.888284   -0.788281   -0.930804
     11          6           0        2.219051   -0.156672   -1.433376
     12          6           0        3.227490    0.343799   -0.375546
     13          7           0        3.341537   -0.491948    0.822837
     14          6           0        2.031552   -0.785683    1.409665
     15          6           0        1.086080   -1.502856    0.435747
     16          6           0        0.471820    2.178572   -0.076603
     17          1           0       -2.765772    1.478599   -1.050348
     18          1           0       -1.492927    2.262200   -2.011286
     19          1           0       -1.997081    2.941208   -0.443637
     20          1           0       -2.513645   -0.623756    1.896264
     21          1           0       -2.230772   -0.318058   -2.004143
     22          1           0       -1.236045   -1.741112   -1.818969
     23          1           0        0.700414   -1.591502   -1.647291
     24          1           0        2.727594   -0.950249   -1.997253
     25          1           0        1.989107    0.629956   -2.159669
     26          1           0        2.989779    1.357807   -0.046800
     27          1           0        4.218959    0.406066   -0.838354
     28          1           0        3.785166   -1.375462    0.570320
     29          1           0        1.594825    0.152848    1.768352
     30          1           0        2.184209   -1.409121    2.298047
     31          1           0        0.122566   -1.712059    0.910153
     32          1           0        1.532557   -2.484573    0.221093
     33          1           0        0.912631    2.455506   -1.037440
     34          1           0        0.101614    3.078068    0.418285
     35          1           0        1.238394    1.761114    0.567891
 ---------------------------------------------------------------------

 SCF Done:  E(UB3LYP) =  -745.588275334     A.U. after   33 cycles
 SCF Done:  E(UB3LYP) =  -745.588275334     a.u. after    1 cycles

 The electronic state is 2-A.
 Alpha  occ. eigenvalues --  -18.98052 -18.97909 -14.23956 -14.20574 -14.18645
 Alpha  occ. eigenvalues --  -10.15044 -10.14977 -10.11934 -10.09676 -10.09576
 Alpha  occ. eigenvalues --  -10.08177 -10.07923 -10.07103 -10.05965 -10.05679
 Alpha  occ. eigenvalues --  -10.05339  -0.94261  -0.92469  -0.83497  -0.80330
 Alpha  occ. eigenvalues --   -0.79529  -0.69752  -0.66389  -0.64323  -0.60109
 Alpha  occ. eigenvalues --   -0.58950  -0.54966  -0.52348  -0.51894  -0.50796
 Alpha  occ. eigenvalues --   -0.46348  -0.42856  -0.41119  -0.39085  -0.37300
 Alpha  occ. eigenvalues --   -0.36292  -0.34921  -0.34527  -0.34020  -0.33449
 Alpha  occ. eigenvalues --   -0.33158  -0.31315  -0.30865  -0.30202  -0.30015
 Alpha  occ. eigenvalues --   -0.29084  -0.28764  -0.27366  -0.27125  -0.26767
 Alpha  occ. eigenvalues --   -0.25238  -0.24466  -0.23973  -0.22775  -0.21921
 Alpha  occ. eigenvalues --   -0.21403  -0.18558  -0.17001  -0.14411  -0.11574
 Alpha  occ. eigenvalues --   -0.10535   0.04728
 Alpha virt. eigenvalues --    0.06406   0.07787   0.08375   0.08866   0.09878
 Alpha virt. eigenvalues --    0.09955   0.10353   0.11090   0.11679   0.11827
 Alpha virt. eigenvalues --    0.12454   0.12853   0.13435   0.13706   0.14338

  Beta  occ. eigenvalues --  -18.97807 -18.97710 -14.24049 -14.20555 -14.18625
  Beta  occ. eigenvalues --  -10.14774 -10.14704 -10.11954 -10.09664 -10.09599
  Beta  occ. eigenvalues --  -10.08168 -10.07917 -10.07080 -10.05962 -10.05657
  Beta  occ. eigenvalues --  -10.05324  -0.93865  -0.92031  -0.83389  -0.80281
  Beta  occ. eigenvalues --   -0.79499  -0.69689  -0.66322  -0.64288  -0.60022
  Beta  occ. eigenvalues --   -0.58809  -0.54759  -0.52203  -0.51825  -0.50529
  Beta  occ. eigenvalues --   -0.46279  -0.42800  -0.41009  -0.38945  -0.37186
  Beta  occ. eigenvalues --   -0.36070  -0.34758  -0.34337  -0.33878  -0.33167
  Beta  occ. eigenvalues --   -0.32990  -0.31122  -0.30714  -0.30014  -0.29824
  Beta  occ. eigenvalues --   -0.28941  -0.28651  -0.27278  -0.26987  -0.26468
  Beta  occ. eigenvalues --   -0.24613  -0.24324  -0.23916  -0.22607  -0.21846
  Beta  occ. eigenvalues --   -0.21322  -0.18420  -0.16385  -0.14238  -0.11547
  Beta  occ. eigenvalues --   -0.10410
  Beta virt. eigenvalues --    0.07200   0.07822   0.08674   0.09024   0.09568
  Beta virt. eigenvalues --    0.10086   0.10133   0.10888   0.11052   0.11934
  Beta virt. eigenvalues --    0.12328   0.12639   0.13143   0.13663   0.14023

 Mulliken charges and spin densities:
               1          2
     1  C   -0.459606   0.019094
     2  C    0.012389   0.015621
     3  C   -0.242623   0.088363
     4  O   -0.302311   0.085827
     5  N   -0.217479  -0.057245
     6  C   -0.286614   0.228138
     7  O   -0.344128   0.075490
     8  C    0.191749  -0.299555
     9  N    0.395237  -0.029119
    10  C   -0.092263  -0.051507
    11  C   -0.263212  -0.081831
    12  C    0.198015  -0.643208
    13  N   -0.126222   0.072885
    14  C    0.142034  -0.658309
    15  C   -0.122325  -0.172480
    16  C   -0.354011  -0.142294
    17  H    0.164694  -0.002465
    18  H    0.151561   0.019006
    19  H    0.138506   0.005835
    20  H    0.301214   0.020467
    21  H    0.139099   0.025912
    22  H    0.031180   0.180057
    23  H    0.012155   0.151960
    24  H   -0.531843   0.706291
    25  H    0.075534   0.051487
    26  H    0.212873  -0.091222
    27  H   -0.313096   0.500818
    28  H    0.023615   0.209694
    29  H    0.202729  -0.034361
    30  H    0.030929   0.149310
    31  H    0.303043  -0.096187
    32  H   -0.517616   0.723007
    33  H    0.129672   0.020272
    34  H    0.184769  -0.013540
    35  H    0.132352   0.023790
 Sum of Mulliken charges =  -1.00000   1.00000

 Dipole moment (field-independent basis, Debye):
    X=             -3.4721    Y=              5.5643    Z=             -0.3889  Tot=              6.5702
 Quadrupole moment (field-independent basis, Debye-Ang):
   XX=           -161.1527   YY=           -135.2683   ZZ=           -128.1172
   XY=              2.7116   XZ=              5.4325   YZ=            -10.5650

 Summary of Natural Population Analysis:

                                       Natural Population
                Natural  -----------------------------------------------
    Atom  No    Charge         Core      Valence    Rydberg      Total
 -----------------------------------------------------------------------
      C    1   -0.28101      0.99963     2.27617    0.00521     3.28101
      C    2    0.03001      0.99953     1.95759    0.01287     2.96999
      C    3    0.38018      0.99961     1.59511    0.02511     2.61982
      O    4   -0.29164      0.99987     3.28579    0.00597     4.29164
      N    5   -0.34403      0.99964     2.83533    0.00906     3.84403
      C    6    0.37024      0.99968     1.60646    0.02361     2.62976
      O    7   -0.29723      0.99987     3.29146    0.00589     4.29723
      C    8   -0.13311      0.99957     2.12180    0.01174     3.13311
      N    9   -0.28312      0.99970     2.77005    0.01337     3.78312
      C   10   -0.00312      0.99955     1.98580    0.01776     3.00312
      C   11   -0.20661      0.99960     2.19665    0.01036     3.20661
      C   12   -0.08901      0.99962     2.07759    0.01180     3.08901
      N   13   -0.33843      0.99976     2.82610    0.01257     3.83843
      C   14   -0.09244      0.99962     2.08088    0.01194     3.09244
      C   15   -0.21354      0.99959     2.20466    0.00929     3.21354
      C   16   -0.28658      0.99963     2.28048    0.00648     3.28658
      H   17    0.10047      0.00000     0.39855    0.00097     0.39953
      H   18    0.10206      0.00000     0.39689    0.00105     0.39794
      H   19    0.10119      0.00000     0.39801    0.00079     0.39881
      H   20    0.19799      0.00000     0.29959    0.00242     0.30201
      H   21    0.10616      0.00000     0.39281    0.00102     0.39384
      H   22    0.11284      0.00000     0.38606    0.00110     0.38716
      H   23    0.09923      0.00000     0.39919    0.00158     0.40077
      H   24    0.10274      0.00000     0.39442    0.00284     0.39726
      H   25    0.10229      0.00000     0.39641    0.00130     0.39771
      H   26    0.08601      0.00000     0.41283    0.00116     0.41399
      H   27    0.09470      0.00000     0.40433    0.00097     0.40530
      H   28    0.17053      0.00000     0.32645    0.00301     0.32947
      H   29    0.09395      0.00000     0.40451    0.00154     0.40605
      H   30    0.09369      0.00000     0.40549    0.00082     0.40631
      H   31    0.10417      0.00000     0.39410    0.00172     0.39583
      H   32    0.10037      0.00000     0.39740    0.00222     0.39963
      H   33    0.09917      0.00000     0.39987    0.00096     0.40083
      H   34    0.10602      0.00000     0.39318    0.00080     0.39398
      H   35    0.10584      0.00000     0.39298    0.00118     0.39416
 =======================================================================
   * Total *    0.00000     15.99446    44.78501    0.22053    61.00000

 Normal termination of Gaussian 16 at Fri Dec 11 01:18:03 2020.
