 Gaussian 16, Revision A.03,

 -----------------------------------------------------------
 # opt freq B3LYP/6-31G(d) empiricaldispersion=gd3bj scf=xqc
 -----------------------------------------------------------

 ------------------------------
 CID_11492456_JID_5211_neutraal
 ------------------------------
 Symbolic Z-matrix:
 Charge =  0 Multiplicity = 1

 SCF Done:  E(RB3LYP) =  -1374.45101262     A.U. after   14 cycles
 SCF Done:  E(RB3LYP) =  -1374.45633188     A.U. after   12 cycles
 SCF Done:  E(RB3LYP) =  -1374.42589427     A.U. after   15 cycles
 SCF Done:  E(RB3LYP) =  -1374.45529366     A.U. after   14 cycles
 SCF Done:  E(RB3LYP) =  -1374.45844991     A.U. after   12 cycles
 SCF Done:  E(RB3LYP) =  -1374.45830066     A.U. after   13 cycles
 SCF Done:  E(RB3LYP) =  -1374.45912787     A.U. after   12 cycles
 SCF Done:  E(RB3LYP) =  -1374.45954079     A.U. after   11 cycles
 SCF Done:  E(RB3LYP) =  -1374.45970096     A.U. after   12 cycles
 SCF Done:  E(RB3LYP) =  -1374.45977276     A.U. after   11 cycles
 SCF Done:  E(RB3LYP) =  -1374.45994747     A.U. after    9 cycles
 SCF Done:  E(RB3LYP) =  -1374.45994986     A.U. after    8 cycles
 SCF Done:  E(RB3LYP) =  -1374.45995098     A.U. after    8 cycles
 SCF Done:  E(RB3LYP) =  -1374.45995174     A.U. after    8 cycles
 SCF Done:  E(RB3LYP) =  -1374.45995188     A.U. after    7 cycles
 Optimization completed.
    -- Stationary point found.
 Normal termination of Gaussian 16 at Thu Dec 10 14:57:58 2020.

 --------------------------------------------------------------------
 #N Geom=AllCheck Guess=TCheck SCRF=Check GenChk RB3LYP/6-31G(d) Freq
 --------------------------------------------------------------------

 Structure from the checkpoint file:  "JID_5211.chk"
 ------------------------------
 CID_11492456_JID_5211_neutraal
 ------------------------------
 Charge =  0 Multiplicity = 1

 SCF Done:  E(RB3LYP) =  -1374.45995188     A.U. after    1 cycles

  Exact polarizability: 150.135  32.984 168.593  10.830  -6.744 131.282
 Approx polarizability: 226.309  63.423 262.638  33.434  -9.748 237.003

                      1                      2                      3
                      A                      A                      A
 Frequencies --     27.0591                47.8156                54.8547
 Red. masses --      4.8996                 6.2574                 4.6439
 Frc consts  --      0.0021                 0.0084                 0.0082
 IR Inten    --      1.2349                 0.1725                 1.3804

                      4                      5                      6
                      A                      A                      A
 Frequencies --     68.2172                98.6220               110.7417
 Red. masses --      5.7262                 3.6071                 4.7146
 Frc consts  --      0.0157                 0.0207                 0.0341
 IR Inten    --      1.9896                 1.8554                 1.0311

                      7                      8                      9
                      A                      A                      A
 Frequencies --    138.0204               159.7753               192.6960
 Red. masses --      3.5582                 4.6707                 3.1853
 Frc consts  --      0.0399                 0.0703                 0.0697
 IR Inten    --      0.3095                 0.5862                 5.0332

                     10                     11                     12
                      A                      A                      A
 Frequencies --    204.3291               234.6022               266.7748
 Red. masses --      1.3533                 2.8715                 3.7195
 Frc consts  --      0.0333                 0.0931                 0.1560
 IR Inten    --    134.4531                27.0013                 0.7922

                     13                     14                     15
                      A                      A                      A
 Frequencies --    307.6495               313.6248               321.5362
 Red. masses --      3.7918                 3.4392                 3.0651
 Frc consts  --      0.2114                 0.1993                 0.1867
 IR Inten    --      6.0742                 0.5240                 2.0262

                     16                     17                     18
                      A                      A                      A
 Frequencies --    330.5384               407.4967               413.8406
 Red. masses --      3.2044                 2.2326                 4.5293
 Frc consts  --      0.2063                 0.2184                 0.4570
 IR Inten    --      1.4052                 0.9637                 0.7102

                     19                     20                     21
                      A                      A                      A
 Frequencies --    440.1514               458.6937               476.6567
 Red. masses --      1.5369                 1.8528                 3.8732
 Frc consts  --      0.1754                 0.2297                 0.5185
 IR Inten    --     50.5425                29.1381                 1.8369

                     22                     23                     24
                      A                      A                      A
 Frequencies --    495.5534               515.7425               593.1046
 Red. masses --      7.7661                 4.9313                 2.1316
 Frc consts  --      1.1237                 0.7728                 0.4418
 IR Inten    --      2.3227                 6.3999                 4.4038

                     25                     26                     27
                      A                      A                      A
 Frequencies --    595.6097               637.0180               643.7458
 Red. masses --      5.0772                 4.1762                 4.5123
 Frc consts  --      1.0612                 0.9985                 1.1017
 IR Inten    --      3.5737                 7.0061                 0.1715

                     28                     29                     30
                      A                      A                      A
 Frequencies --    706.7465               721.0572               723.3850
 Red. masses --      4.6323                 3.5292                 2.4450
 Frc consts  --      1.3632                 1.0811                 0.7538
 IR Inten    --      0.5367                 8.5331                 7.6027

                     31                     32                     33
                      A                      A                      A
 Frequencies --    798.0303               802.6094               868.9370
 Red. masses --      1.4223                 4.8349                 1.4657
 Frc consts  --      0.5337                 1.8350                 0.6521
 IR Inten    --     32.1850                23.6942                 5.7806

                     34                     35                     36
                      A                      A                      A
 Frequencies --    890.1418               897.4918               912.2201
 Red. masses --      1.5809                 1.8478                 1.4141
 Frc consts  --      0.7380                 0.8769                 0.6933
 IR Inten    --      4.1745                15.2156                 0.8707

                     37                     38                     39
                      A                      A                      A
 Frequencies --    933.6638               935.9598               952.1198
 Red. masses --      1.4102                 2.0582                 1.8940
 Frc consts  --      0.7243                 1.0623                 1.0116
 IR Inten    --     27.9623                12.1600                 0.5153

                     40                     41                     42
                      A                      A                      A
 Frequencies --    994.5587              1024.3619              1038.1600
 Red. masses --      2.4799                 2.4170                 1.0995
 Frc consts  --      1.4453                 1.4943                 0.6982
 IR Inten    --     18.1889                 0.6363                11.1205

                     43                     44                     45
                      A                      A                      A
 Frequencies --   1123.4612              1134.5669              1169.9798
 Red. masses --      1.4790                 1.8056                 1.1779
 Frc consts  --      1.0998                 1.3694                 0.9499
 IR Inten    --      7.8186                78.8866                15.1988

                     46                     47                     48
                      A                      A                      A
 Frequencies --   1182.8167              1198.7883              1229.7361
 Red. masses --      1.5040                 1.4905                 1.3592
 Frc consts  --      1.2398                 1.2620                 1.2110
 IR Inten    --     28.9450                69.7865                34.8595

                     49                     50                     51
                      A                      A                      A
 Frequencies --   1235.2059              1239.8705              1277.3636
 Red. masses --      1.2746                 1.3352                 1.2189
 Frc consts  --      1.1458                 1.2094                 1.1717
 IR Inten    --      7.3848                 2.0629                28.0157

                     52                     53                     54
                      A                      A                      A
 Frequencies --   1302.7205              1320.1727              1332.0970
 Red. masses --      1.9222                 1.3915                 2.5546
 Frc consts  --      1.9220                 1.4289                 2.6708
 IR Inten    --     33.6694                37.6043               110.1123

                     55                     56                     57
                      A                      A                      A
 Frequencies --   1335.5361              1372.3995              1383.5765
 Red. masses --      1.4013                 1.5260                 1.5826
 Frc consts  --      1.4726                 1.6934                 1.7850
 IR Inten    --     19.2070               179.0609                 5.1362

                     58                     59                     60
                      A                      A                      A
 Frequencies --   1417.9045              1465.9830              1489.4263
 Red. masses --      2.9324                 1.1356                 1.0947
 Frc consts  --      3.4735                 1.4380                 1.4308
 IR Inten    --     19.6646                 0.5872                 7.1417

                     61                     62                     63
                      A                      A                      A
 Frequencies --   1491.8589              1513.4518              1521.5259
 Red. masses --      1.1534                 1.1095                 2.7540
 Frc consts  --      1.5125                 1.4973                 3.7565
 IR Inten    --      6.2188                 5.0495                 2.1939

                     64                     65                     66
                      A                      A                      A
 Frequencies --   1570.4486              1664.6563              1683.6323
 Red. masses --      3.3335                 6.5052                 6.2388
 Frc consts  --      4.8440                10.6209                10.4195
 IR Inten    --    146.8144                40.3198                 4.5280

                     67                     68                     69
                      A                      A                      A
 Frequencies --   1728.4751              3037.3490              3074.9938
 Red. masses --      4.4543                 1.0647                 1.0650
 Frc consts  --      7.8407                 5.7873                 5.9332
 IR Inten    --      6.0663                30.6496                 6.4958

                     70                     71                     72
                      A                      A                      A
 Frequencies --   3075.3444              3088.2480              3139.2080
 Red. masses --      1.0613                 1.0983                 1.1053
 Frc consts  --      5.9140                 6.1713                 6.4175
 IR Inten    --     29.7829                14.5396                 9.2507

                     73                     74                     75
                      A                      A                      A
 Frequencies --   3154.3572              3155.2811              3179.0157
 Red. masses --      1.0935                 1.0625                 1.0890
 Frc consts  --      6.4105                 6.2327                 6.4844
 IR Inten    --      3.4373                 9.3165                13.0680

                     76                     77                     78
                      A                      A                      A
 Frequencies --   3184.2134              3199.5811              3210.0353
 Red. masses --      1.0918                 1.0904                 1.0928
 Frc consts  --      6.5221                 6.5770                 6.6348
 IR Inten    --      2.0245                 4.7407                 5.7023

                     79                     80                     81
                      A                      A                      A
 Frequencies --   3236.1164              3712.6006              3772.6746
 Red. masses --      1.1153                 1.0651                 1.0662
 Frc consts  --      6.8819                 8.6493                 8.9413
 IR Inten    --     16.8162                82.4180                58.6530

 - Thermochemistry -
 -------------------
 Temperature   298.150 Kelvin.  Pressure   1.00000 Atm.
 Atom     1 has atomic number  6 and mass  12.00000

 Molecular mass:   242.04352 amu.
 Principal axes and moments of inertia in atomic units:
                           1         2         3
     Eigenvalues --  2938.185444709.178396098.79134
           X            0.99934   0.03620  -0.00007
           Y           -0.03619   0.99925  -0.01347
           Z           -0.00042   0.01346   0.99991
 This molecule is an asymmetric top.
 Rotational symmetry number  1.
 Warning -- assumption of classical behavior for rotation
           may cause significant error
 Rotational temperatures (Kelvin)      0.02948     0.01839     0.01420
 Rotational constants (GHZ):           0.61424     0.38324     0.29592
 Zero-point vibrational energy     606259.0 (Joules/Mol)
                                  144.89937 (Kcal/Mol)
 Warning -- explicit consideration of  25 degrees of freedom as
           vibrations may cause significant error
 Vibrational temperatures:     38.93    68.80    78.92    98.15   141.90
          (Kelvin)            159.33   198.58   229.88   277.25   293.98
                              337.54   383.83   442.64   451.24   462.62
                              475.57   586.30   595.42   633.28   659.96
                              685.80   712.99   742.04   853.35   856.95
                              916.53   926.21  1016.85  1037.44  1040.79
                             1148.19  1154.78  1250.21  1280.72  1291.29
                             1312.48  1343.33  1346.64  1369.89  1430.95
                             1473.83  1493.68  1616.41  1632.39  1683.34
                             1701.81  1724.79  1769.32  1777.19  1783.90
                             1837.84  1874.32  1899.43  1916.59  1921.54
                             1974.58  1990.66  2040.05  2109.22  2142.95
                             2146.45  2177.52  2189.14  2259.53  2395.07
                             2422.37  2486.89  4370.07  4424.23  4424.73
                             4443.30  4516.62  4538.42  4539.75  4573.89
                             4581.37  4603.48  4618.52  4656.05  5341.60
                             5428.04

 Zero-point correction=                           0.230912 (Hartree/Particle)
 Thermal correction to Energy=                    0.247128
 Thermal correction to Enthalpy=                  0.248072
 Thermal correction to Gibbs Free Energy=         0.186154
 Sum of electronic and zero-point Energies=          -1374.229040
 Sum of electronic and thermal Energies=             -1374.212824
 Sum of electronic and thermal Enthalpies=           -1374.211880
 Sum of electronic and thermal Free Energies=        -1374.273798

                     E (Thermal)             CV                S
                      KCal/Mol        Cal/Mol-Kelvin    Cal/Mol-Kelvin
 Total                  155.075             60.152            130.318
 Electronic               0.000              0.000              0.000
 Translational            0.889              2.981             42.353
 Rotational               0.889              2.981             32.801
 Vibrational            153.298             54.191             55.164
 Vibration     1          0.593              1.984              6.034
 Vibration     2          0.595              1.978              4.906
 Vibration     3          0.596              1.976              4.634
 Vibration     4          0.598              1.969              4.204
 Vibration     5          0.604              1.950              3.481
 Vibration     6          0.607              1.941              3.256
 Vibration     7          0.614              1.915              2.831
 Vibration     8          0.622              1.892              2.552
 Vibration     9          0.635              1.850              2.202
 Vibration    10          0.640              1.834              2.094
 Vibration    11          0.654              1.788              1.843
 Vibration    12          0.672              1.734              1.617
 Vibration    13          0.698              1.659              1.375
 Vibration    14          0.701              1.648              1.343
 Vibration    15          0.707              1.632              1.302
 Vibration    16          0.713              1.615              1.257
 Vibration    17          0.772              1.454              0.936
 Vibration    18          0.777              1.440              0.913
 Vibration    19          0.800              1.383              0.826
 Vibration    20          0.817              1.342              0.770
 Vibration    21          0.833              1.302              0.719
 Vibration    22          0.851              1.260              0.669
 Vibration    23          0.871              1.215              0.620
 Vibration    24          0.951              1.046              0.462
 Vibration    25          0.953              1.041              0.457

                           ! Non-Optimized Parameters !
 Normal termination of Gaussian 16 at Thu Dec 10 15:08:48 2020.

 ----------------------------------------------------------------------
 # B3LYP/6-311++G(d,p) empiricaldispersion=gd3bj scf=xqc pop=npa geom=c
 heck
 ----------------------------------------------------------------------

 --------------------------------------
 CID_11492456_JID_5211_Energie_neutraal
 --------------------------------------
 Structure from the checkpoint file:  "JID_5211.chk"
 Charge =  0 Multiplicity = 1

 SCF Done:  E(RB3LYP) =  -1374.69189086     A.U. after   15 cycles
 Normal termination of Gaussian 16 at Thu Dec 10 15:14:02 2020.

 ----------------------------------------------------------------------
 # B3LYP/6-311++G(d,p) empiricaldispersion=gd3bj scf=xqc pop=npa geom=c
 heck
 ----------------------------------------------------------------------

 ------------------------------------
 CID_11492456_JID_5211_Energie_kation
 ------------------------------------
 Structure from the checkpoint file:  "JID_5211.chk"
 Charge =  1 Multiplicity = 2

 SCF Done:  E(UB3LYP) =  -1374.40600637     A.U. after   27 cycles
 Normal termination of Gaussian 16 at Thu Dec 10 15:26:58 2020.
 Gaussian 16:  ES64L-G16RevA.03 25-Dec-2016

 ----------------------------------------------------------------------
 # B3LYP/6-311++G(d,p) empiricaldispersion=gd3bj scf=xqc pop=npa geom=c
 heck
 ----------------------------------------------------------------------

 -----------------------------------
 CID_11492456_JID_5211_Energie_anion
 -----------------------------------
 Structure from the checkpoint file:  "JID_5211.chk"
 Charge = -1 Multiplicity = 2

                         Standard orientation:
 ---------------------------------------------------------------------
 Center     Atomic      Atomic             Coordinates (Angstroms)
 Number     Number       Type             X           Y           Z
 ---------------------------------------------------------------------
      1          6           0       -0.200999    3.649860   -0.521675
      2          6           0       -0.596452    2.377051   -0.480039
      3          6           0       -0.685275    1.561565    0.767560
      4         16           0       -2.392067    0.918568    1.114439
      5         16           0       -2.754394   -0.434879   -0.418587
      6          6           0       -2.041263   -2.033888    0.190896
      7          6           0       -0.856858   -2.532993   -0.653306
      8          6           0        0.359591   -1.643517   -0.578343
      9          6           0        1.180742   -1.671629    0.558518
     10          6           0        2.266458   -0.810348    0.674716
     11          6           0        2.543507    0.098959   -0.361429
     12          6           0        1.747095    0.125044   -1.497632
     13          6           0        0.656281   -0.742993   -1.603204
     14          8           0        3.635074    0.910771   -0.145326
     15          8           0        3.054199   -0.846135    1.785692
     16          1           0        0.083900    4.190495    0.378624
     17          1           0       -0.151326    4.201842   -1.456318
     18          1           0       -0.876332    1.859985   -1.395305
     19          1           0       -0.012839    0.702322    0.741600
     20          1           0       -0.446276    2.159615    1.654624
     21          1           0       -1.750378   -1.879721    1.233091
     22          1           0       -2.855106   -2.766031    0.169380
     23          1           0       -0.606457   -3.542516   -0.299201
     24          1           0       -1.177877   -2.638871   -1.695706
     25          1           0        0.981719   -2.359709    1.375180
     26          1           0        1.964586    0.833888   -2.293199
     27          1           0        0.024233   -0.704110   -2.484379
     28          1           0        3.677362    1.585864   -0.838766
     29          1           0        3.737019   -0.161827    1.677450
 ---------------------------------------------------------------------

 SCF Done:  E(UB3LYP) =  -1374.68577824     A.U. after   33 cycles
 SCF Done:  E(UB3LYP) =  -1374.68577824     a.u. after    1 cycles

 The electronic state is 2-A.
 Alpha  occ. eigenvalues --  -88.74884 -88.74815 -19.05723 -19.05591 -10.13651
 Alpha  occ. eigenvalues --  -10.13472 -10.10300 -10.09609 -10.08465 -10.08246
 Alpha  occ. eigenvalues --  -10.07607 -10.07541 -10.07493 -10.07144 -10.06404
 Alpha  occ. eigenvalues --   -7.83384  -7.83333  -5.79845  -5.79782  -5.79416
 Alpha  occ. eigenvalues --   -5.79349  -5.78718  -5.78666  -0.98010  -0.95171
 Alpha  occ. eigenvalues --   -0.76265  -0.72244  -0.70205  -0.66622  -0.65037
 Alpha  occ. eigenvalues --   -0.63142  -0.59189  -0.55011  -0.52592  -0.51204
 Alpha  occ. eigenvalues --   -0.48538  -0.45425  -0.45167  -0.43058  -0.39347
 Alpha  occ. eigenvalues --   -0.37570  -0.36781  -0.35391  -0.34303  -0.33868
 Alpha  occ. eigenvalues --   -0.33627  -0.33341  -0.31486  -0.30623  -0.29423
 Alpha  occ. eigenvalues --   -0.28639  -0.27529  -0.27160  -0.25984  -0.25740
 Alpha  occ. eigenvalues --   -0.25205  -0.24132  -0.22641  -0.21075  -0.16948
 Alpha  occ. eigenvalues --   -0.14540  -0.13607  -0.12945  -0.11733   0.04210
 Alpha virt. eigenvalues --    0.05816   0.06862   0.07873   0.08109   0.08785
 Alpha virt. eigenvalues --    0.08920   0.09209   0.09398   0.10032   0.10332
 Alpha virt. eigenvalues --    0.10559   0.11777   0.12148   0.12314   0.12917

  Beta  occ. eigenvalues --  -88.74827 -88.74760 -19.05706 -19.05512 -10.13646
  Beta  occ. eigenvalues --  -10.13466 -10.10294 -10.09615 -10.08449 -10.08244
  Beta  occ. eigenvalues --  -10.07583 -10.07534 -10.07457 -10.07137 -10.06398
  Beta  occ. eigenvalues --   -7.83328  -7.83273  -5.79712  -5.79670  -5.79359
  Beta  occ. eigenvalues --   -5.79298  -5.78680  -5.78624  -0.97938  -0.95061
  Beta  occ. eigenvalues --   -0.76235  -0.72088  -0.70150  -0.66486  -0.65003
  Beta  occ. eigenvalues --   -0.63058  -0.59089  -0.54915  -0.52512  -0.51149
  Beta  occ. eigenvalues --   -0.48381  -0.45334  -0.45059  -0.43015  -0.39299
  Beta  occ. eigenvalues --   -0.37537  -0.36734  -0.35281  -0.34263  -0.33804
  Beta  occ. eigenvalues --   -0.33586  -0.33291  -0.31427  -0.30579  -0.29385
  Beta  occ. eigenvalues --   -0.28566  -0.27472  -0.27079  -0.25923  -0.25694
  Beta  occ. eigenvalues --   -0.25150  -0.24029  -0.22594  -0.20815  -0.16850
  Beta  occ. eigenvalues --   -0.14495  -0.13481  -0.12810  -0.11690
  Beta virt. eigenvalues --    0.06461   0.07339   0.07420   0.08197   0.08337
  Beta virt. eigenvalues --    0.08955   0.09077   0.09376   0.09922   0.10150
  Beta virt. eigenvalues --    0.10428   0.10764   0.11827   0.12405   0.12614

 Mulliken charges and spin densities:
               1          2
     1  C   -0.275267  -0.518470
     2  C   -0.238359   0.491245
     3  C   -0.007321  -0.095255
     4  S   -0.373251   0.160397
     5  S    0.141363  -0.047685
     6  C   -0.100599  -0.323865
     7  C    0.994964  -1.363278
     8  C   -0.263718   1.049420
     9  C   -0.834549   0.778181
    10  C    0.100649  -0.709177
    11  C    2.167869  -2.360162
    12  C   -0.465113   0.638146
    13  C   -0.858256   0.232527
    14  O   -0.310669   0.045310
    15  O   -0.190647  -0.012488
    16  H    0.049209   0.062200
    17  H   -0.085223   0.205435
    18  H    0.091665   0.050847
    19  H    0.369853  -0.222425
    20  H    0.214952   0.011333
    21  H    0.152847  -0.004002
    22  H    0.024451   0.186139
    23  H    0.038974   0.104342
    24  H   -0.231765   0.398797
    25  H    0.044959   0.131706
    26  H   -0.769393   0.967606
    27  H   -0.005819   0.161076
    28  H   -0.536766   0.849796
    29  H    0.154959   0.132305
 Sum of Mulliken charges =  -1.00000   1.00000

 Dipole moment (field-independent basis, Debye):
    X=             -3.6981    Y=             -3.5464    Z=              3.4350  Tot=              6.1687
 Quadrupole moment (field-independent basis, Debye-Ang):
   XX=           -174.5403   YY=           -142.9248   ZZ=           -135.5775
   XY=            -11.7913   XZ=              6.5526   YZ=              5.6029

 Summary of Natural Population Analysis:

                                       Natural Population
                Natural  -----------------------------------------------
    Atom  No    Charge         Core      Valence    Rydberg      Total
 -----------------------------------------------------------------------
      C    1   -0.19461      0.99956     2.18727    0.00778     3.19461
      C    2   -0.08415      0.99956     2.07322    0.01137     3.08415
      C    3   -0.26848      0.99955     2.25727    0.01166     3.26848
      S    4    0.04928      4.99969     2.93226    0.01878     7.95072
      S    5    0.04424      4.99967     2.93500    0.02109     7.95576
      C    6   -0.25038      0.99959     2.23916    0.01164     3.25038
      C    7   -0.20223      0.99958     2.19156    0.01109     3.20223
      C    8   -0.02673      0.99951     2.01591    0.01131     3.02673
      C    9   -0.12620      0.99948     2.11872    0.00800     3.12620
      C   10    0.13730      0.99935     1.84825    0.01510     2.86270
      C   11    0.12581      0.99934     1.86106    0.01379     2.87419
      C   12   -0.12524      0.99952     2.11446    0.01125     3.12524
      C   13   -0.10564      0.99951     2.09605    0.01008     3.10564
      O   14   -0.35643      0.99987     3.34849    0.00807     4.35643
      O   15   -0.34175      0.99988     3.33565    0.00622     4.34175
      H   16    0.08831      0.00000     0.41065    0.00104     0.41169
      H   17    0.09419      0.00000     0.40494    0.00087     0.40581
      H   18    0.09851      0.00000     0.39941    0.00208     0.40149
      H   19    0.11588      0.00000     0.38148    0.00264     0.38412
      H   20    0.10378      0.00000     0.39499    0.00124     0.39622
      H   21    0.10636      0.00000     0.39203    0.00161     0.39364
      H   22    0.09974      0.00000     0.39863    0.00163     0.40026
      H   23    0.10151      0.00000     0.39728    0.00121     0.39849
      H   24    0.10422      0.00000     0.39438    0.00140     0.39578
      H   25    0.10323      0.00000     0.39549    0.00128     0.39677
      H   26    0.10872      0.00000     0.38897    0.00232     0.39128
      H   27    0.10375      0.00000     0.39482    0.00143     0.39625
      H   28    0.25196      0.00000     0.21046    0.03758     0.24804
      H   29    0.24506      0.00000     0.25196    0.00298     0.25494
 =======================================================================
   * Total *   -0.00000     22.99366    40.76983    0.23651    64.00000

 Normal termination of Gaussian 16 at Thu Dec 10 15:43:38 2020.
