 Gaussian 16, Revision A.03,

 -----------------------------------------------------------
 # opt freq B3LYP/6-31G(d) empiricaldispersion=gd3bj scf=xqc
 -----------------------------------------------------------

 -----------------------------
 CID_69954879_JID_560_neutraal
 -----------------------------
 Symbolic Z-matrix:
 Charge =  0 Multiplicity = 1

 SCF Done:  E(RB3LYP) =  -445.091686783     A.U. after   13 cycles
 SCF Done:  E(RB3LYP) =  -445.095964692     A.U. after   11 cycles
 SCF Done:  E(RB3LYP) =  -445.095826400     A.U. after   11 cycles
 SCF Done:  E(RB3LYP) =  -445.096632343     A.U. after   10 cycles
 SCF Done:  E(RB3LYP) =  -445.097107498     A.U. after   10 cycles
 SCF Done:  E(RB3LYP) =  -445.097254197     A.U. after   10 cycles
 SCF Done:  E(RB3LYP) =  -445.097291986     A.U. after    9 cycles
 SCF Done:  E(RB3LYP) =  -445.097297448     A.U. after    9 cycles
 SCF Done:  E(RB3LYP) =  -445.097298694     A.U. after    7 cycles
 SCF Done:  E(RB3LYP) =  -445.097298870     A.U. after    7 cycles
 Optimization completed.
    -- Stationary point found.
 Normal termination of Gaussian 16 at Sun Dec 13 12:16:30 2020.

 --------------------------------------------------------------------
 #N Geom=AllCheck Guess=TCheck SCRF=Check GenChk RB3LYP/6-31G(d) Freq
 --------------------------------------------------------------------

 Structure from the checkpoint file:  "JID_560.chk"
 -----------------------------
 CID_69954879_JID_560_neutraal
 -----------------------------
 Charge =  0 Multiplicity = 1

 SCF Done:  E(RB3LYP) =  -445.097298870     A.U. after    1 cycles

  Exact polarizability: 103.119  -2.837  94.821  -1.834  -0.264  79.977
 Approx polarizability: 127.144  -2.098 127.060  -1.596   1.094 125.386

                      1                      2                      3
                      A                      A                      A
 Frequencies --     83.1412               114.2406               143.5287
 Red. masses --      3.1934                 2.4228                 3.4695
 Frc consts  --      0.0130                 0.0186                 0.0421
 IR Inten    --      0.0197                 0.1708                 2.7159

                      4                      5                      6
                      A                      A                      A
 Frequencies --    160.5929               194.2480               245.9126
 Red. masses --      2.4069                 1.2344                 2.4790
 Frc consts  --      0.0366                 0.0274                 0.0883
 IR Inten    --      2.0936                 0.4816                 2.5027

                      7                      8                      9
                      A                      A                      A
 Frequencies --    277.8754               303.1979               338.9550
 Red. masses --      2.2035                 1.2215                 2.5602
 Frc consts  --      0.1002                 0.0662                 0.1733
 IR Inten    --      0.6610                87.8510                 2.0307

                     10                     11                     12
                      A                      A                      A
 Frequencies --    353.0709               403.1334               435.2142
 Red. masses --      1.7936                 2.8371                 2.6336
 Frc consts  --      0.1317                 0.2717                 0.2939
 IR Inten    --     23.8602                 2.5714                 3.7373

                     13                     14                     15
                      A                      A                      A
 Frequencies --    479.3055               482.9400               537.3192
 Red. masses --      2.1842                 2.5430                 1.9300
 Frc consts  --      0.2956                 0.3494                 0.3283
 IR Inten    --      9.9171                 9.0618                 1.7156

                     16                     17                     18
                      A                      A                      A
 Frequencies --    662.4327               737.7660               812.3867
 Red. masses --      3.3519                 2.0910                 1.4225
 Frc consts  --      0.8666                 0.6706                 0.5531
 IR Inten    --     17.6013                 3.7652                 2.2082

                     19                     20                     21
                      A                      A                      A
 Frequencies --    847.7284               870.1757               891.1575
 Red. masses --      1.7399                 1.6009                 2.5599
 Frc consts  --      0.7367                 0.7142                 1.1978
 IR Inten    --      1.3314                 2.3637                 0.4037

                     22                     23                     24
                      A                      A                      A
 Frequencies --    939.2212               949.6733               988.8512
 Red. masses --      1.5304                 2.0551                 3.6402
 Frc consts  --      0.7954                 1.0920                 2.0972
 IR Inten    --      1.3528                 4.2915               148.2986

                     25                     26                     27
                      A                      A                      A
 Frequencies --   1007.6124              1015.6000              1043.0461
 Red. masses --      2.0234                 2.0880                 1.7570
 Frc consts  --      1.2104                 1.2689                 1.1262
 IR Inten    --     20.9952                 8.5564                 1.5047

                     28                     29                     30
                      A                      A                      A
 Frequencies --   1068.4992              1085.0569              1110.1415
 Red. masses --      1.7874                 1.7777                 2.0611
 Frc consts  --      1.2023                 1.2332                 1.4966
 IR Inten    --      3.0031                 7.7205                12.8091

                     31                     32                     33
                      A                      A                      A
 Frequencies --   1130.3819              1145.9397              1162.4635
 Red. masses --      2.0224                 2.1991                 1.6637
 Frc consts  --      1.5225                 1.7014                 1.3246
 IR Inten    --     57.9114                15.1355                 9.4578

                     34                     35                     36
                      A                      A                      A
 Frequencies --   1192.4736              1211.7844              1261.6547
 Red. masses --      1.9750                 1.3696                 1.8385
 Frc consts  --      1.6546                 1.1849                 1.7242
 IR Inten    --     12.9723                 7.2052                40.0454

                     37                     38                     39
                      A                      A                      A
 Frequencies --   1293.2891              1310.6434              1319.4998
 Red. masses --      1.2450                 1.2217                 1.3711
 Frc consts  --      1.2269                 1.2365                 1.4065
 IR Inten    --      3.1461                 3.2505                22.6994

                     40                     41                     42
                      A                      A                      A
 Frequencies --   1340.0229              1348.9863              1381.9600
 Red. masses --      1.2398                 1.5769                 1.3118
 Frc consts  --      1.3117                 1.6907                 1.4761
 IR Inten    --      2.8219                25.9203                 5.0365

                     43                     44                     45
                      A                      A                      A
 Frequencies --   1390.7340              1395.8205              1402.2545
 Red. masses --      1.2217                 1.4221                 1.3379
 Frc consts  --      1.3922                 1.6324                 1.5500
 IR Inten    --      3.9862                 8.7976                 1.9224

                     46                     47                     48
                      A                      A                      A
 Frequencies --   1408.8943              1424.1937              1432.9399
 Red. masses --      1.4126                 1.5614                 1.3475
 Frc consts  --      1.6521                 1.8659                 1.6302
 IR Inten    --      1.3958                 3.6896                39.8997

                     49                     50                     51
                      A                      A                      A
 Frequencies --   1449.8287              1454.4454              1504.4937
 Red. masses --      1.2285                 1.2088                 1.0972
 Frc consts  --      1.5215                 1.5066                 1.4633
 IR Inten    --      2.7187                21.2088                 0.6085

                     52                     53                     54
                      A                      A                      A
 Frequencies --   1513.0151              1516.1054              1524.1857
 Red. masses --      1.0851                 1.0750                 1.0920
 Frc consts  --      1.4636                 1.4559                 1.4947
 IR Inten    --      5.0496                 2.2929                 3.5072

                     55                     56                     57
                      A                      A                      A
 Frequencies --   1528.6097              1533.1035              1542.3773
 Red. masses --      1.0405                 1.0923                 1.0923
 Frc consts  --      1.4325                 1.5126                 1.5311
 IR Inten    --      2.7947                 2.6008                 4.5714

                     58                     59                     60
                      A                      A                      A
 Frequencies --   1547.8948              2906.1524              2936.9775
 Red. masses --      1.0614                 1.0728                 1.0812
 Frc consts  --      1.4983                 5.3381                 5.4947
 IR Inten    --      5.3537                63.4461                48.3522

                     61                     62                     63
                      A                      A                      A
 Frequencies --   3025.3382              3031.0302              3034.7400
 Red. masses --      1.0671                 1.0734                 1.0608
 Frc consts  --      5.7547                 5.8103                 5.7562
 IR Inten    --     27.3973                54.7093                11.6108

                     64                     65                     66
                      A                      A                      A
 Frequencies --   3044.3267              3045.5394              3050.8698
 Red. masses --      1.0624                 1.0607                 1.0422
 Frc consts  --      5.8011                 5.7965                 5.7152
 IR Inten    --     15.6858                41.6712                32.0729

                     67                     68                     69
                      A                      A                      A
 Frequencies --   3065.4205              3072.9315              3077.5503
 Red. masses --      1.0854                 1.1004                 1.0940
 Frc consts  --      6.0093                 6.1222                 6.1051
 IR Inten    --     72.2556                10.7810                55.3830

                     70                     71                     72
                      A                      A                      A
 Frequencies --   3083.1668              3091.1875              3107.7958
 Red. masses --      1.1034                 1.1057                 1.1017
 Frc consts  --      6.1800                 6.2248                 6.2695
 IR Inten    --     48.1533                62.3881                49.0781

                     73                     74                     75
                      A                      A                      A
 Frequencies --   3151.7743              3162.4486              3748.5562
 Red. masses --      1.0984                 1.0928                 1.0659
 Frc consts  --      6.4289                 6.4394                 8.8248
 IR Inten    --     20.1397                25.3601                 9.1099

 - Thermochemistry -
 -------------------
 Temperature   298.150 Kelvin.  Pressure   1.00000 Atm.
 Atom     1 has atomic number  6 and mass  12.00000

 Molecular mass:   143.13101 amu.
 Principal axes and moments of inertia in atomic units:
                           1         2         3
     Eigenvalues --  1015.554311648.009172389.49884
           X            0.99909  -0.04239  -0.00507
           Y            0.04236   0.99909  -0.00516
           Z            0.00529   0.00494   0.99997
 This molecule is an asymmetric top.
 Rotational symmetry number  1.
 Warning -- assumption of classical behavior for rotation
           may cause significant error
 Rotational temperatures (Kelvin)      0.08529     0.05256     0.03625
 Rotational constants (GHZ):           1.77710     1.09510     0.75528
 Zero-point vibrational energy     657263.2 (Joules/Mol)
                                  157.08967 (Kcal/Mol)
 Warning -- explicit consideration of  15 degrees of freedom as
           vibrations may cause significant error
 Vibrational temperatures:    119.62   164.37   206.51   231.06   279.48
          (Kelvin)            353.81   399.80   436.23   487.68   507.99
                              580.02   626.18   689.61   694.84   773.08
                              953.09  1061.48  1168.84  1219.69  1251.99
                             1282.18  1351.33  1366.37  1422.74  1449.73
                             1461.22  1500.71  1537.33  1561.15  1597.25
                             1626.37  1648.75  1672.53  1715.70  1743.49
                             1815.24  1860.75  1885.72  1898.47  1927.99
                             1940.89  1988.33  2000.96  2008.27  2017.53
                             2027.08  2049.10  2061.68  2085.98  2092.62
                             2164.63  2176.89  2181.34  2192.96  2199.33
                             2205.79  2219.14  2227.08  4181.31  4225.66
                             4352.79  4360.98  4366.31  4380.11  4381.85
                             4389.52  4410.46  4421.26  4427.91  4435.99
                             4447.53  4471.42  4534.70  4550.06  5393.34

 Zero-point correction=                           0.250338 (Hartree/Particle)
 Thermal correction to Energy=                    0.260894
 Thermal correction to Enthalpy=                  0.261838
 Thermal correction to Gibbs Free Energy=         0.214984
 Sum of electronic and zero-point Energies=           -444.846961
 Sum of electronic and thermal Energies=              -444.836405
 Sum of electronic and thermal Enthalpies=            -444.835461
 Sum of electronic and thermal Free Energies=         -444.882315

                     E (Thermal)             CV                S
                      KCal/Mol        Cal/Mol-Kelvin    Cal/Mol-Kelvin
 Total                  163.714             41.012             98.613
 Electronic               0.000              0.000              0.000
 Translational            0.889              2.981             40.787
 Rotational               0.889              2.981             29.771
 Vibrational            161.936             35.050             28.056
 Vibration     1          0.600              1.961              3.815
 Vibration     2          0.607              1.938              3.196
 Vibration     3          0.616              1.910              2.756
 Vibration     4          0.622              1.891              2.543
 Vibration     5          0.635              1.848              2.187
 Vibration     6          0.660              1.770              1.760
 Vibration     7          0.679              1.714              1.547
 Vibration     8          0.695              1.668              1.399
 Vibration     9          0.719              1.598              1.217
 Vibration    10          0.729              1.569              1.152
 Vibration    11          0.769              1.463              0.951
 Vibration    12          0.796              1.393              0.842
 Vibration    13          0.836              1.296              0.712
 Vibration    14          0.839              1.288              0.702
 Vibration    15          0.892              1.168              0.571

                           ! Non-Optimized Parameters !
 Normal termination of Gaussian 16 at Sun Dec 13 12:21:34 2020.

 ----------------------------------------------------------------------
 # B3LYP/6-311++G(d,p) empiricaldispersion=gd3bj scf=xqc pop=npa geom=c
 heck
 ----------------------------------------------------------------------

 -------------------------------------
 CID_69954879_JID_560_Energie_neutraal
 -------------------------------------
 Structure from the checkpoint file:  "JID_560.chk"
 Charge =  0 Multiplicity = 1

 SCF Done:  E(RB3LYP) =  -445.232387813     A.U. after   13 cycles
 Normal termination of Gaussian 16 at Sun Dec 13 12:23:20 2020.

 ----------------------------------------------------------------------
 # B3LYP/6-311++G(d,p) empiricaldispersion=gd3bj scf=xqc pop=npa geom=c
 heck
 ----------------------------------------------------------------------

 -----------------------------------
 CID_69954879_JID_560_Energie_kation
 -----------------------------------
 Structure from the checkpoint file:  "JID_560.chk"
 Charge =  1 Multiplicity = 2

 SCF Done:  E(UB3LYP) =  -444.927955242     A.U. after   17 cycles
 Normal termination of Gaussian 16 at Sun Dec 13 12:26:19 2020.
 Gaussian 16:  ES64L-G16RevA.03 25-Dec-2016

 ----------------------------------------------------------------------
 # B3LYP/6-311++G(d,p) empiricaldispersion=gd3bj scf=xqc pop=npa geom=c
 heck
 ----------------------------------------------------------------------

 ----------------------------------
 CID_69954879_JID_560_Energie_anion
 ----------------------------------
 Structure from the checkpoint file:  "JID_560.chk"
 Charge = -1 Multiplicity = 2

                         Standard orientation:
 ---------------------------------------------------------------------
 Center     Atomic      Atomic             Coordinates (Angstroms)
 Number     Number       Type             X           Y           Z
 ---------------------------------------------------------------------
      1          6           0        2.676571   -1.243924    0.323070
      2          6           0        1.372754   -1.442759   -0.459629
      3          6           0        0.142735   -0.714427    0.121000
      4          6           0       -1.118763   -1.572478   -0.073369
      5          6           0       -2.382177   -0.895205    0.461313
      6          6           0       -2.527908    0.499373   -0.149799
      7          6           0       -1.243429    1.296735    0.064945
      8          7           0       -0.084930    0.606923   -0.508292
      9          6           0        1.061424    1.470873   -0.608981
     10          8           0        1.674663    1.862016    0.626316
     11          1           0        2.935178   -0.189157    0.442010
     12          1           0        3.510021   -1.755111   -0.172446
     13          1           0        2.581593   -1.666309    1.330681
     14          1           0        1.492128   -1.147086   -1.509622
     15          1           0        1.148299   -2.516509   -0.481596
     16          1           0        0.298666   -0.582621    1.208617
     17          1           0       -0.965129   -2.537629    0.424751
     18          1           0       -1.232335   -1.774666   -1.147198
     19          1           0       -3.266953   -1.508655    0.252678
     20          1           0       -2.309676   -0.804345    1.554987
     21          1           0       -2.712579    0.415972   -1.228214
     22          1           0       -3.375653    1.037349    0.292062
     23          1           0       -1.323919    2.278894   -0.417164
     24          1           0       -1.117010    1.475157    1.152705
     25          1           0        1.855355    0.971107   -1.162767
     26          1           0        0.753245    2.360714   -1.175511
     27          1           0        1.038731    2.409170    1.112237
 ---------------------------------------------------------------------

 SCF Done:  E(UB3LYP) =  -445.214444781     A.U. after   28 cycles

 The electronic state is 2-A.
 Alpha  occ. eigenvalues --  -19.01087 -14.19701 -10.12752 -10.08984 -10.07929
 Alpha  occ. eigenvalues --  -10.06295 -10.05582 -10.05461 -10.05279 -10.05256
 Alpha  occ. eigenvalues --   -0.91659  -0.81307  -0.68978  -0.68016  -0.62269
 Alpha  occ. eigenvalues --   -0.58168  -0.52962  -0.51205  -0.47939  -0.44552
 Alpha  occ. eigenvalues --   -0.41023  -0.37905  -0.36919  -0.34817  -0.33072
 Alpha  occ. eigenvalues --   -0.32418  -0.31797  -0.30424  -0.29751  -0.28759
 Alpha  occ. eigenvalues --   -0.26460  -0.25365  -0.23876  -0.23365  -0.23007
 Alpha  occ. eigenvalues --   -0.22093  -0.20802  -0.20008  -0.17916  -0.11839
 Alpha  occ. eigenvalues --    0.05015
 Alpha virt. eigenvalues --    0.07110   0.07502   0.08183   0.09329   0.09929
 Alpha virt. eigenvalues --    0.10253   0.10476   0.11115   0.12049   0.12724
 Alpha virt. eigenvalues --    0.13254   0.13469   0.14165   0.15033   0.15129

  Beta  occ. eigenvalues --  -19.01053 -14.19700 -10.12731 -10.08975 -10.07888
  Beta  occ. eigenvalues --  -10.06286 -10.05569 -10.05440 -10.05257 -10.05239
  Beta  occ. eigenvalues --   -0.91585  -0.81280  -0.68944  -0.67981  -0.62229
  Beta  occ. eigenvalues --   -0.58104  -0.52917  -0.51139  -0.47888  -0.44484
  Beta  occ. eigenvalues --   -0.40973  -0.37839  -0.36854  -0.34785  -0.33039
  Beta  occ. eigenvalues --   -0.32374  -0.31764  -0.30387  -0.29700  -0.28730
  Beta  occ. eigenvalues --   -0.26425  -0.25316  -0.23843  -0.23343  -0.22959
  Beta  occ. eigenvalues --   -0.22055  -0.20754  -0.19975  -0.17873  -0.11810
  Beta virt. eigenvalues --    0.07238   0.08110   0.08516   0.08558   0.09981
  Beta virt. eigenvalues --    0.10483   0.10651   0.11042   0.11494   0.12500
  Beta virt. eigenvalues --    0.13140   0.13520   0.13858   0.14552   0.15266

 Mulliken charges and spin densities:
               1          2
     1  C   -0.094934  -0.475610
     2  C   -0.012125  -0.280646
     3  C   -0.576876   0.305378
     4  C    0.238268  -0.401081
     5  C    0.171711  -0.469598
     6  C   -0.135863  -0.325444
     7  C    1.133370  -1.295073
     8  N   -0.032978   0.214700
     9  C    0.582353  -0.967732
    10  O   -0.236489   0.040614
    11  H    0.094634   0.086577
    12  H   -0.124322   0.243691
    13  H   -0.112951   0.238619
    14  H    0.138392   0.000154
    15  H   -0.108205   0.262944
    16  H    0.167423  -0.004897
    17  H   -0.048396   0.187718
    18  H   -0.025497   0.166662
    19  H   -0.555532   0.728445
    20  H   -0.100826   0.222728
    21  H    0.169337  -0.046907
    22  H   -0.574197   0.748770
    23  H   -0.561847   0.728272
    24  H   -0.139001   0.267435
    25  H    0.173020  -0.020912
    26  H   -0.251778   0.409371
    27  H   -0.176691   0.435822
 Sum of Mulliken charges =  -1.00000   1.00000

 Dipole moment (field-independent basis, Debye):
    X=              2.9692    Y=             -3.1862    Z=             -2.7397  Tot=              5.1453
 Quadrupole moment (field-independent basis, Debye-Ang):
   XX=           -120.2777   YY=           -117.3808   ZZ=            -91.4480
   XY=              1.7450   XZ=              0.6635   YZ=             -1.7435

 Summary of Natural Population Analysis:

                                       Natural Population
                Natural  -----------------------------------------------
    Atom  No    Charge         Core      Valence    Rydberg      Total
 -----------------------------------------------------------------------
      C    1   -0.28687      0.99966     2.28265    0.00456     3.28687
      C    2   -0.19602      0.99962     2.18741    0.00900     3.19602
      C    3   -0.00401      0.99957     1.99137    0.01307     3.00401
      C    4   -0.18847      0.99961     2.17884    0.01002     3.18847
      C    5   -0.18935      0.99963     2.18123    0.00850     3.18935
      C    6   -0.19065      0.99963     2.18177    0.00925     3.19065
      C    7   -0.09000      0.99961     2.07643    0.01396     3.09000
      N    8   -0.28490      0.99969     2.77361    0.01159     3.78490
      C    9    0.07740      0.99960     1.90627    0.01672     2.92260
      O   10   -0.38046      0.99990     3.37435    0.00622     4.38046
      H   11    0.10784      0.00000     0.39055    0.00162     0.39216
      H   12    0.09321      0.00000     0.40585    0.00094     0.40679
      H   13    0.09574      0.00000     0.40313    0.00113     0.40426
      H   14    0.09648      0.00000     0.40229    0.00123     0.40352
      H   15    0.09717      0.00000     0.40167    0.00116     0.40283
      H   16    0.08414      0.00000     0.41375    0.00211     0.41586
      H   17    0.09812      0.00000     0.40079    0.00109     0.40188
      H   18    0.09412      0.00000     0.40428    0.00160     0.40588
      H   19    0.09905      0.00000     0.39952    0.00143     0.40095
      H   20    0.09462      0.00000     0.40376    0.00162     0.40538
      H   21    0.09347      0.00000     0.40502    0.00151     0.40653
      H   22    0.10181      0.00000     0.39638    0.00181     0.39819
      H   23    0.09995      0.00000     0.39761    0.00244     0.40005
      H   24    0.08141      0.00000     0.41572    0.00288     0.41859
      H   25    0.08380      0.00000     0.41479    0.00141     0.41620
      H   26    0.07986      0.00000     0.41880    0.00134     0.42014
      H   27    0.23253      0.00000     0.26179    0.00568     0.26747
 =======================================================================
   * Total *    0.00000      9.99651    29.86963    0.13386    40.00000

 Normal termination of Gaussian 16 at Sun Dec 13 12:31:10 2020.
