 Gaussian 16, Revision A.03,

 -----------------------------------------------------------
 # opt freq B3LYP/6-31G(d) empiricaldispersion=gd3bj scf=xqc
 -----------------------------------------------------------

 ------------------------------
 CID_61435511_JID_7971_neutraal
 ------------------------------
 Symbolic Z-matrix:
 Charge =  0 Multiplicity = 1

 SCF Done:  E(RB3LYP) =  -745.123045754     A.U. after   15 cycles
 SCF Done:  E(RB3LYP) =  -745.129829521     A.U. after   13 cycles
 SCF Done:  E(RB3LYP) =  -745.128791664     A.U. after   14 cycles
 SCF Done:  E(RB3LYP) =  -745.135715316     A.U. after   13 cycles
 SCF Done:  E(RB3LYP) =  -745.138366508     A.U. after   15 cycles
 SCF Done:  E(RB3LYP) =  -745.140285293     A.U. after   12 cycles
 SCF Done:  E(RB3LYP) =  -745.141379201     A.U. after   12 cycles
 SCF Done:  E(RB3LYP) =  -745.141685536     A.U. after   13 cycles
 SCF Done:  E(RB3LYP) =  -745.141795306     A.U. after   11 cycles
 SCF Done:  E(RB3LYP) =  -745.141828162     A.U. after   10 cycles
 SCF Done:  E(RB3LYP) =  -745.141848445     A.U. after   10 cycles
 SCF Done:  E(RB3LYP) =  -745.141855030     A.U. after   11 cycles
 SCF Done:  E(RB3LYP) =  -745.141860269     A.U. after   10 cycles
 SCF Done:  E(RB3LYP) =  -745.141861932     A.U. after   10 cycles
 SCF Done:  E(RB3LYP) =  -745.141862021     A.U. after    8 cycles
 Optimization completed.
    -- Stationary point found.
 Normal termination of Gaussian 16 at Fri Dec 11 13:31:01 2020.

 --------------------------------------------------------------------
 #N Geom=AllCheck Guess=TCheck SCRF=Check GenChk RB3LYP/6-31G(d) Freq
 --------------------------------------------------------------------

 Structure from the checkpoint file:  "JID_7971.chk"
 ------------------------------
 CID_61435511_JID_7971_neutraal
 ------------------------------
 Charge =  0 Multiplicity = 1

 SCF Done:  E(RB3LYP) =  -745.141862021     A.U. after    1 cycles

  Exact polarizability: 186.074  14.566 190.188  -8.869   9.919  96.198
 Approx polarizability: 262.529  24.367 290.266 -17.472  27.528 150.436

                      1                      2                      3
                      A                      A                      A
 Frequencies --     27.6698                34.0864                48.6997
 Red. masses --      2.8994                 4.6902                 3.7607
 Frc consts  --      0.0013                 0.0032                 0.0053
 IR Inten    --      1.6432                 0.7095                 0.7619

                      4                      5                      6
                      A                      A                      A
 Frequencies --     61.7196                69.0435                93.8571
 Red. masses --      5.4695                 4.4194                 2.9600
 Frc consts  --      0.0123                 0.0124                 0.0154
 IR Inten    --      0.8700                 0.1952                 0.4048

                      7                      8                      9
                      A                      A                      A
 Frequencies --    133.1813               159.1060               168.5606
 Red. masses --      4.4629                 7.1852                 3.6092
 Frc consts  --      0.0466                 0.1072                 0.0604
 IR Inten    --      3.2676                 8.6404                 0.3696

                     10                     11                     12
                      A                      A                      A
 Frequencies --    193.5779               227.9654               233.5537
 Red. masses --      4.0458                 1.2354                 2.2099
 Frc consts  --      0.0893                 0.0378                 0.0710
 IR Inten    --      4.1720                 0.2748                 1.6164

                     13                     14                     15
                      A                      A                      A
 Frequencies --    277.1336               311.2635               365.2098
 Red. masses --      2.8567                 3.3023                 2.8557
 Frc consts  --      0.1293                 0.1885                 0.2244
 IR Inten    --      0.4045                 2.4996                 1.2890

                     16                     17                     18
                      A                      A                      A
 Frequencies --    393.8250               404.0873               456.0706
 Red. masses --      4.4755                 4.2168                 3.7757
 Frc consts  --      0.4090                 0.4057                 0.4627
 IR Inten    --      6.7058                 7.4091                 0.9734

                     19                     20                     21
                      A                      A                      A
 Frequencies --    474.0207               497.1445               532.1633
 Red. masses --      3.3120                 3.8646                 2.7348
 Frc consts  --      0.4385                 0.5628                 0.4563
 IR Inten    --      6.8571                 6.0500                 2.4302

                     22                     23                     24
                      A                      A                      A
 Frequencies --    573.0077               587.2621               624.9383
 Red. masses --      5.2420                 2.0212                 3.8775
 Frc consts  --      1.0141                 0.4107                 0.8922
 IR Inten    --      0.8330                 1.1576                 5.4507

                     25                     26                     27
                      A                      A                      A
 Frequencies --    662.7848               671.6518               747.9291
 Red. masses --      6.4107                 3.3999                 3.7074
 Frc consts  --      1.6592                 0.9037                 1.2219
 IR Inten    --      8.0185                 6.6301                 1.2498

                     28                     29                     30
                      A                      A                      A
 Frequencies --    752.4596               799.8925               819.0062
 Red. masses --      4.8204                 1.2446                 1.3177
 Frc consts  --      1.6080                 0.4692                 0.5208
 IR Inten    --      1.9135                12.5396                20.8641

                     31                     32                     33
                      A                      A                      A
 Frequencies --    827.8614               850.5257               881.0150
 Red. masses --      3.1167                 3.4095                 1.6038
 Frc consts  --      1.2585                 1.4532                 0.7335
 IR Inten    --      3.2270                 3.3877                21.9428

                     34                     35                     36
                      A                      A                      A
 Frequencies --    890.3972               901.9792               929.0178
 Red. masses --      1.7746                 1.7011                 1.9701
 Frc consts  --      0.8289                 0.8154                 1.0018
 IR Inten    --      6.6751                 4.2376                12.0594

                     37                     38                     39
                      A                      A                      A
 Frequencies --    949.3833               962.6422               972.4689
 Red. masses --      2.1787                 2.5177                 1.3442
 Frc consts  --      1.1570                 1.3746                 0.7490
 IR Inten    --      1.6452                 5.1637                 0.0863

                     40                     41                     42
                      A                      A                      A
 Frequencies --   1001.6375              1004.7137              1034.0130
 Red. masses --      2.0682                 5.4271                 2.6279
 Frc consts  --      1.2225                 3.2278                 1.6554
 IR Inten    --     40.2118                 7.8721                10.9958

                     43                     44                     45
                      A                      A                      A
 Frequencies --   1054.5746              1106.0037              1113.5948
 Red. masses --      2.4368                 2.4351                 2.0616
 Frc consts  --      1.5967                 1.7550                 1.5063
 IR Inten    --     41.9323                69.8977                10.6548

                     46                     47                     48
                      A                      A                      A
 Frequencies --   1123.2458              1135.8255              1145.3457
 Red. masses --      3.1898                 1.5491                 2.0750
 Frc consts  --      2.3712                 1.1775                 1.6038
 IR Inten    --     91.2226                 1.8478                 2.2753

                     49                     50                     51
                      A                      A                      A
 Frequencies --   1179.4808              1206.8715              1212.8581
 Red. masses --      1.9814                 1.6363                 1.9345
 Frc consts  --      1.6241                 1.4042                 1.6767
 IR Inten    --     16.5228                11.4451                 7.5520

                     52                     53                     54
                      A                      A                      A
 Frequencies --   1221.0927              1239.6927              1271.5876
 Red. masses --      1.4533                 2.4072                 1.2807
 Frc consts  --      1.2768                 2.1796                 1.2201
 IR Inten    --      2.6034                16.2043                 2.9047

                     55                     56                     57
                      A                      A                      A
 Frequencies --   1302.0737              1313.2539              1327.4469
 Red. masses --      1.8397                 1.2939                 1.8530
 Frc consts  --      1.8377                 1.3148                 1.9238
 IR Inten    --     43.3446                 5.5766                35.1870

                     58                     59                     60
                      A                      A                      A
 Frequencies --   1341.2554              1352.9640              1358.1718
 Red. masses --      1.9446                 1.4141                 1.3918
 Frc consts  --      2.0612                 1.5251                 1.5126
 IR Inten    --      2.9955                16.1432                12.1420

                     61                     62                     63
                      A                      A                      A
 Frequencies --   1373.4124              1381.6031              1408.5356
 Red. masses --      1.2924                 1.2463                 1.2834
 Frc consts  --      1.4363                 1.4016                 1.5003
 IR Inten    --     16.5358                26.8987                20.1423

                     64                     65                     66
                      A                      A                      A
 Frequencies --   1413.5977              1422.0135              1434.5834
 Red. masses --      1.7131                 1.5117                 1.3068
 Frc consts  --      2.0169                 1.8011                 1.5845
 IR Inten    --     10.8443                18.4992                16.8247

                     67                     68                     69
                      A                      A                      A
 Frequencies --   1437.8089              1494.2480              1500.2116
 Red. masses --      1.5022                 1.8396                 1.1087
 Frc consts  --      1.8297                 2.4200                 1.4701
 IR Inten    --     22.7141               117.8044                10.3061

                     70                     71                     72
                      A                      A                      A
 Frequencies --   1515.3252              1518.9402              1523.0708
 Red. masses --      1.1158                 1.1709                 1.3082
 Frc consts  --      1.5095                 1.5917                 1.7880
 IR Inten    --      3.2733                 8.5149                 5.4862

                     73                     74                     75
                      A                      A                      A
 Frequencies --   1527.8448              1536.1098              1554.0912
 Red. masses --      1.1281                 1.0674                 2.2061
 Frc consts  --      1.5515                 1.4840                 3.1393
 IR Inten    --      0.3119                15.6428               164.7526

                     76                     77                     78
                      A                      A                      A
 Frequencies --   1561.0827              1596.9748              1654.9678
 Red. masses --      1.1068                 6.8111                 5.4376
 Frc consts  --      1.5892                10.2345                 8.7748
 IR Inten    --      2.4237               116.0341               333.1137

                     79                     80                     81
                      A                      A                      A
 Frequencies --   2355.8473              3007.3205              3018.7442
 Red. masses --     12.6829                 1.0841                 1.0717
 Frc consts  --     41.4729                 5.7765                 5.7543
 IR Inten    --     17.5565                48.8643                35.8153

                     82                     83                     84
                      A                      A                      A
 Frequencies --   3042.3147              3049.1038              3051.5511
 Red. masses --      1.0629                 1.0663                 1.0409
 Frc consts  --      5.7962                 5.8408                 5.7106
 IR Inten    --      6.5052                29.6386                39.6023

                     85                     86                     87
                      A                      A                      A
 Frequencies --   3061.6624              3068.8341              3097.3482
 Red. masses --      1.0683                 1.0637                 1.1024
 Frc consts  --      5.9001                 5.9022                 6.2314
 IR Inten    --     52.0455                21.2707                19.6030

                     88                     89                     90
                      A                      A                      A
 Frequencies --   3101.4122              3110.3161              3119.6435
 Red. masses --      1.0944                 1.1013                 1.0963
 Frc consts  --      6.2019                 6.2769                 6.2862
 IR Inten    --     46.8866                28.7411                23.3637

                     91                     92                     93
                      A                      A                      A
 Frequencies --   3127.6098              3143.9161              3152.9851
 Red. masses --      1.1049                 1.0950                 1.1012
 Frc consts  --      6.3682                 6.3771                 6.4498
 IR Inten    --     39.5142                17.0537                21.4090

                     94                     95                     96
                      A                      A                      A
 Frequencies --   3173.3800              3239.5758              3271.2120
 Red. masses --      1.0901                 1.0940                 1.0915
 Frc consts  --      6.4678                 6.7649                 6.8816
 IR Inten    --     33.1615                 3.6432                 4.0824

 - Thermochemistry -
 -------------------
 Temperature   298.150 Kelvin.  Pressure   1.00000 Atm.
 Atom     1 has atomic number  6 and mass  12.00000

 Molecular mass:   231.13716 amu.
 Principal axes and moments of inertia in atomic units:
                           1         2         3
     Eigenvalues --  3281.395574987.397827821.99217
           X            0.99879  -0.04902  -0.00482
           Y            0.04897   0.99875  -0.00990
           Z            0.00530   0.00965   0.99994
 This molecule is an asymmetric top.
 Rotational symmetry number  1.
 Warning -- assumption of classical behavior for rotation
           may cause significant error
 Rotational temperatures (Kelvin)      0.02640     0.01737     0.01107
 Rotational constants (GHZ):           0.54999     0.36186     0.23073
 Zero-point vibrational energy     757589.4 (Joules/Mol)
                                  181.06822 (Kcal/Mol)
 Warning -- explicit consideration of  23 degrees of freedom as
           vibrations may cause significant error
 Vibrational temperatures:     39.81    49.04    70.07    88.80    99.34
          (Kelvin)            135.04   191.62   228.92   242.52   278.52
                              327.99   336.03   398.73   447.84   525.46
                              566.63   581.39   656.18   682.01   715.28
                              765.66   824.43   844.94   899.15   953.60
                              966.36  1076.10  1082.62  1150.87  1178.37
                             1191.11  1223.72  1267.58  1281.08  1297.75
                             1336.65  1365.95  1385.03  1399.17  1441.13
                             1445.56  1487.71  1517.30  1591.29  1602.21
                             1616.10  1634.20  1647.90  1697.01  1736.42
                             1745.03  1756.88  1783.64  1829.53  1873.39
                             1889.48  1909.90  1929.77  1946.61  1954.11
                             1976.03  1987.82  2026.57  2033.85  2045.96
                             2064.05  2068.69  2149.89  2158.47  2180.21
                             2185.42  2191.36  2198.23  2210.12  2235.99
                             2246.05  2297.69  2381.13  3389.54  4326.86
                             4343.30  4377.21  4386.98  4390.50  4405.05
                             4415.37  4456.39  4462.24  4475.05  4488.47
                             4499.93  4523.39  4536.44  4565.79  4661.03
                             4706.54

 Zero-point correction=                           0.288551 (Hartree/Particle)
 Thermal correction to Energy=                    0.304645
 Thermal correction to Enthalpy=                  0.305590
 Thermal correction to Gibbs Free Energy=         0.242866
 Sum of electronic and zero-point Energies=           -744.853311
 Sum of electronic and thermal Energies=              -744.837217
 Sum of electronic and thermal Enthalpies=            -744.836272
 Sum of electronic and thermal Free Energies=         -744.898996

                     E (Thermal)             CV                S
                      KCal/Mol        Cal/Mol-Kelvin    Cal/Mol-Kelvin
 Total                  191.168             60.071            132.014
 Electronic               0.000              0.000              0.000
 Translational            0.889              2.981             42.215
 Rotational               0.889              2.981             33.215
 Vibrational            189.390             54.109             56.584
 Vibration     1          0.593              1.984              5.990
 Vibration     2          0.594              1.983              5.576
 Vibration     3          0.595              1.978              4.870
 Vibration     4          0.597              1.973              4.401
 Vibration     5          0.598              1.969              4.180
 Vibration     6          0.603              1.954              3.578
 Vibration     7          0.613              1.920              2.900
 Vibration     8          0.621              1.892              2.560
 Vibration     9          0.625              1.881              2.451
 Vibration    10          0.635              1.849              2.193
 Vibration    11          0.651              1.798              1.895
 Vibration    12          0.654              1.790              1.851
 Vibration    13          0.678              1.716              1.551
 Vibration    14          0.700              1.652              1.356
 Vibration    15          0.738              1.544              1.100
 Vibration    16          0.761              1.483              0.986
 Vibration    17          0.769              1.461              0.948
 Vibration    18          0.814              1.347              0.778
 Vibration    19          0.831              1.308              0.726
 Vibration    20          0.853              1.256              0.665
 Vibration    21          0.887              1.179              0.582
 Vibration    22          0.929              1.090              0.498
 Vibration    23          0.944              1.059              0.472

                           ! Non-Optimized Parameters !
 Normal termination of Gaussian 16 at Fri Dec 11 13:42:39 2020.

 ----------------------------------------------------------------------
 # B3LYP/6-311++G(d,p) empiricaldispersion=gd3bj scf=xqc pop=npa geom=c
 heck
 ----------------------------------------------------------------------

 --------------------------------------
 CID_61435511_JID_7971_Energie_neutraal
 --------------------------------------
 Structure from the checkpoint file:  "JID_7971.chk"
 Charge =  0 Multiplicity = 1

 SCF Done:  E(RB3LYP) =  -745.340383772     A.U. after   15 cycles
 Normal termination of Gaussian 16 at Fri Dec 11 13:47:24 2020.

 ----------------------------------------------------------------------
 # B3LYP/6-311++G(d,p) empiricaldispersion=gd3bj scf=xqc pop=npa geom=c
 heck
 ----------------------------------------------------------------------

 ------------------------------------
 CID_61435511_JID_7971_Energie_kation
 ------------------------------------
 Structure from the checkpoint file:  "JID_7971.chk"
 Charge =  1 Multiplicity = 2

 SCF Done:  E(UB3LYP) =  -745.064091108     A.U. after   24 cycles
 Normal termination of Gaussian 16 at Fri Dec 11 13:57:30 2020.
 Gaussian 16:  ES64L-G16RevA.03 25-Dec-2016

 ----------------------------------------------------------------------
 # B3LYP/6-311++G(d,p) empiricaldispersion=gd3bj scf=xqc pop=npa geom=c
 heck
 ----------------------------------------------------------------------

 -----------------------------------
 CID_61435511_JID_7971_Energie_anion
 -----------------------------------
 Structure from the checkpoint file:  "JID_7971.chk"
 Charge = -1 Multiplicity = 2

                         Standard orientation:
 ---------------------------------------------------------------------
 Center     Atomic      Atomic             Coordinates (Angstroms)
 Number     Number       Type             X           Y           Z
 ---------------------------------------------------------------------
      1          6           0       -0.302338    3.788458   -0.678451
      2          6           0        0.134480    2.829123    0.430516
      3          7           0        0.103036    1.423215    0.025171
      4          6           0        1.266041    0.918334   -0.687128
      5          6           0        2.316229    0.242411    0.194924
      6          6           0        3.607490   -0.107081   -0.558757
      7          6           0        4.086447   -1.363020    0.178711
      8          6           0        2.757849   -2.052416    0.497355
      9          8           0        1.809000   -0.998274    0.709291
     10          6           0       -1.074410    0.717753    0.101577
     11          7           0       -2.169854    1.410149    0.473772
     12          6           0       -3.340508    0.770052    0.544377
     13          6           0       -3.521807   -0.572835    0.242456
     14          6           0       -2.372527   -1.298192   -0.119483
     15          6           0       -1.134104   -0.668184   -0.181794
     16          6           0       -2.462949   -2.702120   -0.404060
     17          7           0       -2.538031   -3.838228   -0.639340
     18          1           0        0.319628    3.674924   -1.574265
     19          1           0       -0.219840    4.827745   -0.340259
     20          1           0       -1.342750    3.591803   -0.949502
     21          1           0        1.159643    3.050210    0.750110
     22          1           0       -0.515528    2.944743    1.298853
     23          1           0        0.953377    0.218902   -1.469994
     24          1           0        1.740104    1.767153   -1.196052
     25          1           0        2.535645    0.900284    1.049611
     26          1           0        3.379013   -0.344258   -1.606396
     27          1           0        4.331356    0.712698   -0.549164
     28          1           0        4.758260   -1.988937   -0.415660
     29          1           0        4.604619   -1.086531    1.103971
     30          1           0        2.427936   -2.682777   -0.341490
     31          1           0        2.789381   -2.672304    1.398800
     32          1           0       -4.188208    1.377248    0.856984
     33          1           0       -4.494174   -1.046243    0.299240
     34          1           0       -0.235882   -1.238121   -0.367783
 ---------------------------------------------------------------------

 SCF Done:  E(UB3LYP) =  -745.345246070     A.U. after   33 cycles
 SCF Done:  E(UB3LYP) =  -745.345246070     a.u. after    1 cycles

 The electronic state is 2-A.
 Alpha  occ. eigenvalues --  -19.02319 -14.21480 -14.16543 -14.15731 -10.12606
 Alpha  occ. eigenvalues --  -10.12509 -10.11220 -10.10503 -10.09555 -10.08639
 Alpha  occ. eigenvalues --  -10.08503 -10.07004 -10.06624 -10.06360 -10.06082
 Alpha  occ. eigenvalues --  -10.04306 -10.03430  -0.94180  -0.85354  -0.78946
 Alpha  occ. eigenvalues --   -0.76703  -0.70152  -0.68440  -0.67348  -0.65600
 Alpha  occ. eigenvalues --   -0.61807  -0.57746  -0.54056  -0.51404  -0.51212
 Alpha  occ. eigenvalues --   -0.49626  -0.46966  -0.43574  -0.41124  -0.40193
 Alpha  occ. eigenvalues --   -0.38783  -0.37044  -0.35007  -0.34446  -0.33903
 Alpha  occ. eigenvalues --   -0.33522  -0.32672  -0.31440  -0.30493  -0.29874
 Alpha  occ. eigenvalues --   -0.28715  -0.27844  -0.27216  -0.27024  -0.25927
 Alpha  occ. eigenvalues --   -0.25531  -0.25059  -0.24437  -0.23163  -0.23002
 Alpha  occ. eigenvalues --   -0.22556  -0.19659  -0.17768  -0.15848  -0.14834
 Alpha  occ. eigenvalues --   -0.13059  -0.08736   0.03952
 Alpha virt. eigenvalues --    0.05350   0.06843   0.07634   0.08094   0.09222
 Alpha virt. eigenvalues --    0.09413   0.09599   0.10698   0.11275   0.11418
 Alpha virt. eigenvalues --    0.11887   0.12203   0.12496   0.12674   0.13672

  Beta  occ. eigenvalues --  -19.02315 -14.21479 -14.16276 -14.15386 -10.12602
  Beta  occ. eigenvalues --  -10.12505 -10.11244 -10.10498 -10.09553 -10.08620
  Beta  occ. eigenvalues --  -10.08485 -10.06944 -10.06625 -10.06074 -10.06072
  Beta  occ. eigenvalues --  -10.04309 -10.03244  -0.94169  -0.85226  -0.78596
  Beta  occ. eigenvalues --   -0.76295  -0.70123  -0.68141  -0.67036  -0.65511
  Beta  occ. eigenvalues --   -0.61643  -0.57663  -0.53749  -0.51304  -0.50874
  Beta  occ. eigenvalues --   -0.49523  -0.46879  -0.43509  -0.41069  -0.40164
  Beta  occ. eigenvalues --   -0.38693  -0.36936  -0.34921  -0.34340  -0.33782
  Beta  occ. eigenvalues --   -0.33461  -0.32644  -0.31319  -0.30393  -0.29699
  Beta  occ. eigenvalues --   -0.28652  -0.27625  -0.27009  -0.26614  -0.25861
  Beta  occ. eigenvalues --   -0.25380  -0.25020  -0.24357  -0.22644  -0.22539
  Beta  occ. eigenvalues --   -0.21966  -0.19500  -0.17417  -0.15719  -0.13114
  Beta  occ. eigenvalues --   -0.12649  -0.08032
  Beta virt. eigenvalues --    0.06023   0.06999   0.07807   0.08299   0.08926
  Beta virt. eigenvalues --    0.09216   0.09538   0.09610   0.10789   0.11299
  Beta virt. eigenvalues --    0.11504   0.11879   0.12309   0.12499   0.12741

 Mulliken charges and spin densities:
               1          2
     1  C   -0.290792  -0.167688
     2  C   -0.128159  -0.034158
     3  N    0.368008   0.005970
     4  C   -0.463195  -0.222998
     5  C   -0.149450   0.361469
     6  C    0.131003  -0.633368
     7  C   -0.018334  -0.322365
     8  C   -0.052808  -0.143190
     9  O   -0.092663   0.005331
    10  C   -0.634544   0.008857
    11  N   -0.138421   0.156146
    12  C    0.006901   0.069721
    13  C   -0.797521   0.031228
    14  C    1.594290   0.196153
    15  C    0.226855   0.164054
    16  C   -1.356195  -0.077889
    17  N   -0.309463   0.144112
    18  H    0.077436   0.032264
    19  H    0.050946   0.061804
    20  H    0.150672   0.028838
    21  H   -0.108175   0.215541
    22  H    0.209126  -0.014896
    23  H    0.224978  -0.004560
    24  H    0.128872   0.010039
    25  H    0.132011   0.072274
    26  H    0.141290   0.006615
    27  H   -0.392813   0.555343
    28  H   -0.074301   0.223707
    29  H   -0.097667   0.253563
    30  H    0.116739   0.009456
    31  H    0.143380   0.012546
    32  H    0.134080  -0.003817
    33  H    0.129029   0.002109
    34  H    0.138884  -0.002210
 Sum of Mulliken charges =  -1.00000   1.00000

 Dipole moment (field-independent basis, Debye):
    X=              3.2116    Y=              4.1315    Z=             -0.4041  Tot=              5.2485
 Quadrupole moment (field-independent basis, Debye-Ang):
   XX=           -161.5795   YY=           -155.2133   ZZ=           -117.0246
   XY=            -19.2529   XZ=             -4.1318   YZ=             -4.7694

 Summary of Natural Population Analysis:

                                       Natural Population
                Natural  -----------------------------------------------
    Atom  No    Charge         Core      Valence    Rydberg      Total
 -----------------------------------------------------------------------
      C    1   -0.29358      0.99966     2.28966    0.00426     3.29358
      C    2   -0.08475      0.99963     2.07299    0.01213     3.08475
      N    3   -0.25583      0.99964     2.74429    0.01191     3.75583
      C    4   -0.08682      0.99958     2.07612    0.01112     3.08682
      C    5    0.06121      0.99955     1.92361    0.01563     2.93879
      C    6   -0.20381      0.99962     2.19531    0.00888     3.20381
      C    7   -0.20505      0.99964     2.19763    0.00777     3.20505
      C    8   -0.00869      0.99960     1.99723    0.01186     3.00869
      O    9   -0.30412      0.99989     3.29544    0.00879     4.30412
      C   10    0.20583      0.99952     1.77935    0.01530     2.79417
      N   11   -0.22581      0.99967     2.71705    0.00909     3.72581
      C   12    0.03620      0.99960     1.95032    0.01388     2.96380
      C   13   -0.13145      0.99953     2.12415    0.00777     3.13145
      C   14   -0.02986      0.99943     2.01969    0.01075     3.02986
      C   15   -0.08940      0.99950     2.08237    0.00753     3.08940
      C   16    0.15061      0.99964     1.83155    0.01820     2.84939
      N   17   -0.16495      0.99979     2.65436    0.01081     3.66495
      H   18    0.09137      0.00000     0.40759    0.00103     0.40863
      H   19    0.09250      0.00000     0.40621    0.00129     0.40750
      H   20    0.10928      0.00000     0.38945    0.00128     0.39072
      H   21    0.08723      0.00000     0.41145    0.00131     0.41277
      H   22    0.10933      0.00000     0.38925    0.00141     0.39067
      H   23    0.10250      0.00000     0.39618    0.00132     0.39750
      H   24    0.09513      0.00000     0.40386    0.00101     0.40487
      H   25    0.08421      0.00000     0.41418    0.00162     0.41579
      H   26    0.09487      0.00000     0.40405    0.00108     0.40513
      H   27    0.10729      0.00000     0.39107    0.00164     0.39271
      H   28    0.10171      0.00000     0.39736    0.00093     0.39829
      H   29    0.09849      0.00000     0.40030    0.00120     0.40151
      H   30    0.07896      0.00000     0.41982    0.00123     0.42104
      H   31    0.08808      0.00000     0.41085    0.00107     0.41192
      H   32    0.08016      0.00000     0.41870    0.00114     0.41984
      H   33    0.09957      0.00000     0.39952    0.00091     0.40043
      H   34    0.10961      0.00000     0.38898    0.00140     0.39039
 =======================================================================
   * Total *    0.00000     16.99348    44.79997    0.20655    62.00000

 Normal termination of Gaussian 16 at Fri Dec 11 14:11:43 2020.
