 Gaussian 16, Revision A.03,

 -----------------------------------------------------------
 # opt freq B3LYP/6-31G(d) empiricaldispersion=gd3bj scf=xqc
 -----------------------------------------------------------

 ------------------------------
 CID_53409350_JID_1230_neutraal
 ------------------------------
 Symbolic Z-matrix:
 Charge =  0 Multiplicity = 1

 SCF Done:  E(RB3LYP) =  -483.149547220     A.U. after   13 cycles
 SCF Done:  E(RB3LYP) =  -483.157282550     A.U. after   11 cycles
 SCF Done:  E(RB3LYP) =  -483.157517838     A.U. after   10 cycles
 SCF Done:  E(RB3LYP) =  -483.157721535     A.U. after   10 cycles
 SCF Done:  E(RB3LYP) =  -483.157795162     A.U. after    9 cycles
 SCF Done:  E(RB3LYP) =  -483.157827349     A.U. after    9 cycles
 SCF Done:  E(RB3LYP) =  -483.157840567     A.U. after   10 cycles
 SCF Done:  E(RB3LYP) =  -483.157843164     A.U. after    8 cycles
 SCF Done:  E(RB3LYP) =  -483.157843923     A.U. after    7 cycles
 SCF Done:  E(RB3LYP) =  -483.157844133     A.U. after    7 cycles
 SCF Done:  E(RB3LYP) =  -483.157844352     A.U. after    7 cycles
 SCF Done:  E(RB3LYP) =  -483.157844468     A.U. after    7 cycles
 SCF Done:  E(RB3LYP) =  -483.157844487     A.U. after    6 cycles
 Optimization completed.
    -- Stationary point found.
 Normal termination of Gaussian 16 at Tue Dec  8 19:30:06 2020.

 --------------------------------------------------------------------
 #N Geom=AllCheck Guess=TCheck SCRF=Check GenChk RB3LYP/6-31G(d) Freq
 --------------------------------------------------------------------

 Structure from the checkpoint file:  "JID_1230.chk"
 ------------------------------
 CID_53409350_JID_1230_neutraal
 ------------------------------
 Charge =  0 Multiplicity = 1

 SCF Done:  E(RB3LYP) =  -483.157844487     A.U. after    1 cycles

  Exact polarizability: 120.982  -0.434  94.452  -1.672   2.025  85.361
 Approx polarizability: 141.409  -2.221 134.057  -1.185   3.885 132.526

                      1                      2                      3
                      A                      A                      A
 Frequencies --     39.5728                51.1163                76.2338
 Red. masses --      2.8752                 2.9529                 2.7406
 Frc consts  --      0.0027                 0.0045                 0.0094
 IR Inten    --      0.8621                 0.6063                 0.6423

                      4                      5                      6
                      A                      A                      A
 Frequencies --     92.6580               128.8936               201.0579
 Red. masses --      3.6360                 2.1307                 2.9365
 Frc consts  --      0.0184                 0.0209                 0.0699
 IR Inten    --      0.2843                 0.4815                 1.3169

                      7                      8                      9
                      A                      A                      A
 Frequencies --    252.6905               300.0464               346.0298
 Red. masses --      2.0602                 3.0318                 2.1914
 Frc consts  --      0.0775                 0.1608                 0.1546
 IR Inten    --      6.4781                 1.6650                 1.6806

                     10                     11                     12
                      A                      A                      A
 Frequencies --    406.8139               414.8878               506.6859
 Red. masses --      1.7435                 3.2078                 3.2852
 Frc consts  --      0.1700                 0.3253                 0.4969
 IR Inten    --      0.2860                 2.8104                 3.0234

                     13                     14                     15
                      A                      A                      A
 Frequencies --    612.4039               645.0352               708.3155
 Red. masses --      2.1674                 2.0112                 2.7670
 Frc consts  --      0.4789                 0.4930                 0.8179
 IR Inten    --      1.0371                 6.4628                 1.1190

                     16                     17                     18
                      A                      A                      A
 Frequencies --    771.8162               801.3047               825.8862
 Red. masses --      1.5077                 1.3216                 2.2713
 Frc consts  --      0.5292                 0.5000                 0.9128
 IR Inten    --      0.5714                 1.4063                33.8294

                     19                     20                     21
                      A                      A                      A
 Frequencies --    843.9268               865.7860               894.9917
 Red. masses --      1.5883                 2.3834                 2.1220
 Frc consts  --      0.6665                 1.0526                 1.0015
 IR Inten    --     85.8082                20.4109                 0.6008

                     22                     23                     24
                      A                      A                      A
 Frequencies --    915.5262               920.9482               941.6884
 Red. masses --      1.8581                 2.1917                 2.1948
 Frc consts  --      0.9176                 1.0952                 1.1467
 IR Inten    --      3.7712                13.1482                 0.3580

                     25                     26                     27
                      A                      A                      A
 Frequencies --    949.1093               963.7028               986.6809
 Red. masses --      2.2762                 2.8650                 1.5325
 Frc consts  --      1.2081                 1.5677                 0.8790
 IR Inten    --      1.1801                 5.8983                 1.7420

                     28                     29                     30
                      A                      A                      A
 Frequencies --    988.8092              1024.5299              1050.5019
 Red. masses --      1.6917                 1.4591                 1.9249
 Frc consts  --      0.9745                 0.9024                 1.2515
 IR Inten    --      1.8739                 1.7543                 5.5728

                     31                     32                     33
                      A                      A                      A
 Frequencies --   1076.9541              1101.0574              1113.3192
 Red. masses --      2.3604                 1.9670                 4.5419
 Frc consts  --      1.6130                 1.4050                 3.3169
 IR Inten    --     11.0934                15.1296                28.5494

                     34                     35                     36
                      A                      A                      A
 Frequencies --   1120.9236              1151.7465              1184.6995
 Red. masses --      2.3963                 4.9023                 1.9586
 Frc consts  --      1.7739                 3.8315                 1.6196
 IR Inten    --      4.1550               180.7669                 3.1206

                     37                     38                     39
                      A                      A                      A
 Frequencies --   1212.2642              1218.3204              1224.2755
 Red. masses --      1.4274                 1.3076                 1.4200
 Frc consts  --      1.2359                 1.1435                 1.2540
 IR Inten    --     34.1283                 0.3620                 6.6800

                     40                     41                     42
                      A                      A                      A
 Frequencies --   1254.9249              1271.2812              1277.7046
 Red. masses --      1.3469                 1.3286                 1.1816
 Frc consts  --      1.2498                 1.2651                 1.1365
 IR Inten    --      6.2944                 0.0449                 1.7589

                     43                     44                     45
                      A                      A                      A
 Frequencies --   1290.5624              1296.3614              1303.7812
 Red. masses --      1.4276                 1.4869                 1.3809
 Frc consts  --      1.4010                 1.4723                 1.3830
 IR Inten    --      2.5314                 2.1664                 7.9056

                     46                     47                     48
                      A                      A                      A
 Frequencies --   1319.6430              1323.5910              1331.9562
 Red. masses --      1.2278                 1.3398                 1.2797
 Frc consts  --      1.2598                 1.3829                 1.3377
 IR Inten    --      1.1096                 2.3378                 9.2260

                     49                     50                     51
                      A                      A                      A
 Frequencies --   1359.4921              1377.2964              1384.4758
 Red. masses --      1.2866                 1.3285                 1.3569
 Frc consts  --      1.4010                 1.4848                 1.5324
 IR Inten    --      4.0622                 9.1290                 1.0916

                     52                     53                     54
                      A                      A                      A
 Frequencies --   1413.6414              1439.7404              1486.4439
 Red. masses --      1.3113                 1.3450                 1.1403
 Frc consts  --      1.5439                 1.6427                 1.4845
 IR Inten    --     38.5193                 7.1868                 7.1841

                     55                     56                     57
                      A                      A                      A
 Frequencies --   1506.0067              1508.1819              1512.9823
 Red. masses --      1.1023                 1.0903                 1.0884
 Frc consts  --      1.4730                 1.4611                 1.4680
 IR Inten    --      3.6750                 0.5997                 0.1304

                     58                     59                     60
                      A                      A                      A
 Frequencies --   1516.5055              1517.6968              1531.9809
 Red. masses --      1.0799                 1.0863                 1.0985
 Frc consts  --      1.4633                 1.4743                 1.5190
 IR Inten    --      1.5358                 2.7450                 1.3138

                     61                     62                     63
                      A                      A                      A
 Frequencies --   1541.9084              2969.4521              3029.6740
 Red. masses --      1.1366                 1.0702                 1.0831
 Frc consts  --      1.5921                 5.5598                 5.8574
 IR Inten    --      0.9308                44.3537                24.0922

                     64                     65                     66
                      A                      A                      A
 Frequencies --   3051.9147              3053.6942              3058.0351
 Red. masses --      1.0718                 1.0623                 1.0682
 Frc consts  --      5.8819                 5.8364                 5.8853
 IR Inten    --     24.5950                36.9577                32.5939

                     67                     68                     69
                      A                      A                      A
 Frequencies --   3059.6277              3066.5137              3069.1485
 Red. masses --      1.0640                 1.0795                 1.0630
 Frc consts  --      5.8685                 5.9811                 5.8997
 IR Inten    --     59.1631                29.7438                47.3958

                     70                     71                     72
                      A                      A                      A
 Frequencies --   3072.1308              3076.1195              3109.5119
 Red. masses --      1.0604                 1.0912                 1.1040
 Frc consts  --      5.8967                 6.0837                 6.2892
 IR Inten    --     36.9999                36.7706                19.6545

                     73                     74                     75
                      A                      A                      A
 Frequencies --   3117.6946              3118.2055              3121.4547
 Red. masses --      1.1050                 1.1025                 1.1048
 Frc consts  --      6.3282                 6.3161                 6.3423
 IR Inten    --     18.3836                18.3383                60.1474

                     76                     77                     78
                      A                      A                      A
 Frequencies --   3129.9847              3132.9179              3473.0103
 Red. masses --      1.0991                 1.1048                 1.0746
 Frc consts  --      6.3442                 6.3888                 7.6367
 IR Inten    --     25.9778                60.7098                 2.8455

 - Thermochemistry -
 -------------------
 Temperature   298.150 Kelvin.  Pressure   1.00000 Atm.
 Atom     1 has atomic number  6 and mass  12.00000

 Molecular mass:   155.13101 amu.
 Principal axes and moments of inertia in atomic units:
                           1         2         3
     Eigenvalues --   688.126133256.269913668.70604
           X            0.99999   0.00418  -0.00288
           Y           -0.00417   0.99999   0.00280
           Z            0.00289  -0.00279   0.99999
 This molecule is an asymmetric top.
 Rotational symmetry number  1.
 Warning -- assumption of classical behavior for rotation
           may cause significant error
 Rotational temperatures (Kelvin)      0.12587     0.02660     0.02361
 Rotational constants (GHZ):           2.62269     0.55424     0.49193
 Zero-point vibrational energy     672339.9 (Joules/Mol)
                                  160.69310 (Kcal/Mol)
 Warning -- explicit consideration of  13 degrees of freedom as
           vibrations may cause significant error
 Vibrational temperatures:     56.94    73.54   109.68   133.31   185.45
          (Kelvin)            289.28   363.57   431.70   497.86   585.31
                              596.93   729.01   881.11   928.06  1019.11
                             1110.47  1152.90  1188.27  1214.22  1245.67
                             1287.69  1317.24  1325.04  1354.88  1365.56
                             1386.55  1419.61  1422.68  1474.07  1511.44
                             1549.50  1584.18  1601.82  1612.76  1657.11
                             1704.52  1744.18  1752.89  1761.46  1805.56
                             1829.09  1838.33  1856.83  1865.17  1875.85
                             1898.67  1904.35  1916.39  1956.01  1981.62
                             1991.95  2033.91  2071.47  2138.66  2166.81
                             2169.94  2176.84  2181.91  2183.63  2204.18
                             2218.46  4272.38  4359.03  4391.02  4393.58
                             4399.83  4402.12  4412.03  4415.82  4420.11
                             4425.85  4473.89  4485.67  4486.40  4491.08
                             4503.35  4507.57  4996.89

 Zero-point correction=                           0.256081 (Hartree/Particle)
 Thermal correction to Energy=                    0.267013
 Thermal correction to Enthalpy=                  0.267958
 Thermal correction to Gibbs Free Energy=         0.218023
 Sum of electronic and zero-point Energies=           -482.901764
 Sum of electronic and thermal Energies=              -482.890831
 Sum of electronic and thermal Enthalpies=            -482.889887
 Sum of electronic and thermal Free Energies=         -482.939821

                     E (Thermal)             CV                S
                      KCal/Mol        Cal/Mol-Kelvin    Cal/Mol-Kelvin
 Total                  167.553             41.412            105.096
 Electronic               0.000              0.000              0.000
 Translational            0.889              2.981             41.027
 Rotational               0.889              2.981             30.487
 Vibrational            165.776             35.450             33.582
 Vibration     1          0.594              1.981              5.280
 Vibration     2          0.595              1.977              4.774
 Vibration     3          0.599              1.965              3.986
 Vibration     4          0.602              1.954              3.603
 Vibration     5          0.611              1.924              2.962
 Vibration     6          0.638              1.838              2.123
 Vibration     7          0.664              1.758              1.712
 Vibration     8          0.693              1.674              1.417
 Vibration     9          0.724              1.583              1.184
 Vibration    10          0.772              1.455              0.938
 Vibration    11          0.778              1.438              0.910
 Vibration    12          0.862              1.235              0.642
 Vibration    13          0.972              1.006              0.429

 Optimization completed.
    -- Stationary point found.
 Normal termination of Gaussian 16 at Tue Dec  8 19:35:45 2020.

 ----------------------------------------------------------------------
 # B3LYP/6-311++G(d,p) empiricaldispersion=gd3bj scf=xqc pop=npa geom=c
 heck
 ----------------------------------------------------------------------

 --------------------------------------
 CID_53409350_JID_1230_Energie_neutraal
 --------------------------------------
 Structure from the checkpoint file:  "JID_1230.chk"
 Charge =  0 Multiplicity = 1

 SCF Done:  E(RB3LYP) =  -483.296019186     A.U. after   13 cycles
 Normal termination of Gaussian 16 at Tue Dec  8 19:37:48 2020.

 ----------------------------------------------------------------------
 # B3LYP/6-311++G(d,p) empiricaldispersion=gd3bj scf=xqc pop=npa geom=c
 heck
 ----------------------------------------------------------------------

 ------------------------------------
 CID_53409350_JID_1230_Energie_kation
 ------------------------------------
 Structure from the checkpoint file:  "JID_1230.chk"
 Charge =  1 Multiplicity = 2

 SCF Done:  E(UB3LYP) =  -482.993100548     A.U. after   19 cycles
 Normal termination of Gaussian 16 at Tue Dec  8 19:41:45 2020.
 Gaussian 16:  ES64L-G16RevA.03 25-Dec-2016

 ----------------------------------------------------------------------
 # B3LYP/6-311++G(d,p) empiricaldispersion=gd3bj scf=xqc pop=npa geom=c
 heck
 ----------------------------------------------------------------------

 -----------------------------------
 CID_53409350_JID_1230_Energie_anion
 -----------------------------------
 Structure from the checkpoint file:  "JID_1230.chk"
 Charge = -1 Multiplicity = 2

                         Standard orientation:
 ---------------------------------------------------------------------
 Center     Atomic      Atomic             Coordinates (Angstroms)
 Number     Number       Type             X           Y           Z
 ---------------------------------------------------------------------
      1          6           0        3.519030    0.972930    0.166071
      2          6           0        3.361123   -0.507699   -0.265329
      3          6           0        1.837978   -0.257312   -0.451764
      4          6           0        1.990985    1.022054    0.422172
      5          6           0        0.916286   -1.388887   -0.019198
      6          8           0       -0.459595   -1.210665   -0.306688
      7          6           0       -1.169783   -0.313792    0.544359
      8          6           0       -2.623887   -0.805843    0.651791
      9          6           0       -3.338065   -0.004386   -0.449295
     10          7           0       -2.740811    1.340129   -0.394096
     11          6           0       -1.314276    1.107073   -0.097176
     12          1           0        3.808315    1.610690   -0.675460
     13          1           0        4.182943    1.187389    1.009035
     14          1           0        3.928029   -0.856397   -1.134011
     15          1           0        3.549348   -1.193160    0.570280
     16          1           0        1.613967    0.009168   -1.491141
     17          1           0        1.748189    0.817734    1.471958
     18          1           0        1.454114    1.920860    0.108393
     19          1           0        1.204407   -2.302325   -0.553922
     20          1           0        1.056412   -1.580507    1.059498
     21          1           0       -0.674927   -0.278261    1.524176
     22          1           0       -3.039109   -0.535020    1.631205
     23          1           0       -2.676136   -1.892155    0.540908
     24          1           0       -3.123904   -0.443993   -1.431349
     25          1           0       -4.424390    0.051787   -0.333084
     26          1           0       -3.155966    1.830373    0.397241
     27          1           0       -0.924446    1.906955    0.538836
     28          1           0       -0.740760    1.106466   -1.030175
 ---------------------------------------------------------------------

 SCF Done:  E(UB3LYP) =  -483.279840897     A.U. after   30 cycles

 The electronic state is 2-A.
 Alpha  occ. eigenvalues --  -19.01678 -14.18773 -10.11278 -10.11208 -10.08269
 Alpha  occ. eigenvalues --  -10.07811 -10.07217 -10.06825 -10.06562 -10.06249
 Alpha  occ. eigenvalues --  -10.05638  -0.93072  -0.80737  -0.74708  -0.65865
 Alpha  occ. eigenvalues --   -0.61881  -0.59657  -0.55941  -0.51835  -0.49690
 Alpha  occ. eigenvalues --   -0.46641  -0.45008  -0.41101  -0.39187  -0.38100
 Alpha  occ. eigenvalues --   -0.36976  -0.35418  -0.33747  -0.32135  -0.29369
 Alpha  occ. eigenvalues --   -0.28819  -0.28071  -0.27139  -0.25753  -0.24554
 Alpha  occ. eigenvalues --   -0.24235  -0.23871  -0.23017  -0.21470  -0.20543
 Alpha  occ. eigenvalues --   -0.19822  -0.15396  -0.12316   0.04752
 Alpha virt. eigenvalues --    0.06501   0.07716   0.08008   0.08889   0.09294
 Alpha virt. eigenvalues --    0.09652   0.10703   0.11075   0.11513   0.11737
 Alpha virt. eigenvalues --    0.11973   0.12942   0.13534   0.14894   0.15080

  Beta  occ. eigenvalues --  -19.01671 -14.18747 -10.11264 -10.11198 -10.08255
  Beta  occ. eigenvalues --  -10.07797 -10.07215 -10.06806 -10.06537 -10.06228
  Beta  occ. eigenvalues --  -10.05613  -0.93058  -0.80689  -0.74686  -0.65822
  Beta  occ. eigenvalues --   -0.61841  -0.59621  -0.55887  -0.51786  -0.49622
  Beta  occ. eigenvalues --   -0.46599  -0.44948  -0.41037  -0.39149  -0.38048
  Beta  occ. eigenvalues --   -0.36944  -0.35381  -0.33715  -0.32096  -0.29336
  Beta  occ. eigenvalues --   -0.28786  -0.28033  -0.27100  -0.25716  -0.24513
  Beta  occ. eigenvalues --   -0.24203  -0.23837  -0.22976  -0.21436  -0.20510
  Beta  occ. eigenvalues --   -0.19782  -0.15370  -0.12286
  Beta virt. eigenvalues --    0.07023   0.07739   0.08307   0.08362   0.09500
  Beta virt. eigenvalues --    0.09709   0.10125   0.11067   0.11456   0.11920
  Beta virt. eigenvalues --    0.12066   0.12339   0.13236   0.13839   0.15341

 Mulliken charges and spin densities:
               1          2
     1  C    0.306383  -0.690786
     2  C    0.522419  -1.082811
     3  C   -1.610347   2.161606
     4  C    0.640363  -0.994870
     5  C    0.964862  -1.535169
     6  O   -0.065140   0.023381
     7  C   -0.217976   0.351282
     8  C   -0.335681  -0.120212
     9  C    0.398156  -0.690290
    10  N   -0.272903   0.265197
    11  C    0.260518  -0.994764
    12  H   -0.039803   0.171834
    13  H   -0.464649   0.610094
    14  H   -0.223359   0.358653
    15  H   -0.058073   0.185453
    16  H    0.097947   0.081604
    17  H   -0.322635   0.502329
    18  H    0.226479  -0.116457
    19  H    0.102615   0.032244
    20  H   -0.206601   0.371552
    21  H    0.163485  -0.026644
    22  H   -0.442666   0.600088
    23  H    0.047987   0.092870
    24  H    0.173215  -0.042891
    25  H   -0.257577   0.442136
    26  H   -0.179132   0.431949
    27  H   -0.348217   0.513950
    28  H    0.140331   0.098673
 Sum of Mulliken charges =  -1.00000   1.00000

 Dipole moment (field-independent basis, Debye):
    X=              0.9481    Y=             -3.0330    Z=             -4.0364  Tot=              5.1372
 Quadrupole moment (field-independent basis, Debye-Ang):
   XX=           -150.6269   YY=           -103.0960   ZZ=           -104.3748
   XY=              5.8252   XZ=              1.4947   YZ=             -2.4220

 Summary of Natural Population Analysis:

                                       Natural Population
                Natural  -----------------------------------------------
    Atom  No    Charge         Core      Valence    Rydberg      Total
 -----------------------------------------------------------------------
      C    1   -0.18827      0.99965     2.18037    0.00825     3.18827
      C    2   -0.18694      0.99963     2.17873    0.00858     3.18694
      C    3   -0.12439      0.99960     2.11449    0.01030     3.12439
      C    4   -0.19018      0.99963     2.18136    0.00919     3.19018
      C    5   -0.00240      0.99953     1.99024    0.01263     3.00240
      O    6   -0.30638      0.99988     3.29763    0.00888     4.30638
      C    7    0.05291      0.99955     1.93180    0.01574     2.94709
      C    8   -0.20794      0.99961     2.19867    0.00965     3.20794
      C    9   -0.09133      0.99964     2.08041    0.01128     3.09133
      N   10   -0.33635      0.99977     2.82354    0.01304     3.83635
      C   11   -0.10522      0.99962     2.09369    0.01192     3.10522
      H   12    0.09350      0.00000     0.40533    0.00118     0.40650
      H   13    0.09718      0.00000     0.40121    0.00160     0.40282
      H   14    0.09542      0.00000     0.40356    0.00102     0.40458
      H   15    0.09617      0.00000     0.40236    0.00147     0.40383
      H   16    0.09737      0.00000     0.40137    0.00126     0.40263
      H   17    0.09885      0.00000     0.39913    0.00201     0.40115
      H   18    0.09903      0.00000     0.39962    0.00136     0.40097
      H   19    0.08720      0.00000     0.41165    0.00115     0.41280
      H   20    0.07824      0.00000     0.42019    0.00158     0.42176
      H   21    0.08850      0.00000     0.40922    0.00228     0.41150
      H   22    0.10125      0.00000     0.39608    0.00267     0.39875
      H   23    0.10416      0.00000     0.39468    0.00116     0.39584
      H   24    0.08753      0.00000     0.41112    0.00135     0.41247
      H   25    0.09561      0.00000     0.40326    0.00112     0.40439
      H   26    0.17314      0.00000     0.32201    0.00485     0.32686
      H   27    0.09960      0.00000     0.39892    0.00148     0.40040
      H   28    0.09374      0.00000     0.40464    0.00162     0.40626
 =======================================================================
   * Total *    0.00000     10.99610    31.85528    0.14862    43.00000

 Normal termination of Gaussian 16 at Tue Dec  8 19:48:07 2020.
