 Gaussian 16, Revision A.03,

 -----------------------------------------------------------
 # opt freq B3LYP/6-31G(d) empiricaldispersion=gd3bj scf=xqc
 -----------------------------------------------------------

 ------------------------------
 CID_13424806_JID_3722_neutraal
 ------------------------------
 Symbolic Z-matrix:
 Charge =  0 Multiplicity = 1

 SCF Done:  E(RB3LYP) =  -933.182261242     A.U. after   15 cycles
 SCF Done:  E(RB3LYP) =  -933.186143864     A.U. after   12 cycles
 SCF Done:  E(RB3LYP) =  -933.186650908     A.U. after   12 cycles
 SCF Done:  E(RB3LYP) =  -933.186649511     A.U. after   11 cycles
 SCF Done:  E(RB3LYP) =  -933.186687607     A.U. after   11 cycles
 SCF Done:  E(RB3LYP) =  -933.186706192     A.U. after   10 cycles
 SCF Done:  E(RB3LYP) =  -933.186713167     A.U. after   10 cycles
 SCF Done:  E(RB3LYP) =  -933.186714869     A.U. after    9 cycles
 SCF Done:  E(RB3LYP) =  -933.186716286     A.U. after    8 cycles
 SCF Done:  E(RB3LYP) =  -933.186716858     A.U. after    8 cycles
 SCF Done:  E(RB3LYP) =  -933.186716999     A.U. after    8 cycles
 SCF Done:  E(RB3LYP) =  -933.186717056     A.U. after    7 cycles
 Optimization completed.
    -- Stationary point found.
 Normal termination of Gaussian 16 at Sun Dec 13 12:19:36 2020.

 --------------------------------------------------------------------
 #N Geom=AllCheck Guess=TCheck SCRF=Check GenChk RB3LYP/6-31G(d) Freq
 --------------------------------------------------------------------

 Structure from the checkpoint file:  "JID_3722.chk"
 ------------------------------
 CID_13424806_JID_3722_neutraal
 ------------------------------
 Charge =  0 Multiplicity = 1

 SCF Done:  E(RB3LYP) =  -933.186717056     A.U. after    1 cycles

  Exact polarizability: 147.126   7.672 130.809   2.732  -4.243  81.771
 Approx polarizability: 215.165   5.078 211.326   4.071 -18.732 133.967

                      1                      2                      3
                      A                      A                      A
 Frequencies --     58.3851                72.5131                76.2156
 Red. masses --      6.5126                 1.1391                 4.0288
 Frc consts  --      0.0131                 0.0035                 0.0138
 IR Inten    --      2.1066                 0.5305                 1.4067

                      4                      5                      6
                      A                      A                      A
 Frequencies --    110.5172               151.3347               197.0233
 Red. masses --      4.8371                 3.1929                 3.0712
 Frc consts  --      0.0348                 0.0431                 0.0702
 IR Inten    --      0.5299                 2.6397                 1.9264

                      7                      8                      9
                      A                      A                      A
 Frequencies --    241.1963               273.5631               328.1143
 Red. masses --      2.9557                 4.2033                 3.7364
 Frc consts  --      0.1013                 0.1853                 0.2370
 IR Inten    --      0.8094                11.6453                 0.4024

                     10                     11                     12
                      A                      A                      A
 Frequencies --    337.9318               359.8347               394.9197
 Red. masses --      2.2201                 5.2610                 4.6871
 Frc consts  --      0.1494                 0.4014                 0.4307
 IR Inten    --      5.8865                 3.3433                 2.1837

                     13                     14                     15
                      A                      A                      A
 Frequencies --    436.1916               457.4478               503.0313
 Red. masses --      2.7625                 1.8099                 2.1906
 Frc consts  --      0.3097                 0.2231                 0.3266
 IR Inten    --     14.5179               107.2307               115.3008

                     16                     17                     18
                      A                      A                      A
 Frequencies --    536.0392               551.8904               575.6080
 Red. masses --      3.8870                 4.6652                 2.1937
 Frc consts  --      0.6581                 0.8372                 0.4282
 IR Inten    --     21.6364                 0.4085                42.8178

                     19                     20                     21
                      A                      A                      A
 Frequencies --    629.3366               650.0231               665.5372
 Red. masses --      3.7307                 2.9280                 3.9493
 Frc consts  --      0.8706                 0.7289                 1.0307
 IR Inten    --     15.1647                 3.9220                 4.3434

                     22                     23                     24
                      A                      A                      A
 Frequencies --    689.6403               724.5059               773.6846
 Red. masses --      2.2924                 3.3212                 2.9967
 Frc consts  --      0.6424                 1.0271                 1.0569
 IR Inten    --      3.8992                 3.3051                 3.8586

                     25                     26                     27
                      A                      A                      A
 Frequencies --    841.0925               870.0308               899.2793
 Red. masses --      3.1163                 3.2926                 1.8116
 Frc consts  --      1.2989                 1.4685                 0.8632
 IR Inten    --      1.5279                 6.1867                 3.0991

                     28                     29                     30
                      A                      A                      A
 Frequencies --    918.5297               998.3751              1022.1115
 Red. masses --      2.2790                 2.3762                 1.9364
 Frc consts  --      1.1329                 1.3955                 1.1919
 IR Inten    --     10.4997                 3.4121                 9.0069

                     31                     32                     33
                      A                      A                      A
 Frequencies --   1044.2599              1063.4860              1088.9162
 Red. masses --      3.0914                 1.4104                 1.7986
 Frc consts  --      1.9862                 0.9398                 1.2565
 IR Inten    --      5.9938                 0.8563                 0.4157

                     34                     35                     36
                      A                      A                      A
 Frequencies --   1114.1483              1151.6716              1172.3309
 Red. masses --      2.0087                 1.6333                 2.0926
 Frc consts  --      1.4691                 1.2763                 1.6945
 IR Inten    --      0.8268                 3.0551                 4.0162

                     37                     38                     39
                      A                      A                      A
 Frequencies --   1196.8126              1213.1098              1219.4981
 Red. masses --      1.6838                 2.9433                 1.6476
 Frc consts  --      1.4210                 2.5520                 1.4436
 IR Inten    --     10.9352                42.8414                 1.5740

                     40                     41                     42
                      A                      A                      A
 Frequencies --   1260.4618              1300.5786              1308.1427
 Red. masses --      1.5656                 1.5806                 1.3890
 Frc consts  --      1.4655                 1.5752                 1.4004
 IR Inten    --     10.8972                 1.6945                30.8056

                     43                     44                     45
                      A                      A                      A
 Frequencies --   1359.6805              1378.1247              1386.3467
 Red. masses --      2.4406                 1.6796                 1.7235
 Frc consts  --      2.6584                 1.8794                 1.9516
 IR Inten    --     45.5293                17.8107                15.7626

                     46                     47                     48
                      A                      A                      A
 Frequencies --   1394.4574              1408.4939              1435.2391
 Red. masses --      1.8705                 1.6166                 1.2724
 Frc consts  --      2.1430                 1.8896                 1.5443
 IR Inten    --     16.3687                 5.8981                 1.2777

                     49                     50                     51
                      A                      A                      A
 Frequencies --   1503.2681              1505.0331              1506.7970
 Red. masses --      1.1236                 1.1602                 1.0497
 Frc consts  --      1.4960                 1.5484                 1.4042
 IR Inten    --     10.6096                17.8268                 8.5192

                     52                     53                     54
                      A                      A                      A
 Frequencies --   1512.6374              1528.7437              1570.7203
 Red. masses --      1.0998                 1.0935                 4.7095
 Frc consts  --      1.4826                 1.5057                 6.8458
 IR Inten    --      4.8889                 4.1965                27.2409

                     55                     56                     57
                      A                      A                      A
 Frequencies --   1611.9914              1657.4757              1801.2299
 Red. masses --      6.1913                 1.2721                 9.1693
 Frc consts  --      9.4788                 2.0590                17.5278
 IR Inten    --     44.1896               115.3646               281.7632

                     58                     59                     60
                      A                      A                      A
 Frequencies --   3024.4027              3035.9516              3052.6779
 Red. masses --      1.0679                 1.0804                 1.0728
 Frc consts  --      5.7550                 5.8674                 5.8901
 IR Inten    --     28.2189                10.6548                34.4689

                     61                     62                     63
                      A                      A                      A
 Frequencies --   3056.4923              3064.9663              3075.6570
 Red. masses --      1.0369                 1.0686                 1.0868
 Frc consts  --      5.7073                 5.9145                 6.0571
 IR Inten    --     19.6906                16.4109                37.5872

                     64                     65                     66
                      A                      A                      A
 Frequencies --   3111.8177              3112.9575              3134.0296
 Red. masses --      1.1016                 1.1032                 1.0948
 Frc consts  --      6.2850                 6.2989                 6.3359
 IR Inten    --      9.4398                33.1810                12.7319

                     67                     68                     69
                      A                      A                      A
 Frequencies --   3155.7984              3522.1690              3672.4295
 Red. masses --      1.1011                 1.0502                 1.1002
 Frc consts  --      6.4612                 7.6761                 8.7424
 IR Inten    --      5.4258                91.0305                74.3154

 - Thermochemistry -
 -------------------
 Temperature   298.150 Kelvin.  Pressure   1.00000 Atm.
 Atom     1 has atomic number  6 and mass  12.00000

 Molecular mass:   196.06703 amu.
 Principal axes and moments of inertia in atomic units:
                           1         2         3
     Eigenvalues --  1640.652553043.340244293.96338
           X            0.99773   0.06722   0.00414
           Y           -0.06723   0.99773   0.00266
           Z           -0.00395  -0.00293   0.99999
 This molecule is an asymmetric top.
 Rotational symmetry number  1.
 Warning -- assumption of classical behavior for rotation
           may cause significant error
 Rotational temperatures (Kelvin)      0.05279     0.02846     0.02017
 Rotational constants (GHZ):           1.10001     0.59301     0.42030
 Zero-point vibrational energy     538659.9 (Joules/Mol)
                                  128.74281 (Kcal/Mol)
 Warning -- explicit consideration of  18 degrees of freedom as
           vibrations may cause significant error
 Vibrational temperatures:     84.00   104.33   109.66   159.01   217.74
          (Kelvin)            283.47   347.03   393.60   472.08   486.21
                              517.72   568.20   627.58   658.17   723.75
                              771.24   794.05   828.17   905.48   935.24
                              957.56   992.24  1042.40  1113.16  1210.14
                             1251.78  1293.86  1321.56  1436.44  1470.59
                             1502.46  1530.12  1566.71  1603.01  1657.00
                             1686.72  1721.95  1745.39  1754.59  1813.52
                             1871.24  1882.13  1956.28  1982.81  1994.64
                             2006.31  2026.51  2064.99  2162.87  2165.41
                             2167.94  2176.35  2199.52  2259.92  2319.30
                             2384.74  2591.57  4351.44  4368.06  4392.12
                             4397.61  4409.80  4425.18  4477.21  4478.85
                             4509.17  4540.49  5067.62  5283.81

 Zero-point correction=                           0.205165 (Hartree/Particle)
 Thermal correction to Energy=                    0.217329
 Thermal correction to Enthalpy=                  0.218273
 Thermal correction to Gibbs Free Energy=         0.166409
 Sum of electronic and zero-point Energies=           -932.981552
 Sum of electronic and thermal Energies=              -932.969388
 Sum of electronic and thermal Enthalpies=            -932.968444
 Sum of electronic and thermal Free Energies=         -933.020308

                     E (Thermal)             CV                S
                      KCal/Mol        Cal/Mol-Kelvin    Cal/Mol-Kelvin
 Total                  136.376             46.545            109.156
 Electronic               0.000              0.000              0.000
 Translational            0.889              2.981             41.725
 Rotational               0.889              2.981             31.439
 Vibrational            134.599             40.583             35.992
 Vibration     1          0.596              1.974              4.511
 Vibration     2          0.599              1.967              4.084
 Vibration     3          0.599              1.965              3.986
 Vibration     4          0.606              1.941              3.260
 Vibration     5          0.619              1.901              2.655
 Vibration     6          0.636              1.844              2.161
 Vibration     7          0.658              1.777              1.794
 Vibration     8          0.676              1.722              1.574
 Vibration     9          0.711              1.619              1.269
 Vibration    10          0.718              1.600              1.222
 Vibration    11          0.734              1.555              1.123
 Vibration    12          0.762              1.481              0.982
 Vibration    13          0.797              1.391              0.839
 Vibration    14          0.816              1.344              0.774
 Vibration    15          0.858              1.243              0.651
 Vibration    16          0.891              1.170              0.574
 Vibration    17          0.907              1.136              0.540
 Vibration    18          0.932              1.084              0.494

                           ! Non-Optimized Parameters !
 Normal termination of Gaussian 16 at Sun Dec 13 12:25:41 2020.

 ----------------------------------------------------------------------
 # B3LYP/6-311++G(d,p) empiricaldispersion=gd3bj scf=xqc pop=npa geom=c
 heck
 ----------------------------------------------------------------------

 --------------------------------------
 CID_13424806_JID_3722_Energie_neutraal
 --------------------------------------
 Structure from the checkpoint file:  "JID_3722.chk"
 Charge =  0 Multiplicity = 1

 SCF Done:  E(RB3LYP) =  -933.365270774     A.U. after   16 cycles
 Normal termination of Gaussian 16 at Sun Dec 13 12:28:05 2020.

 ----------------------------------------------------------------------
 # B3LYP/6-311++G(d,p) empiricaldispersion=gd3bj scf=xqc pop=npa geom=c
 heck
 ----------------------------------------------------------------------

 ------------------------------------
 CID_13424806_JID_3722_Energie_kation
 ------------------------------------
 Structure from the checkpoint file:  "JID_3722.chk"
 Charge =  1 Multiplicity = 2

 SCF Done:  E(UB3LYP) =  -933.066529189     A.U. after   25 cycles
 Normal termination of Gaussian 16 at Sun Dec 13 12:33:01 2020.
 Gaussian 16:  ES64L-G16RevA.03 25-Dec-2016

 ----------------------------------------------------------------------
 # B3LYP/6-311++G(d,p) empiricaldispersion=gd3bj scf=xqc pop=npa geom=c
 heck
 ----------------------------------------------------------------------

 -----------------------------------
 CID_13424806_JID_3722_Energie_anion
 -----------------------------------
 Structure from the checkpoint file:  "JID_3722.chk"
 Charge = -1 Multiplicity = 2

                         Standard orientation:
 ---------------------------------------------------------------------
 Center     Atomic      Atomic             Coordinates (Angstroms)
 Number     Number       Type             X           Y           Z
 ---------------------------------------------------------------------
      1          6           0       -3.489017   -1.426324    0.099694
      2          6           0       -2.240116   -0.602879    0.119097
      3          7           0       -1.074302   -1.042270    0.498689
      4          6           0       -0.099290   -0.061514    0.410725
      5          6           0       -0.515179    1.152324   -0.057115
      6         16           0       -2.229733    1.084944   -0.388418
      7          6           0        0.362056    2.352646   -0.254876
      8          6           0        1.837480    1.913853   -0.247336
      9          6           0        2.135808    0.952388    0.910380
     10          6           0        1.329744   -0.351640    0.796878
     11          6           0        1.987344   -1.339499   -0.197279
     12          8           0        3.044749   -1.099694   -0.764225
     13          7           0        1.309830   -2.513955   -0.340034
     14          1           0       -4.263405   -0.996913    0.745279
     15          1           0       -3.250512   -2.430073    0.459000
     16          1           0       -3.904570   -1.502198   -0.911587
     17          1           0        0.181215    3.081898    0.548268
     18          1           0        0.118826    2.861641   -1.195235
     19          1           0        2.479500    2.798924   -0.178017
     20          1           0        2.079174    1.411116   -1.189807
     21          1           0        3.199750    0.706335    0.923495
     22          1           0        1.887435    1.437369    1.863311
     23          1           0        1.317954   -0.862930    1.769356
     24          1           0        0.344602   -2.568282   -0.030141
     25          1           0        1.626097   -3.140988   -1.067033
 ---------------------------------------------------------------------

 SCF Done:  E(UB3LYP) =  -933.352474367     A.U. after   33 cycles
 SCF Done:  E(UB3LYP) =  -933.352474367     a.u. after    1 cycles

 The electronic state is 2-A.
 Alpha  occ. eigenvalues --  -88.75537 -18.99062 -14.22638 -14.19157 -10.17239
 Alpha  occ. eigenvalues --  -10.11165 -10.08603 -10.08348 -10.08052 -10.07183
 Alpha  occ. eigenvalues --  -10.06498 -10.06253 -10.06230  -7.84193  -5.80467
 Alpha  occ. eigenvalues --   -5.80124  -5.79790  -0.93879  -0.84578  -0.80299
 Alpha  occ. eigenvalues --   -0.72809  -0.68521  -0.65207  -0.63600  -0.58945
 Alpha  occ. eigenvalues --   -0.53907  -0.50036  -0.47332  -0.44694  -0.43531
 Alpha  occ. eigenvalues --   -0.40623  -0.37720  -0.37102  -0.34797  -0.33002
 Alpha  occ. eigenvalues --   -0.32918  -0.32399  -0.31906  -0.29719  -0.29007
 Alpha  occ. eigenvalues --   -0.27740  -0.26515  -0.26014  -0.25542  -0.23145
 Alpha  occ. eigenvalues --   -0.22617  -0.21370  -0.17876  -0.16689  -0.16353
 Alpha  occ. eigenvalues --   -0.15686  -0.11502   0.04962
 Alpha virt. eigenvalues --    0.06952   0.07420   0.08138   0.08769   0.09680
 Alpha virt. eigenvalues --    0.10347   0.10440   0.11055   0.11241   0.11963
 Alpha virt. eigenvalues --    0.12809   0.12840   0.13279   0.13547   0.14685

  Beta  occ. eigenvalues --  -88.75520 -18.99057 -14.22635 -14.19116 -10.17236
  Beta  occ. eigenvalues --  -10.10907 -10.08600 -10.08340 -10.07935 -10.07173
  Beta  occ. eigenvalues --  -10.06480 -10.06243 -10.06219  -7.84176  -5.80461
  Beta  occ. eigenvalues --   -5.80119  -5.79736  -0.93869  -0.84389  -0.80285
  Beta  occ. eigenvalues --   -0.72721  -0.68389  -0.65021  -0.63532  -0.58860
  Beta  occ. eigenvalues --   -0.53854  -0.49967  -0.47267  -0.44494  -0.43477
  Beta  occ. eigenvalues --   -0.40531  -0.37664  -0.37020  -0.34716  -0.32899
  Beta  occ. eigenvalues --   -0.32680  -0.32163  -0.31834  -0.29655  -0.28888
  Beta  occ. eigenvalues --   -0.27679  -0.26428  -0.25905  -0.25296  -0.23079
  Beta  occ. eigenvalues --   -0.22556  -0.21317  -0.17810  -0.16591  -0.16266
  Beta  occ. eigenvalues --   -0.15384  -0.10854
  Beta virt. eigenvalues --    0.07236   0.07763   0.08400   0.08696   0.09160
  Beta virt. eigenvalues --    0.09922   0.10792   0.10880   0.11218   0.11968
  Beta virt. eigenvalues --    0.12137   0.12919   0.13021   0.13393   0.13801

 Mulliken charges and spin densities:
               1          2
     1  C    3.113930  -3.182529
     2  C   -1.640896   1.872233
     3  N    0.036540   0.085862
     4  C   -1.597201  -0.623752
     5  C    0.380193   1.463765
     6  S   -0.084674  -0.401144
     7  C    0.484189  -0.787006
     8  C   -0.335765   0.083347
     9  C   -0.385609  -0.277589
    10  C    0.766335  -0.341115
    11  C   -0.177391  -0.044592
    12  O   -0.363222  -0.001643
    13  N   -0.349153   0.008927
    14  H   -0.676182   0.866254
    15  H   -0.282146   0.436831
    16  H   -0.012701   0.166539
    17  H   -0.438546   0.615725
    18  H    0.100558   0.040255
    19  H   -0.168793   0.338088
    20  H    0.144158   0.019344
    21  H    0.133831   0.061719
    22  H   -0.137659   0.289571
    23  H   -0.000980   0.254179
    24  H    0.317351  -0.037771
    25  H    0.173830   0.094502
 Sum of Mulliken charges =  -1.00000   1.00000

 Dipole moment (field-independent basis, Debye):
    X=              3.4268    Y=             -1.2796    Z=             -3.4048  Tot=              4.9973
 Quadrupole moment (field-independent basis, Debye-Ang):
   XX=           -155.7906   YY=           -123.3896   ZZ=           -107.1938
   XY=             -8.0239   XZ=             11.9128   YZ=             -2.3410

 Summary of Natural Population Analysis:

                                       Natural Population
                Natural  -----------------------------------------------
    Atom  No    Charge         Core      Valence    Rydberg      Total
 -----------------------------------------------------------------------
      C    1   -0.30888      0.99961     2.30254    0.00673     3.30888
      C    2    0.09166      0.99962     1.89175    0.01697     2.90834
      N    3   -0.27124      0.99962     2.75911    0.01252     3.77124
      C    4    0.05503      0.99937     1.93033    0.01526     2.94497
      C    5   -0.08692      0.99938     2.07570    0.01183     3.08692
      S    6    0.18407      4.99940     2.79896    0.01757     7.81593
      C    7   -0.20221      0.99958     2.19269    0.00994     3.20221
      C    8   -0.18624      0.99963     2.17750    0.00911     3.18624
      C    9   -0.18891      0.99963     2.17885    0.01043     3.18891
      C   10   -0.15656      0.99951     2.14551    0.01154     3.15656
      C   11    0.35029      0.99969     1.62678    0.02325     2.64971
      O   12   -0.32832      0.99987     3.32267    0.00577     4.32832
      N   13   -0.40910      0.99969     2.90247    0.00693     3.90910
      H   14    0.11495      0.00000     0.37856    0.00649     0.38505
      H   15    0.11123      0.00000     0.38701    0.00176     0.38877
      H   16    0.10323      0.00000     0.39575    0.00102     0.39677
      H   17    0.10717      0.00000     0.38897    0.00386     0.39283
      H   18    0.10098      0.00000     0.39807    0.00095     0.39902
      H   19    0.09870      0.00000     0.40032    0.00098     0.40130
      H   20    0.10095      0.00000     0.39771    0.00135     0.39905
      H   21    0.10819      0.00000     0.39075    0.00106     0.39181
      H   22    0.09877      0.00000     0.39995    0.00128     0.40123
      H   23    0.11508      0.00000     0.38308    0.00184     0.38492
      H   24    0.20964      0.00000     0.28772    0.00264     0.29036
      H   25    0.18840      0.00000     0.30950    0.00210     0.31160
 =======================================================================
   * Total *    0.00000     16.99460    34.82225    0.18315    52.00000

 Normal termination of Gaussian 16 at Sun Dec 13 12:39:32 2020.
