 Gaussian 16, Revision A.03,

 -----------------------------------------------------------
 # opt freq B3LYP/6-31G(d) empiricaldispersion=gd3bj scf=xqc
 -----------------------------------------------------------

 ------------------------------
 CID_69409762_JID_3351_neutraal
 ------------------------------
 Symbolic Z-matrix:
 Charge =  0 Multiplicity = 1

 SCF Done:  E(RB3LYP) =  -593.987268411     A.U. after   14 cycles
 SCF Done:  E(RB3LYP) =  -593.992460455     A.U. after   12 cycles
 SCF Done:  E(RB3LYP) =  -593.993405212     A.U. after   12 cycles
 SCF Done:  E(RB3LYP) =  -593.993551409     A.U. after   11 cycles
 SCF Done:  E(RB3LYP) =  -593.993588181     A.U. after   11 cycles
 SCF Done:  E(RB3LYP) =  -593.993604190     A.U. after   10 cycles
 SCF Done:  E(RB3LYP) =  -593.993606401     A.U. after    9 cycles
 SCF Done:  E(RB3LYP) =  -593.993606756     A.U. after    8 cycles
 SCF Done:  E(RB3LYP) =  -593.993606831     A.U. after    7 cycles
 Optimization completed.
    -- Stationary point found.
 Normal termination of Gaussian 16 at Wed Dec  9 22:56:43 2020.

 --------------------------------------------------------------------
 #N Geom=AllCheck Guess=TCheck SCRF=Check GenChk RB3LYP/6-31G(d) Freq
 --------------------------------------------------------------------

 Structure from the checkpoint file:  "JID_3351.chk"
 ------------------------------
 CID_69409762_JID_3351_neutraal
 ------------------------------
 Charge =  0 Multiplicity = 1

 SCF Done:  E(RB3LYP) =  -593.993606831     A.U. after    1 cycles

  Exact polarizability: 148.048   5.691  98.131  -4.318  14.386  93.332
 Approx polarizability: 207.077  12.875 153.560 -14.947  31.916 151.841

                      1                      2                      3
                      A                      A                      A
 Frequencies --     42.3416                69.7859               100.0151
 Red. masses --      3.8074                 5.1963                 2.6069
 Frc consts  --      0.0040                 0.0149                 0.0154
 IR Inten    --      0.2198                 0.7385                 5.9046

                      4                      5                      6
                      A                      A                      A
 Frequencies --    136.2833               186.2068               222.5911
 Red. masses --      4.3672                 3.8259                 1.1080
 Frc consts  --      0.0478                 0.0782                 0.0323
 IR Inten    --      1.4891                 0.4722                 0.1076

                      7                      8                      9
                      A                      A                      A
 Frequencies --    250.5981               288.9080               299.5428
 Red. masses --      3.1404                 3.1648                 1.0759
 Frc consts  --      0.1162                 0.1556                 0.0569
 IR Inten    --      0.5210                 0.3227                 0.0261

                     10                     11                     12
                      A                      A                      A
 Frequencies --    323.3009               333.1868               369.9700
 Red. masses --      4.0986                 3.4040                 3.5001
 Frc consts  --      0.2524                 0.2226                 0.2823
 IR Inten    --      3.1095                 0.7673                 4.0645

                     13                     14                     15
                      A                      A                      A
 Frequencies --    416.6273               443.4937               476.5807
 Red. masses --      2.9962                 3.8068                 3.6210
 Frc consts  --      0.3064                 0.4411                 0.4846
 IR Inten    --      0.2386                 0.9132                 0.8032

                     16                     17                     18
                      A                      A                      A
 Frequencies --    570.7066               614.5336               637.9631
 Red. masses --      3.4876                 3.5569                 6.3126
 Frc consts  --      0.6693                 0.7914                 1.5137
 IR Inten    --     16.3768                 5.6196                 0.4658

                     19                     20                     21
                      A                      A                      A
 Frequencies --    714.1910               739.7864               774.7284
 Red. masses --      1.7525                 4.6161                 2.1230
 Frc consts  --      0.5267                 1.4885                 0.7508
 IR Inten    --     29.6134                 0.5613                18.4679

                     22                     23                     24
                      A                      A                      A
 Frequencies --    809.2717               857.3533               860.1204
 Red. masses --      3.3559                 6.0359                 1.3728
 Frc consts  --      1.2949                 2.6140                 0.5984
 IR Inten    --      1.6348                38.6596                 3.7062

                     25                     26                     27
                      A                      A                      A
 Frequencies --    881.6865               925.2516               952.8877
 Red. masses --      6.3576                 1.5276                 1.7455
 Frc consts  --      2.9119                 0.7705                 0.9338
 IR Inten    --     16.5262                 4.0018                 1.6873

                     28                     29                     30
                      A                      A                      A
 Frequencies --    957.1505               971.4999               986.8989
 Red. masses --      2.1110                 1.3626                 3.9970
 Frc consts  --      1.1395                 0.7577                 2.2936
 IR Inten    --     27.3449                 1.3638                73.9887

                     31                     32                     33
                      A                      A                      A
 Frequencies --    996.7730              1019.7363              1023.0968
 Red. masses --      1.2531                 3.1716                 5.6725
 Frc consts  --      0.7336                 1.9431                 3.4983
 IR Inten    --      0.3876                11.1624                 1.7249

                     34                     35                     36
                      A                      A                      A
 Frequencies --   1036.4390              1063.3756              1113.6028
 Red. masses --      1.3913                 2.4356                 1.3092
 Frc consts  --      0.8806                 1.6227                 0.9566
 IR Inten    --      5.3875                 4.8737                 3.8739

                     37                     38                     39
                      A                      A                      A
 Frequencies --   1117.1128              1121.4362              1142.2574
 Red. masses --      1.5633                 6.3238                 2.1704
 Frc consts  --      1.1494                 4.6857                 1.6685
 IR Inten    --      4.0216               107.0076                 8.3395

                     40                     41                     42
                      A                      A                      A
 Frequencies --   1164.2442              1195.5821              1208.0946
 Red. masses --      1.4536                 1.0948                 2.4074
 Frc consts  --      1.1609                 0.9220                 2.0702
 IR Inten    --     10.1976                 0.0250                13.1230

                     43                     44                     45
                      A                      A                      A
 Frequencies --   1220.8533              1227.8825              1301.7754
 Red. masses --      1.7016                 1.6202                 3.3747
 Frc consts  --      1.4943                 1.4393                 3.3694
 IR Inten    --      1.1415                 1.8483                25.8650

                     46                     47                     48
                      A                      A                      A
 Frequencies --   1352.8922              1372.4443              1402.3883
 Red. masses --      3.3787                 1.6841                 1.2988
 Frc consts  --      3.6435                 1.8690                 1.5050
 IR Inten    --      0.8664                 0.2058                 1.7196

                     49                     50                     51
                      A                      A                      A
 Frequencies --   1417.5776              1437.8047              1496.9506
 Red. masses --      1.2555                 1.2176                 2.1163
 Frc consts  --      1.4865                 1.4830                 2.7940
 IR Inten    --     13.1155                 7.8284                10.0963

                     52                     53                     54
                      A                      A                      A
 Frequencies --   1511.5310              1523.4276              1532.0778
 Red. masses --      1.0909                 1.0496                 1.0549
 Frc consts  --      1.4685                 1.4352                 1.4589
 IR Inten    --      0.7383                 2.3269                 5.7333

                     55                     56                     57
                      A                      A                      A
 Frequencies --   1547.4562              1550.0588              1587.1853
 Red. masses --      1.0996                 1.9647                 1.1024
 Frc consts  --      1.5514                 2.7813                 1.6362
 IR Inten    --      4.5172                11.6152                22.4205

                     58                     59                     60
                      A                      A                      A
 Frequencies --   1645.5765              1667.6870              3005.7909
 Red. masses --      5.5103                 5.5262                 1.0506
 Frc consts  --      8.7914                 9.0553                 5.5925
 IR Inten    --      0.6491                 2.2653               156.7163

                     61                     62                     63
                      A                      A                      A
 Frequencies --   3048.5342              3068.6779              3079.3953
 Red. masses --      1.1186                 1.0339                 1.0358
 Frc consts  --      6.1248                 5.7366                 5.7872
 IR Inten    --     68.5106                13.5770                 9.9506

                     64                     65                     66
                      A                      A                      A
 Frequencies --   3142.9419              3148.7821              3150.8759
 Red. masses --      1.1031                 1.1014                 1.1030
 Frc consts  --      6.4198                 6.4338                 6.4519
 IR Inten    --      3.8227                28.2198                14.6178

                     67                     68                     69
                      A                      A                      A
 Frequencies --   3164.1771              3182.9283              3192.9224
 Red. masses --      1.1036                 1.0851                 1.0895
 Frc consts  --      6.5101                 6.4770                 6.5442
 IR Inten    --     14.1353                 0.1106                16.0811

                     70                     71                     72
                      A                      A                      A
 Frequencies --   3206.3657              3222.3967              3225.1143
 Red. masses --      1.0945                 1.0923                 1.0927
 Frc consts  --      6.6299                 6.6826                 6.6962
 IR Inten    --     35.1243                13.0956                 6.8346

 - Thermochemistry -
 -------------------
 Temperature   298.150 Kelvin.  Pressure   1.00000 Atm.
 Atom     1 has atomic number  6 and mass  12.00000

 Molecular mass:   179.09463 amu.
 Principal axes and moments of inertia in atomic units:
                           1         2         3
     Eigenvalues --  1106.755233399.700053524.80201
           X            0.99994   0.01069   0.00354
           Y           -0.01096   0.99619   0.08652
           Z           -0.00260  -0.08655   0.99624
 This molecule is an asymmetric top.
 Rotational symmetry number  1.
 Warning -- assumption of classical behavior for rotation
           may cause significant error
 Rotational temperatures (Kelvin)      0.07826     0.02548     0.02457
 Rotational constants (GHZ):           1.63066     0.53085     0.51201
 Zero-point vibrational energy     568523.4 (Joules/Mol)
                                  135.88035 (Kcal/Mol)
 Warning -- explicit consideration of  17 degrees of freedom as
           vibrations may cause significant error
 Vibrational temperatures:     60.92   100.41   143.90   196.08   267.91
          (Kelvin)            320.26   360.55   415.67   430.98   465.16
                              479.38   532.30   599.43   638.09   685.69
                              821.12   884.18   917.89  1027.56  1064.39
                             1114.66  1164.36  1233.54  1237.52  1268.55
                             1331.23  1370.99  1377.13  1397.77  1419.93
                             1434.13  1467.17  1472.01  1491.20  1529.96
                             1602.23  1607.28  1613.50  1643.45  1675.09
                             1720.18  1738.18  1756.54  1766.65  1872.96
                             1946.51  1974.64  2017.72  2039.58  2068.68
                             2153.78  2174.76  2191.87  2204.32  2226.44
                             2230.19  2283.61  2367.62  2399.43  4324.66
                             4386.16  4415.14  4430.56  4521.99  4530.40
                             4533.41  4552.55  4579.52  4593.90  4613.25
                             4636.31  4640.22

 Zero-point correction=                           0.216539 (Hartree/Particle)
 Thermal correction to Energy=                    0.228445
 Thermal correction to Enthalpy=                  0.229389
 Thermal correction to Gibbs Free Energy=         0.178407
 Sum of electronic and zero-point Energies=           -593.777068
 Sum of electronic and thermal Energies=              -593.765162
 Sum of electronic and thermal Enthalpies=            -593.764217
 Sum of electronic and thermal Free Energies=         -593.815200

                     E (Thermal)             CV                S
                      KCal/Mol        Cal/Mol-Kelvin    Cal/Mol-Kelvin
 Total                  143.352             46.196            107.302
 Electronic               0.000              0.000              0.000
 Translational            0.889              2.981             41.455
 Rotational               0.889              2.981             30.962
 Vibrational            141.574             40.234             34.885
 Vibration     1          0.595              1.980              5.146
 Vibration     2          0.598              1.969              4.159
 Vibration     3          0.604              1.949              3.454
 Vibration     4          0.614              1.917              2.855
 Vibration     5          0.632              1.859              2.265
 Vibration     6          0.648              1.807              1.938
 Vibration     7          0.663              1.762              1.726
 Vibration     8          0.685              1.694              1.480
 Vibration     9          0.692              1.675              1.419
 Vibration    10          0.708              1.629              1.293
 Vibration    11          0.715              1.609              1.245
 Vibration    12          0.742              1.534              1.080
 Vibration    13          0.780              1.434              0.904
 Vibration    14          0.803              1.375              0.816
 Vibration    15          0.833              1.302              0.719
 Vibration    16          0.927              1.095              0.503
 Vibration    17          0.974              1.001              0.425

 Optimization completed.
    -- Stationary point found.
 Normal termination of Gaussian 16 at Wed Dec  9 23:04:12 2020.

 ----------------------------------------------------------------------
 # B3LYP/6-311++G(d,p) empiricaldispersion=gd3bj scf=xqc pop=npa geom=c
 heck
 ----------------------------------------------------------------------

 --------------------------------------
 CID_69409762_JID_3351_Energie_neutraal
 --------------------------------------
 Structure from the checkpoint file:  "JID_3351.chk"
 Charge =  0 Multiplicity = 1

 SCF Done:  E(RB3LYP) =  -594.155151791     A.U. after   14 cycles
 Normal termination of Gaussian 16 at Wed Dec  9 23:07:15 2020.

 ----------------------------------------------------------------------
 # B3LYP/6-311++G(d,p) empiricaldispersion=gd3bj scf=xqc pop=npa geom=c
 heck
 ----------------------------------------------------------------------

 ------------------------------------
 CID_69409762_JID_3351_Energie_kation
 ------------------------------------
 Structure from the checkpoint file:  "JID_3351.chk"
 Charge =  1 Multiplicity = 2

 SCF Done:  E(UB3LYP) =  -593.849432944     A.U. after   33 cycles
 SCF Done:  E(UB3LYP) =  -593.849450393     a.u. after    4 cycles
 Normal termination of Gaussian 16 at Wed Dec  9 23:43:26 2020.
 Gaussian 16:  ES64L-G16RevA.03 25-Dec-2016

 ----------------------------------------------------------------------
 # B3LYP/6-311++G(d,p) empiricaldispersion=gd3bj scf=xqc pop=npa geom=c
 heck
 ----------------------------------------------------------------------

 -----------------------------------
 CID_69409762_JID_3351_Energie_anion
 -----------------------------------
 Structure from the checkpoint file:  "JID_3351.chk"
 Charge = -1 Multiplicity = 2

                         Standard orientation:
 ---------------------------------------------------------------------
 Center     Atomic      Atomic             Coordinates (Angstroms)
 Number     Number       Type             X           Y           Z
 ---------------------------------------------------------------------
      1          6           0        0.795333    1.264858   -1.745625
      2          6           0        0.624225    0.672412   -0.333865
      3          6           0        1.152785    1.651023    0.717963
      4          6           0       -0.827604    0.242552   -0.108885
      5          6           0       -1.366200   -0.802496   -0.874725
      6          6           0       -2.693053   -1.194197   -0.714584
      7          6           0       -3.511482   -0.543468    0.210230
      8          6           0       -2.986751    0.495774    0.975874
      9          6           0       -1.654069    0.881698    0.820617
     10          7           0        1.391796   -0.612638   -0.373517
     11          8           0        2.841561   -0.315934   -0.419484
     12          6           0        2.965608   -1.036990    0.799534
     13          8           0        1.562411   -1.117545    1.005051
     14          1           0        0.178732    2.163896   -1.834999
     15          1           0        0.479442    0.552518   -2.511992
     16          1           0        1.841032    1.532995   -1.923407
     17          1           0        0.625222    2.606166    0.645195
     18          1           0        1.027297    1.255498    1.728004
     19          1           0        2.213620    1.838691    0.538868
     20          1           0       -0.731760   -1.321807   -1.584533
     21          1           0       -3.088176   -2.010188   -1.313374
     22          1           0       -4.547522   -0.846139    0.333719
     23          1           0       -3.611627    1.008884    1.701673
     24          1           0       -1.266899    1.688239    1.432477
     25          1           0        3.487675   -0.473796    1.586907
     26          1           0        3.425857   -2.025654    0.652333
 ---------------------------------------------------------------------

 SCF Done:  E(UB3LYP) =  -594.138412163     A.U. after   33 cycles
 SCF Done:  E(UB3LYP) =  -594.138412163     a.u. after    1 cycles

 The electronic state is 2-A.
 Alpha  occ. eigenvalues --  -19.06889 -19.06743 -14.32768 -10.18489 -10.12871
 Alpha  occ. eigenvalues --  -10.08952 -10.07869 -10.07772 -10.07728 -10.07686
 Alpha  occ. eigenvalues --  -10.07683 -10.07271 -10.06124  -1.06856  -0.88222
 Alpha  occ. eigenvalues --   -0.78914  -0.75023  -0.67001  -0.65137  -0.63785
 Alpha  occ. eigenvalues --   -0.60028  -0.54693  -0.51254  -0.50574  -0.46046
 Alpha  occ. eigenvalues --   -0.44404  -0.42957  -0.40835  -0.40640  -0.36597
 Alpha  occ. eigenvalues --   -0.35656  -0.34873  -0.34054  -0.32822  -0.31850
 Alpha  occ. eigenvalues --   -0.30020  -0.28894  -0.28403  -0.26916  -0.26834
 Alpha  occ. eigenvalues --   -0.26063  -0.25353  -0.23874  -0.23261  -0.22132
 Alpha  occ. eigenvalues --   -0.15983  -0.15498  -0.13273   0.04528
 Alpha virt. eigenvalues --    0.06152   0.07143   0.07248   0.07600   0.08118
 Alpha virt. eigenvalues --    0.08566   0.08820   0.09677   0.10023   0.10775
 Alpha virt. eigenvalues --    0.11422   0.11877   0.13074   0.13614   0.13953

  Beta  occ. eigenvalues --  -19.06879 -19.06740 -14.32760 -10.18447 -10.12865
  Beta  occ. eigenvalues --  -10.08953 -10.07856 -10.07756 -10.07711 -10.07682
  Beta  occ. eigenvalues --  -10.07667 -10.07252 -10.06092  -1.06842  -0.88206
  Beta  occ. eigenvalues --   -0.78896  -0.74996  -0.66965  -0.65106  -0.63750
  Beta  occ. eigenvalues --   -0.59984  -0.54624  -0.51211  -0.50527  -0.46014
  Beta  occ. eigenvalues --   -0.44371  -0.42924  -0.40799  -0.40595  -0.36563
  Beta  occ. eigenvalues --   -0.35615  -0.34841  -0.34013  -0.32791  -0.31816
  Beta  occ. eigenvalues --   -0.29995  -0.28865  -0.28370  -0.26888  -0.26808
  Beta  occ. eigenvalues --   -0.26037  -0.25326  -0.23851  -0.23236  -0.22125
  Beta  occ. eigenvalues --   -0.15954  -0.15481  -0.13252
  Beta virt. eigenvalues --    0.06713   0.07129   0.07620   0.07886   0.08047
  Beta virt. eigenvalues --    0.08233   0.09116   0.09404   0.09996   0.10690
  Beta virt. eigenvalues --    0.11253   0.11898   0.12322   0.13309   0.13937

 Mulliken charges and spin densities:
               1          2
     1  C    0.045849  -0.777588
     2  C   -0.018446  -0.178814
     3  C    1.017363  -1.233177
     4  C   -0.258159   0.800125
     5  C   -0.242902  -0.027684
     6  C   -0.196771  -0.202052
     7  C    1.486821  -1.755481
     8  C    1.040028  -1.383301
     9  C   -2.024649   1.810130
    10  N    0.054063   0.009307
    11  O   -0.067951   0.033634
    12  C    1.086366  -1.113954
    13  O   -0.107011   0.040327
    14  H   -0.027011   0.171840
    15  H   -0.095131   0.236484
    16  H    0.134386   0.056606
    17  H   -0.307639   0.450989
    18  H   -0.058425   0.224268
    19  H   -0.224737   0.414914
    20  H    0.200854  -0.003456
    21  H   -0.351236   0.518649
    22  H   -0.414055   0.565492
    23  H   -0.767230   0.951633
    24  H   -0.062681   0.228911
    25  H   -0.487968   0.683427
    26  H   -0.353728   0.478770
 Sum of Mulliken charges =  -1.00000   1.00000

 Dipole moment (field-independent basis, Debye):
    X=              0.9839    Y=             -1.0225    Z=             -3.0789  Tot=              3.3902
 Quadrupole moment (field-independent basis, Debye-Ang):
   XX=           -157.7608   YY=           -116.2131   ZZ=           -113.4624
   XY=              0.1767   XZ=             -1.2345   YZ=             -3.6451

 Summary of Natural Population Analysis:

                                       Natural Population
                Natural  -----------------------------------------------
    Atom  No    Charge         Core      Valence    Rydberg      Total
 -----------------------------------------------------------------------
      C    1   -0.28501      0.99960     2.27958    0.00583     3.28501
      C    2    0.04958      0.99953     1.93482    0.01608     2.95042
      C    3   -0.30481      0.99962     2.29653    0.00867     3.30481
      C    4   -0.02090      0.99945     2.00855    0.01290     3.02090
      C    5   -0.09514      0.99951     2.08605    0.00958     3.09514
      C    6   -0.09978      0.99956     2.08960    0.01061     3.09978
      C    7   -0.10058      0.99956     2.09093    0.01009     3.10058
      C    8   -0.09660      0.99956     2.08647    0.01057     3.09660
      C    9   -0.09596      0.99951     2.08678    0.00968     3.09596
      N   10    0.04041      0.99972     2.44497    0.01490     3.45959
      O   11   -0.23146      0.99991     3.22323    0.00832     4.23146
      C   12    0.15470      0.99971     1.82832    0.01726     2.84530
      O   13   -0.22718      0.99991     3.21951    0.00777     4.22718
      H   14    0.10636      0.00000     0.39276    0.00088     0.39364
      H   15    0.10508      0.00000     0.39386    0.00107     0.39492
      H   16    0.10708      0.00000     0.39158    0.00134     0.39292
      H   17    0.10591      0.00000     0.39277    0.00132     0.39409
      H   18    0.11099      0.00000     0.38736    0.00165     0.38901
      H   19    0.11189      0.00000     0.38646    0.00165     0.38811
      H   20    0.10740      0.00000     0.39105    0.00155     0.39260
      H   21    0.10032      0.00000     0.39868    0.00100     0.39968
      H   22    0.10209      0.00000     0.39631    0.00160     0.39791
      H   23    0.10293      0.00000     0.39530    0.00177     0.39707
      H   24    0.10550      0.00000     0.39264    0.00186     0.39450
      H   25    0.07713      0.00000     0.41991    0.00296     0.42287
      H   26    0.07006      0.00000     0.42819    0.00175     0.42994
 =======================================================================
   * Total *   -0.00000     12.99515    34.84221    0.16264    48.00000

 Normal termination of Gaussian 16 at Wed Dec  9 23:53:40 2020.
