 Gaussian 16, Revision A.03,

 -----------------------------------------------------------
 # opt freq B3LYP/6-31G(d) empiricaldispersion=gd3bj scf=xqc
 -----------------------------------------------------------

 ------------------------------
 CID_80883711_JID_5643_neutraal
 ------------------------------
 Symbolic Z-matrix:
 Charge =  0 Multiplicity = 1

 SCF Done:  E(RB3LYP) =  -670.163808436     A.U. after   14 cycles
 SCF Done:  E(RB3LYP) =  -670.170124129     A.U. after   12 cycles
 SCF Done:  E(RB3LYP) =  -670.171158389     A.U. after   12 cycles
 SCF Done:  E(RB3LYP) =  -670.172413281     A.U. after   12 cycles
 SCF Done:  E(RB3LYP) =  -670.172388818     A.U. after   12 cycles
 SCF Done:  E(RB3LYP) =  -670.173085661     A.U. after   12 cycles
 SCF Done:  E(RB3LYP) =  -670.173248509     A.U. after   10 cycles
 SCF Done:  E(RB3LYP) =  -670.173343500     A.U. after   10 cycles
 SCF Done:  E(RB3LYP) =  -670.173376078     A.U. after   10 cycles
 SCF Done:  E(RB3LYP) =  -670.173392799     A.U. after   10 cycles
 SCF Done:  E(RB3LYP) =  -670.174038102     A.U. after   10 cycles
 SCF Done:  E(RB3LYP) =  -670.174038622     A.U. after    9 cycles
 SCF Done:  E(RB3LYP) =  -670.174038842     A.U. after    9 cycles
 SCF Done:  E(RB3LYP) =  -670.174038872     A.U. after    6 cycles
 SCF Done:  E(RB3LYP) =  -670.174038876     A.U. after    6 cycles
 Optimization completed.
    -- Stationary point found.
 Normal termination of Gaussian 16 at Thu Dec 10 17:21:56 2020.

 --------------------------------------------------------------------
 #N Geom=AllCheck Guess=TCheck SCRF=Check GenChk RB3LYP/6-31G(d) Freq
 --------------------------------------------------------------------

 Structure from the checkpoint file:  "JID_5643.chk"
 ------------------------------
 CID_80883711_JID_5643_neutraal
 ------------------------------
 Charge =  0 Multiplicity = 1

 SCF Done:  E(RB3LYP) =  -670.174038876     A.U. after    1 cycles

  Exact polarizability: 192.184  -6.263 135.368  -6.900  -3.448  99.078
 Approx polarizability: 248.237  -6.428 215.308 -14.896 -11.497 139.409

                      1                      2                      3
                      A                      A                      A
 Frequencies --     20.1428                37.8596                66.3891
 Red. masses --      3.7454                 2.6182                 1.6544
 Frc consts  --      0.0009                 0.0022                 0.0043
 IR Inten    --      0.4308                 0.0987                 0.2171

                      4                      5                      6
                      A                      A                      A
 Frequencies --     71.7877                81.4532                98.4821
 Red. masses --      1.4738                 1.6180                 1.6593
 Frc consts  --      0.0045                 0.0063                 0.0095
 IR Inten    --      3.5578                 2.6448                 5.8689

                      7                      8                      9
                      A                      A                      A
 Frequencies --    136.7420               161.2319               185.7612
 Red. masses --      3.2012                 1.4913                 2.5947
 Frc consts  --      0.0353                 0.0228                 0.0528
 IR Inten    --      0.8957                 0.8322                 2.6323

                     10                     11                     12
                      A                      A                      A
 Frequencies --    204.0605               207.3003               219.2302
 Red. masses --      3.5135                 2.0134                 2.1383
 Frc consts  --      0.0862                 0.0510                 0.0605
 IR Inten    --      0.9229                 1.1743                 3.9710

                     13                     14                     15
                      A                      A                      A
 Frequencies --    222.4693               234.6063               252.4239
 Red. masses --      2.0173                 1.5574                 2.1724
 Frc consts  --      0.0588                 0.0505                 0.0816
 IR Inten    --      0.4170                 1.4638                 1.3994

                     16                     17                     18
                      A                      A                      A
 Frequencies --    294.7843               348.7452               359.4572
 Red. masses --      2.3327                 2.4144                 2.4630
 Frc consts  --      0.1194                 0.1730                 0.1875
 IR Inten    --      1.7107                 1.2485                 2.0709

                     19                     20                     21
                      A                      A                      A
 Frequencies --    376.5558               429.3639               457.9846
 Red. masses --      2.5879                 2.5564                 1.2630
 Frc consts  --      0.2162                 0.2777                 0.1561
 IR Inten    --      8.8164                 5.4353                82.1267

                     22                     23                     24
                      A                      A                      A
 Frequencies --    475.7636               521.3947               542.0749
 Red. masses --      3.2485                 3.8207                 6.2726
 Frc consts  --      0.4332                 0.6120                 1.0860
 IR Inten    --     15.1459                 2.7114                 0.8821

                     25                     26                     27
                      A                      A                      A
 Frequencies --    562.8241               601.6213               646.3541
 Red. masses --      4.5198                 3.8745                 4.5511
 Frc consts  --      0.8436                 0.8262                 1.1202
 IR Inten    --      9.9101                 2.3100                 4.6248

                     28                     29                     30
                      A                      A                      A
 Frequencies --    699.9176               715.5159               796.2898
 Red. masses --      3.3601                 4.5613                 2.1116
 Frc consts  --      0.9698                 1.3759                 0.7889
 IR Inten    --     15.0970                 0.9721                 1.1578

                     31                     32                     33
                      A                      A                      A
 Frequencies --    800.1122               804.0822               886.4879
 Red. masses --      3.5366                 1.7618                 3.0363
 Frc consts  --      1.3339                 0.6711                 1.4059
 IR Inten    --      8.0192                38.3830                 3.7592

                     34                     35                     36
                      A                      A                      A
 Frequencies --    933.2792               945.7981               980.0713
 Red. masses --      2.2881                 1.1599                 1.4214
 Frc consts  --      1.1742                 0.6113                 0.8044
 IR Inten    --      5.8849                 2.0837                 1.2619

                     37                     38                     39
                      A                      A                      A
 Frequencies --    983.3666              1001.7469              1016.4007
 Red. masses --      4.4288                 1.3983                 3.7103
 Frc consts  --      2.5233                 0.8267                 2.2583
 IR Inten    --      2.8204                 4.8392                 8.5768

                     40                     41                     42
                      A                      A                      A
 Frequencies --   1023.9101              1053.0456              1072.7867
 Red. masses --      2.1123                 1.6714                 1.5997
 Frc consts  --      1.3048                 1.0920                 1.0847
 IR Inten    --     15.5344                 3.7993                 4.7502

                     43                     44                     45
                      A                      A                      A
 Frequencies --   1096.9660              1146.5423              1153.7331
 Red. masses --      3.8924                 2.1144                 1.8275
 Frc consts  --      2.7597                 1.6376                 1.4332
 IR Inten    --     56.6279                62.2418                 3.5681

                     46                     47                     48
                      A                      A                      A
 Frequencies --   1167.0040              1171.6005              1207.7656
 Red. masses --      1.3768                 2.3163                 1.8888
 Frc consts  --      1.1048                 1.8733                 1.6233
 IR Inten    --     15.6197                39.4403                11.3295

                     49                     50                     51
                      A                      A                      A
 Frequencies --   1208.5340              1214.1709              1230.8449
 Red. masses --      2.7690                 1.8450                 1.7118
 Frc consts  --      2.3828                 1.6026                 1.5279
 IR Inten    --    156.5707                37.2126                35.6028

                     52                     53                     54
                      A                      A                      A
 Frequencies --   1320.9684              1346.0516              1363.8213
 Red. masses --      5.0749                 1.5110                 1.3765
 Frc consts  --      5.2175                 1.6130                 1.5085
 IR Inten    --    129.9527                11.1819                 2.1454

                     55                     56                     57
                      A                      A                      A
 Frequencies --   1378.3909              1399.1147              1416.1954
 Red. masses --      2.4590                 1.7686                 1.4168
 Frc consts  --      2.7526                 2.0398                 1.6742
 IR Inten    --    229.8089                 0.1499                32.2073

                     58                     59                     60
                      A                      A                      A
 Frequencies --   1431.0503              1432.0484              1439.2612
 Red. masses --      1.2532                 1.2418                 1.2756
 Frc consts  --      1.5121                 1.5004                 1.5569
 IR Inten    --      4.2877                 2.9820                58.5721

                     61                     62                     63
                      A                      A                      A
 Frequencies --   1451.5067              1458.1418              1466.2501
 Red. masses --      1.3400                 1.4659                 1.5506
 Frc consts  --      1.6634                 1.8363                 1.9641
 IR Inten    --     77.5486                74.5190                27.6699

                     64                     65                     66
                      A                      A                      A
 Frequencies --   1504.2031              1506.3233              1511.4081
 Red. masses --      1.0456                 1.1857                 1.2204
 Frc consts  --      1.3939                 1.5852                 1.6425
 IR Inten    --      4.8817                23.8270                42.7577

                     67                     68                     69
                      A                      A                      A
 Frequencies --   1517.6060              1521.8254              1522.5474
 Red. masses --      1.0488                 1.0523                 1.4457
 Frc consts  --      1.4232                 1.4358                 1.9746
 IR Inten    --      0.4465                11.8373                85.9587

                     70                     71                     72
                      A                      A                      A
 Frequencies --   1528.6311              1530.8842              1536.1517
 Red. masses --      1.1140                 1.0927                 1.0561
 Frc consts  --      1.5337                 1.5089                 1.4684
 IR Inten    --     51.5585                21.4930                 1.7790

                     73                     74                     75
                      A                      A                      A
 Frequencies --   1542.8850              1544.5980              1601.2742
 Red. masses --      1.0969                 1.0522                 3.5835
 Frc consts  --      1.5385                 1.4791                 5.4136
 IR Inten    --      9.3537                 3.5835               120.7637

                     76                     77                     78
                      A                      A                      A
 Frequencies --   1617.9852              1645.4457              3031.0645
 Red. masses --      5.5044                 6.1873                 1.0494
 Frc consts  --      8.4901                 9.8700                 5.6805
 IR Inten    --    295.0378               875.3642                80.8469

                     79                     80                     81
                      A                      A                      A
 Frequencies --   3043.4803              3049.3333              3054.2073
 Red. masses --      1.0385                 1.0413                 1.0829
 Frc consts  --      5.6678                 5.7045                 5.9514
 IR Inten    --     19.8745                21.7716                 7.3485

                     82                     83                     84
                      A                      A                      A
 Frequencies --   3057.9965              3071.3542              3072.7175
 Red. masses --      1.0357                 1.0804                 1.0387
 Frc consts  --      5.7066                 6.0047                 5.7778
 IR Inten    --     15.5617                38.5581                14.0532

                     85                     86                     87
                      A                      A                      A
 Frequencies --   3107.1196              3111.2213              3115.5105
 Red. masses --      1.1003                 1.0853                 1.0992
 Frc consts  --      6.2584                 6.1899                 6.2861
 IR Inten    --      2.3755                35.4048                63.0051

                     88                     89                     90
                      A                      A                      A
 Frequencies --   3118.9472              3124.2632              3140.4220
 Red. masses --      1.1005                 1.1021                 1.1035
 Frc consts  --      6.3076                 6.3381                 6.4118
 IR Inten    --     11.7137                38.6379                17.7981

                     91                     92                     93
                      A                      A                      A
 Frequencies --   3141.0485              3145.3325              3149.8286
 Red. masses --      1.1019                 1.0996                 1.1021
 Frc consts  --      6.4055                 6.4097                 6.4424
 IR Inten    --     22.5399                28.9764                29.1268

                     94                     95                     96
                      A                      A                      A
 Frequencies --   3152.8467              3284.1961              3647.4494
 Red. masses --      1.1050                 1.0904                 1.0769
 Frc consts  --      6.4716                 6.9292                 8.4413
 IR Inten    --     18.1030                 6.4707                47.4539

 - Thermochemistry -
 -------------------
 Temperature   298.150 Kelvin.  Pressure   1.00000 Atm.
 Atom     1 has atomic number  6 and mass  12.00000

 Molecular mass:   209.15281 amu.
 Principal axes and moments of inertia in atomic units:
                           1         2         3
     Eigenvalues --  1631.877555707.669486306.79559
           X            1.00000  -0.00148   0.00142
           Y            0.00145   0.99974   0.02280
           Z           -0.00145  -0.02279   0.99974
 This molecule is an asymmetric top.
 Rotational symmetry number  1.
 Warning -- assumption of classical behavior for rotation
           may cause significant error
 Rotational temperatures (Kelvin)      0.05308     0.01518     0.01373
 Rotational constants (GHZ):           1.10593     0.31620     0.28616
 Zero-point vibrational energy     779245.9 (Joules/Mol)
                                  186.24424 (Kcal/Mol)
 Warning -- explicit consideration of  26 degrees of freedom as
           vibrations may cause significant error
 Vibrational temperatures:     28.98    54.47    95.52   103.29   117.19
          (Kelvin)            141.69   196.74   231.98   267.27   293.60
                              298.26   315.42   320.08   337.55   363.18
                              424.13   501.77   517.18   541.78   617.76
                              658.94   684.52   750.17   779.92   809.78
                              865.60   929.96  1007.03  1029.47  1145.68
                             1151.18  1156.89  1275.46  1342.78  1360.79
                             1410.10  1414.85  1441.29  1462.37  1473.18
                             1515.10  1543.50  1578.29  1649.62  1659.96
                             1679.06  1685.67  1737.71  1738.81  1746.92
                             1770.91  1900.58  1936.67  1962.23  1983.20
                             2013.01  2037.59  2058.96  2060.40  2070.78
                             2088.39  2097.94  2109.61  2164.21  2167.26
                             2174.58  2183.50  2189.57  2190.61  2199.36
                             2202.60  2210.18  2219.87  2222.33  2303.88
                             2327.92  2367.43  4361.03  4378.89  4387.31
                             4394.32  4399.77  4418.99  4420.96  4470.45
                             4476.35  4482.52  4487.47  4495.12  4518.37
                             4519.27  4525.43  4531.90  4536.24  4725.23
                             5247.87

 Zero-point correction=                           0.296799 (Hartree/Particle)
 Thermal correction to Energy=                    0.313811
 Thermal correction to Enthalpy=                  0.314755
 Thermal correction to Gibbs Free Energy=         0.251105
 Sum of electronic and zero-point Energies=           -669.877240
 Sum of electronic and thermal Energies=              -669.860228
 Sum of electronic and thermal Enthalpies=            -669.859284
 Sum of electronic and thermal Free Energies=         -669.922934

                     E (Thermal)             CV                S
                      KCal/Mol        Cal/Mol-Kelvin    Cal/Mol-Kelvin
 Total                  196.919             61.751            133.963
 Electronic               0.000              0.000              0.000
 Translational            0.889              2.981             41.918
 Rotational               0.889              2.981             32.441
 Vibrational            195.142             55.789             59.605
 Vibration     1          0.593              1.986              6.620
 Vibration     2          0.594              1.982              5.368
 Vibration     3          0.598              1.970              4.258
 Vibration     4          0.598              1.967              4.104
 Vibration     5          0.600              1.962              3.856
 Vibration     6          0.604              1.950              3.484
 Vibration     7          0.614              1.917              2.849
 Vibration     8          0.622              1.890              2.535
 Vibration     9          0.632              1.859              2.270
 Vibration    10          0.640              1.834              2.096
 Vibration    11          0.641              1.829              2.067
 Vibration    12          0.647              1.812              1.965
 Vibration    13          0.648              1.807              1.939
 Vibration    14          0.654              1.788              1.843
 Vibration    15          0.664              1.759              1.714
 Vibration    16          0.689              1.683              1.446
 Vibration    17          0.726              1.578              1.172
 Vibration    18          0.734              1.556              1.124
 Vibration    19          0.747              1.520              1.053
 Vibration    20          0.791              1.406              0.861
 Vibration    21          0.816              1.343              0.772
 Vibration    22          0.832              1.304              0.722
 Vibration    23          0.876              1.203              0.607
 Vibration    24          0.897              1.157              0.561
 Vibration    25          0.919              1.112              0.518
 Vibration    26          0.960              1.028              0.447

 Optimization completed.
    -- Stationary point found.
 Normal termination of Gaussian 16 at Thu Dec 10 17:33:59 2020.

 ----------------------------------------------------------------------
 # B3LYP/6-311++G(d,p) empiricaldispersion=gd3bj scf=xqc pop=npa geom=c
 heck
 ----------------------------------------------------------------------

 --------------------------------------
 CID_80883711_JID_5643_Energie_neutraal
 --------------------------------------
 Structure from the checkpoint file:  "JID_5643.chk"
 Charge =  0 Multiplicity = 1

 SCF Done:  E(RB3LYP) =  -670.360388224     A.U. after   14 cycles
 Normal termination of Gaussian 16 at Thu Dec 10 17:39:42 2020.

 ----------------------------------------------------------------------
 # B3LYP/6-311++G(d,p) empiricaldispersion=gd3bj scf=xqc pop=npa geom=c
 heck
 ----------------------------------------------------------------------

 ------------------------------------
 CID_80883711_JID_5643_Energie_kation
 ------------------------------------
 Structure from the checkpoint file:  "JID_5643.chk"
 Charge =  1 Multiplicity = 2

 SCF Done:  E(UB3LYP) =  -670.076173300     A.U. after   20 cycles
 Normal termination of Gaussian 16 at Thu Dec 10 17:50:42 2020.
 Gaussian 16:  ES64L-G16RevA.03 25-Dec-2016

 ----------------------------------------------------------------------
 # B3LYP/6-311++G(d,p) empiricaldispersion=gd3bj scf=xqc pop=npa geom=c
 heck
 ----------------------------------------------------------------------

 -----------------------------------
 CID_80883711_JID_5643_Energie_anion
 -----------------------------------
 Structure from the checkpoint file:  "JID_5643.chk"
 Charge = -1 Multiplicity = 2

                         Standard orientation:
 ---------------------------------------------------------------------
 Center     Atomic      Atomic             Coordinates (Angstroms)
 Number     Number       Type             X           Y           Z
 ---------------------------------------------------------------------
      1          6           0        1.556634    2.978938   -0.390239
      2          6           0        1.372398    1.506354   -0.137860
      3          6           0        0.114656    0.975234    0.139362
      4          6           0        0.052986   -0.413193    0.365447
      5          7           0        1.136061   -1.179620    0.312732
      6          6           0        2.298414   -0.559133    0.030872
      7          7           0        2.481071    0.754710   -0.193575
      8          7           0        3.392968   -1.365939   -0.045625
      9          6           0        4.743225   -0.856568   -0.161842
     10          8           0       -1.059054   -1.119965    0.655572
     11          6           0       -2.390184   -0.558413    0.717066
     12          6           0       -2.550086    0.407109    1.893786
     13          6           0       -2.888720   -0.044298   -0.648050
     14          6           0       -2.613516   -1.072651   -1.751921
     15          6           0       -4.386972    0.283835   -0.572178
     16          1           0        1.985199    3.138006   -1.385872
     17          1           0        0.612467    3.526395   -0.319824
     18          1           0        2.264827    3.397676    0.333082
     19          1           0       -0.749856    1.617656    0.182011
     20          1           0        3.240129   -2.314123    0.263399
     21          1           0        5.418350   -1.697328   -0.340869
     22          1           0        4.807954   -0.161396   -1.002284
     23          1           0        5.070717   -0.321436    0.740593
     24          1           0       -2.977435   -1.455046    0.947484
     25          1           0       -2.154857    1.405136    1.689081
     26          1           0       -3.608602    0.511037    2.149452
     27          1           0       -2.029454    0.004581    2.767720
     28          1           0       -2.356196    0.879470   -0.901690
     29          1           0       -3.124754   -2.019518   -1.536978
     30          1           0       -2.980490   -0.704467   -2.716284
     31          1           0       -1.546180   -1.285678   -1.849828
     32          1           0       -4.599080    1.097069    0.129112
     33          1           0       -4.758402    0.588840   -1.556285
     34          1           0       -4.965604   -0.594506   -0.257980
 ---------------------------------------------------------------------

 SCF Done:  E(UB3LYP) =  -670.346590498     A.U. after   33 cycles
 SCF Done:  E(UB3LYP) =  -670.346590498     a.u. after    1 cycles

 The electronic state is 2-A.
 Alpha  occ. eigenvalues --  -19.06063 -14.23642 -14.20362 -14.20024 -10.18056
 Alpha  occ. eigenvalues --  -10.17407 -10.14311 -10.12999 -10.10634 -10.08803
 Alpha  occ. eigenvalues --  -10.07446 -10.07326 -10.07291 -10.06893 -10.06791
 Alpha  occ. eigenvalues --   -0.98473  -0.90266  -0.82206  -0.79247  -0.72557
 Alpha  occ. eigenvalues --   -0.68993  -0.65608  -0.63135  -0.61020  -0.59636
 Alpha  occ. eigenvalues --   -0.57013  -0.53209  -0.51677  -0.47802  -0.45375
 Alpha  occ. eigenvalues --   -0.42477  -0.40689  -0.38324  -0.38001  -0.36503
 Alpha  occ. eigenvalues --   -0.36155  -0.35999  -0.34436  -0.33633  -0.32658
 Alpha  occ. eigenvalues --   -0.31556  -0.31052  -0.30329  -0.30110  -0.29651
 Alpha  occ. eigenvalues --   -0.29482  -0.28050  -0.27685  -0.26115  -0.24752
 Alpha  occ. eigenvalues --   -0.23840  -0.22302  -0.21546  -0.20663  -0.16933
 Alpha  occ. eigenvalues --   -0.15999  -0.12741   0.04122
 Alpha virt. eigenvalues --    0.05460   0.06622   0.06844   0.07226   0.07979
 Alpha virt. eigenvalues --    0.08328   0.09121   0.09419   0.09715   0.10002
 Alpha virt. eigenvalues --    0.10387   0.10665   0.11256   0.11874   0.12247

  Beta  occ. eigenvalues --  -19.06064 -14.23633 -14.20362 -14.20012 -10.18053
  Beta  occ. eigenvalues --  -10.17406 -10.14305 -10.12999 -10.10603 -10.08794
  Beta  occ. eigenvalues --  -10.07419 -10.07313 -10.07260 -10.06853 -10.06780
  Beta  occ. eigenvalues --   -0.98470  -0.90255  -0.82190  -0.79237  -0.72535
  Beta  occ. eigenvalues --   -0.68973  -0.65576  -0.63101  -0.60980  -0.59581
  Beta  occ. eigenvalues --   -0.56969  -0.53178  -0.51632  -0.47766  -0.45354
  Beta  occ. eigenvalues --   -0.42455  -0.40663  -0.38288  -0.37973  -0.36470
  Beta  occ. eigenvalues --   -0.36127  -0.35961  -0.34407  -0.33608  -0.32631
  Beta  occ. eigenvalues --   -0.31531  -0.31014  -0.30299  -0.30080  -0.29615
  Beta  occ. eigenvalues --   -0.29449  -0.28020  -0.27664  -0.26085  -0.24712
  Beta  occ. eigenvalues --   -0.23813  -0.22281  -0.21533  -0.20645  -0.16925
  Beta  occ. eigenvalues --   -0.15984  -0.12725
  Beta virt. eigenvalues --    0.06137   0.06585   0.06851   0.07298   0.07665
  Beta virt. eigenvalues --    0.08521   0.08647   0.09323   0.09629   0.09913
  Beta virt. eigenvalues --    0.10459   0.10766   0.10986   0.11557   0.12137

 Mulliken charges and spin densities:
               1          2
     1  C    0.328399  -1.014537
     2  C   -0.372261   0.650163
     3  C    0.593377  -0.282299
     4  C    0.024887  -0.525005
     5  N   -0.337702   0.060566
     6  C   -0.481367   0.296739
     7  N   -0.138154   0.038570
     8  N   -0.294436   0.115800
     9  C    0.709169  -0.978551
    10  O    0.007750   0.006912
    11  C   -0.008412   0.207112
    12  C    0.720209  -1.384741
    13  C   -0.748078   0.914272
    14  C   -0.423597  -0.144061
    15  C    1.300114  -1.881638
    16  H   -0.047328   0.208187
    17  H   -0.564689   0.731174
    18  H   -0.042029   0.201242
    19  H    0.572749  -0.483409
    20  H    0.101475   0.194806
    21  H   -0.392421   0.526450
    22  H   -0.024793   0.202402
    23  H   -0.090204   0.254944
    24  H    0.045984   0.147422
    25  H   -0.539765   0.717356
    26  H   -0.224579   0.383831
    27  H    0.108317   0.057426
    28  H   -0.148431   0.276190
    29  H    0.076135   0.057346
    30  H   -0.007237   0.144994
    31  H    0.074824   0.078797
    32  H   -0.416574   0.572028
    33  H   -0.268613   0.418204
    34  H   -0.092720   0.231309
 Sum of Mulliken charges =  -1.00000   1.00000

 Dipole moment (field-independent basis, Debye):
    X=              1.0917    Y=             -2.8917    Z=             -0.1102  Tot=              3.0929
 Quadrupole moment (field-independent basis, Debye-Ang):
   XX=           -191.2204   YY=           -141.5370   ZZ=           -123.9182
   XY=             14.8905   XZ=              2.5552   YZ=             -1.3602

 Summary of Natural Population Analysis:

                                       Natural Population
                Natural  -----------------------------------------------
    Atom  No    Charge         Core      Valence    Rydberg      Total
 -----------------------------------------------------------------------
      C    1   -0.29969      0.99963     2.29390    0.00615     3.29969
      C    2    0.13960      0.99956     1.84817    0.01266     2.86040
      C    3   -0.20514      0.99945     2.19794    0.00775     3.20514
      C    4    0.29476      0.99944     1.68873    0.01707     2.70524
      N    5   -0.28375      0.99963     2.77400    0.01012     3.78375
      C    6    0.30640      0.99960     1.67647    0.01753     2.69360
      N    7   -0.29359      0.99964     2.78372    0.01024     3.79359
      N    8   -0.30452      0.99967     2.79477    0.01009     3.80452
      C    9   -0.17610      0.99965     2.16929    0.00715     3.17610
      O   10   -0.27300      0.99985     3.26320    0.00994     4.27300
      C   11    0.07060      0.99951     1.91579    0.01410     2.92940
      C   12   -0.29940      0.99964     2.29419    0.00558     3.29940
      C   13   -0.12830      0.99959     2.11885    0.00986     3.12830
      C   14   -0.28333      0.99965     2.27839    0.00530     3.28333
      C   15   -0.28427      0.99965     2.27832    0.00630     3.28427
      H   16    0.10896      0.00000     0.39003    0.00101     0.39104
      H   17    0.10353      0.00000     0.39515    0.00132     0.39647
      H   18    0.10915      0.00000     0.38981    0.00104     0.39085
      H   19    0.10984      0.00000     0.38773    0.00243     0.39016
      H   20    0.19463      0.00000     0.30254    0.00282     0.30537
      H   21    0.09556      0.00000     0.40283    0.00162     0.40444
      H   22    0.10214      0.00000     0.39598    0.00189     0.39786
      H   23    0.08972      0.00000     0.40819    0.00209     0.41028
      H   24    0.09139      0.00000     0.40698    0.00163     0.40861
      H   25    0.10209      0.00000     0.39633    0.00158     0.39791
      H   26    0.10677      0.00000     0.39218    0.00105     0.39323
      H   27    0.10528      0.00000     0.39380    0.00092     0.39472
      H   28    0.09828      0.00000     0.39909    0.00263     0.40172
      H   29    0.09552      0.00000     0.40360    0.00088     0.40448
      H   30    0.09874      0.00000     0.40052    0.00074     0.40126
      H   31    0.10587      0.00000     0.39320    0.00093     0.39413
      H   32    0.10443      0.00000     0.39389    0.00169     0.39557
      H   33    0.10245      0.00000     0.39643    0.00112     0.39755
      H   34    0.09539      0.00000     0.40345    0.00116     0.40461
 =======================================================================
   * Total *   -0.00000     14.99414    41.82749    0.17837    57.00000

 Normal termination of Gaussian 16 at Thu Dec 10 18:08:47 2020.
