 Gaussian 16, Revision A.03,

 -----------------------------------------------------------
 # opt freq B3LYP/6-31G(d) empiricaldispersion=gd3bj scf=xqc
 -----------------------------------------------------------

 -------------------------------
 CID_130024114_JID_1508_neutraal
 -------------------------------
 Symbolic Z-matrix:
 Charge =  0 Multiplicity = 1

 SCF Done:  E(RB3LYP) =  -553.834907600     A.U. after   14 cycles
 SCF Done:  E(RB3LYP) =  -553.839811699     A.U. after   12 cycles
 SCF Done:  E(RB3LYP) =  -553.840133424     A.U. after   11 cycles
 SCF Done:  E(RB3LYP) =  -553.840205374     A.U. after   10 cycles
 SCF Done:  E(RB3LYP) =  -553.840240733     A.U. after   10 cycles
 SCF Done:  E(RB3LYP) =  -553.840277776     A.U. after   10 cycles
 SCF Done:  E(RB3LYP) =  -553.840331819     A.U. after   10 cycles
 SCF Done:  E(RB3LYP) =  -553.840404970     A.U. after   10 cycles
 SCF Done:  E(RB3LYP) =  -553.840425238     A.U. after   10 cycles
 SCF Done:  E(RB3LYP) =  -553.840400162     A.U. after   11 cycles
 SCF Done:  E(RB3LYP) =  -553.840434042     A.U. after   10 cycles
 SCF Done:  E(RB3LYP) =  -553.840433771     A.U. after    8 cycles
 SCF Done:  E(RB3LYP) =  -553.840436025     A.U. after    8 cycles
 SCF Done:  E(RB3LYP) =  -553.840436455     A.U. after    8 cycles
 SCF Done:  E(RB3LYP) =  -553.840436611     A.U. after    7 cycles
 Optimization completed.
    -- Stationary point found.
 Normal termination of Gaussian 16 at Tue Dec  8 20:15:41 2020.

 --------------------------------------------------------------------
 #N Geom=AllCheck Guess=TCheck SCRF=Check GenChk RB3LYP/6-31G(d) Freq
 --------------------------------------------------------------------

 Structure from the checkpoint file:  "JID_1508.chk"
 -------------------------------
 CID_130024114_JID_1508_neutraal
 -------------------------------
 Charge =  0 Multiplicity = 1

 SCF Done:  E(RB3LYP) =  -553.840436611     A.U. after    1 cycles

  Exact polarizability:  93.400  -1.565  78.037   2.206  -3.296  72.695
 Approx polarizability: 136.607  -3.566 105.047   4.374  -7.898 107.462

                      1                      2                      3
                      A                      A                      A
 Frequencies --     62.1355               105.8637               121.7670
 Red. masses --      3.8715                 5.8656                 4.6946
 Frc consts  --      0.0088                 0.0387                 0.0410
 IR Inten    --      2.3061                 2.1915                 4.4604

                      4                      5                      6
                      A                      A                      A
 Frequencies --    191.5837               236.1906               267.5438
 Red. masses --      3.7209                 1.2617                 2.0190
 Frc consts  --      0.0805                 0.0415                 0.0851
 IR Inten    --      3.9515                79.2117                24.5613

                      7                      8                      9
                      A                      A                      A
 Frequencies --    300.7265               367.4269               391.6207
 Red. masses --      2.1107                 3.2273                 6.4311
 Frc consts  --      0.1125                 0.2567                 0.5811
 IR Inten    --     15.1270                 1.9775                 3.3328

                     10                     11                     12
                      A                      A                      A
 Frequencies --    429.1049               455.4548               550.7973
 Red. masses --      2.6699                 1.2577                 3.4599
 Frc consts  --      0.2896                 0.1537                 0.6184
 IR Inten    --      5.3765                99.9186                24.9284

                     13                     14                     15
                      A                      A                      A
 Frequencies --    581.3630               602.4952               647.5707
 Red. masses --      2.7384                 3.0828                 3.0661
 Frc consts  --      0.5453                 0.6593                 0.7575
 IR Inten    --      9.1244                 1.0541                12.9752

                     16                     17                     18
                      A                      A                      A
 Frequencies --    719.1939               755.0962               847.3973
 Red. masses --      5.2109                11.0986                 2.2586
 Frc consts  --      1.5880                 3.7284                 0.9556
 IR Inten    --     14.8854                20.1209                 2.7731

                     19                     20                     21
                      A                      A                      A
 Frequencies --    864.5865               869.0724               920.0572
 Red. masses --      3.1693                 2.1256                 2.5764
 Frc consts  --      1.3958                 0.9459                 1.2850
 IR Inten    --     13.6560                 1.5361                 1.5260

                     22                     23                     24
                      A                      A                      A
 Frequencies --    935.9138               958.7466              1004.0129
 Red. masses --      2.2048                 2.7342                 1.7623
 Frc consts  --      1.1379                 1.4807                 1.0467
 IR Inten    --      5.7026                 6.2691                 5.1029

                     25                     26                     27
                      A                      A                      A
 Frequencies --   1017.5947              1051.8832              1070.4546
 Red. masses --      2.8347                 1.6639                 2.2825
 Frc consts  --      1.7295                 1.0847                 1.5410
 IR Inten    --     28.9793                20.9486                18.9950

                     28                     29                     30
                      A                      A                      A
 Frequencies --   1088.5579              1115.9307              1151.6078
 Red. masses --      3.0766                 2.4788                 1.9969
 Frc consts  --      2.1479                 1.8187                 1.5603
 IR Inten    --     42.0597               103.1055                46.0749

                     31                     32                     33
                      A                      A                      A
 Frequencies --   1171.2425              1208.4223              1235.5350
 Red. masses --      2.0936                 1.5494                 1.6465
 Frc consts  --      1.6921                 1.3331                 1.4809
 IR Inten    --     10.6211                11.8692                21.8802

                     34                     35                     36
                      A                      A                      A
 Frequencies --   1251.6384              1267.2975              1287.6286
 Red. masses --      1.7945                 1.3064                 1.4678
 Frc consts  --      1.6563                 1.2362                 1.4338
 IR Inten    --    113.2828                 6.4102                30.2185

                     37                     38                     39
                      A                      A                      A
 Frequencies --   1319.3023              1325.6566              1356.0735
 Red. masses --      1.6986                 1.4077                 1.5410
 Frc consts  --      1.7419                 1.4575                 1.6697
 IR Inten    --      2.3286                 9.6153                 4.5734

                     40                     41                     42
                      A                      A                      A
 Frequencies --   1365.4495              1387.1798              1396.0694
 Red. masses --      1.3492                 1.6786                 1.6844
 Frc consts  --      1.4821                 1.9031                 1.9343
 IR Inten    --      8.1086                14.1969                58.2607

                     43                     44                     45
                      A                      A                      A
 Frequencies --   1432.3761              1468.9983              1502.0793
 Red. masses --      1.7998                 1.5101                 1.0962
 Frc consts  --      2.1756                 1.9200                 1.4572
 IR Inten    --     22.0564                 5.8173                 4.3165

                     46                     47                     48
                      A                      A                      A
 Frequencies --   1517.0648              1535.6167              1549.5159
 Red. masses --      1.0885                 1.1011                 1.0850
 Frc consts  --      1.4761                 1.5298                 1.5348
 IR Inten    --      2.9072                 4.3099                 3.2419

                     49                     50                     51
                      A                      A                      A
 Frequencies --   1892.5343              2993.3212              3043.3102
 Red. masses --     11.3886                 1.0617                 1.1021
 Frc consts  --     24.0329                 5.6045                 6.0140
 IR Inten    --    655.9118                59.1408                46.0506

                     52                     53                     54
                      A                      A                      A
 Frequencies --   3063.2917              3069.0852              3069.7087
 Red. masses --      1.0665                 1.0628                 1.0614
 Frc consts  --      5.8964                 5.8984                 5.8931
 IR Inten    --     17.8126                10.3801                32.6669

                     55                     56                     57
                      A                      A                      A
 Frequencies --   3111.1473              3121.0426              3123.3097
 Red. masses --      1.1013                 1.0925                 1.0983
 Frc consts  --      6.2805                 6.2701                 6.3123
 IR Inten    --     18.5227                20.5118                35.4336

                     58                     59                     60
                      A                      A                      A
 Frequencies --   3132.0689              3641.4268              3767.5717
 Red. masses --      1.1029                 1.0777                 1.0667
 Frc consts  --      6.3747                 8.4196                 8.9210
 IR Inten    --     23.9472                29.6397                26.0141

 - Thermochemistry -
 -------------------
 Temperature   298.150 Kelvin.  Pressure   1.00000 Atm.
 Atom     1 has atomic number  6 and mass  12.00000

 Molecular mass:   157.07389 amu.
 Principal axes and moments of inertia in atomic units:
                           1         2         3
     Eigenvalues --  1052.778301819.082282181.72689
           X            0.99982   0.01890   0.00266
           Y           -0.01892   0.99979   0.00834
           Z           -0.00250  -0.00839   0.99996
 This molecule is an asymmetric top.
 Rotational symmetry number  1.
 Warning -- assumption of classical behavior for rotation
           may cause significant error
 Rotational temperatures (Kelvin)      0.08227     0.04761     0.03970
 Rotational constants (GHZ):           1.71427     0.99212     0.82721
 Zero-point vibrational energy     486202.5 (Joules/Mol)
                                  116.20519 (Kcal/Mol)
 Warning -- explicit consideration of  14 degrees of freedom as
           vibrations may cause significant error
 Vibrational temperatures:     89.40   152.31   175.20   275.65   339.83
          (Kelvin)            384.94   432.68   528.65   563.45   617.39
                              655.30   792.47   836.45   866.86   931.71
                             1034.76  1086.42  1219.22  1243.95  1250.40
                             1323.76  1346.57  1379.42  1444.55  1464.09
                             1513.43  1540.15  1566.19  1605.58  1656.91
                             1685.16  1738.65  1777.66  1800.83  1823.36
                             1852.61  1898.18  1907.32  1951.09  1964.58
                             1995.84  2008.63  2060.87  2113.56  2161.16
                             2182.72  2209.41  2229.41  2722.93  4306.72
                             4378.64  4407.39  4415.73  4416.63  4476.25
                             4490.48  4493.75  4506.35  5239.20  5420.70

 Zero-point correction=                           0.185185 (Hartree/Particle)
 Thermal correction to Energy=                    0.194958
 Thermal correction to Enthalpy=                  0.195902
 Thermal correction to Gibbs Free Energy=         0.149994
 Sum of electronic and zero-point Energies=           -553.655252
 Sum of electronic and thermal Energies=              -553.645479
 Sum of electronic and thermal Enthalpies=            -553.644535
 Sum of electronic and thermal Free Energies=         -553.690443

                     E (Thermal)             CV                S
                      KCal/Mol        Cal/Mol-Kelvin    Cal/Mol-Kelvin
 Total                  122.338             37.805             96.622
 Electronic               0.000              0.000              0.000
 Translational            0.889              2.981             41.064
 Rotational               0.889              2.981             29.814
 Vibrational            120.560             31.844             25.744
 Vibration     1          0.597              1.972              4.388
 Vibration     2          0.605              1.945              3.343
 Vibration     3          0.609              1.931              3.072
 Vibration     4          0.634              1.852              2.212
 Vibration     5          0.655              1.785              1.831
 Vibration     6          0.673              1.733              1.612
 Vibration     7          0.693              1.672              1.413
 Vibration     8          0.740              1.539              1.091
 Vibration     9          0.759              1.488              0.994
 Vibration    10          0.790              1.407              0.862
 Vibration    11          0.814              1.349              0.779
 Vibration    12          0.906              1.138              0.543
 Vibration    13          0.938              1.072              0.483
 Vibration    14          0.961              1.027              0.445

                           ! Non-Optimized Parameters !
 Normal termination of Gaussian 16 at Tue Dec  8 20:20:27 2020.

 ----------------------------------------------------------------------
 # B3LYP/6-311++G(d,p) empiricaldispersion=gd3bj scf=xqc pop=npa geom=c
 heck
 ----------------------------------------------------------------------

 ---------------------------------------
 CID_130024114_JID_1508_Energie_neutraal
 ---------------------------------------
 Structure from the checkpoint file:  "JID_1508.chk"
 Charge =  0 Multiplicity = 1

 SCF Done:  E(RB3LYP) =  -554.013758818     A.U. after   14 cycles
 Normal termination of Gaussian 16 at Tue Dec  8 20:22:05 2020.

 ----------------------------------------------------------------------
 # B3LYP/6-311++G(d,p) empiricaldispersion=gd3bj scf=xqc pop=npa geom=c
 heck
 ----------------------------------------------------------------------

 -------------------------------------
 CID_130024114_JID_1508_Energie_kation
 -------------------------------------
 Structure from the checkpoint file:  "JID_1508.chk"
 Charge =  1 Multiplicity = 2

 SCF Done:  E(UB3LYP) =  -553.663086797     A.U. after   29 cycles
 Normal termination of Gaussian 16 at Tue Dec  8 20:26:31 2020.
 Gaussian 16:  ES64L-G16RevA.03 25-Dec-2016

 ----------------------------------------------------------------------
 # B3LYP/6-311++G(d,p) empiricaldispersion=gd3bj scf=xqc pop=npa geom=c
 heck
 ----------------------------------------------------------------------

 ------------------------------------
 CID_130024114_JID_1508_Energie_anion
 ------------------------------------
 Structure from the checkpoint file:  "JID_1508.chk"
 Charge = -1 Multiplicity = 2

                         Standard orientation:
 ---------------------------------------------------------------------
 Center     Atomic      Atomic             Coordinates (Angstroms)
 Number     Number       Type             X           Y           Z
 ---------------------------------------------------------------------
      1          6           0       -0.374304    1.971431    0.791397
      2          6           0       -0.462306    1.816403   -0.735151
      3          6           0       -0.033547    0.371586   -0.982777
      4          6           0       -0.444109   -0.426798    0.303055
      5          6           0       -0.956892    0.642529    1.300456
      6          7           0        0.835034   -1.007591    0.671893
      7          6           0        1.898699   -0.484945   -0.034142
      8          8           0        3.075022   -0.660774    0.167319
      9          8           0        1.405545    0.280401   -1.052510
     10          6           0       -1.464742   -1.525671    0.015073
     11          8           0       -2.620676   -0.902489   -0.531853
     12          1           0       -0.915676    2.844830    1.166751
     13          1           0        0.673459    2.075416    1.097461
     14          1           0       -1.502312    1.928833   -1.064045
     15          1           0        0.158061    2.519949   -1.296945
     16          1           0       -0.439665   -0.056568   -1.901426
     17          1           0       -0.668434    0.401180    2.329432
     18          1           0       -2.050165    0.671276    1.252874
     19          1           0        1.020733   -1.354071    1.602122
     20          1           0       -1.017011   -2.243415   -0.687052
     21          1           0       -1.700954   -2.065070    0.946934
     22          1           0       -3.259204   -1.593534   -0.760465
 ---------------------------------------------------------------------

 SCF Done:  E(UB3LYP) =  -554.005351733     A.U. after   29 cycles

 The electronic state is 2-A.
 Alpha  occ. eigenvalues --  -19.06165 -19.01419 -18.99751 -14.23953 -10.21834
 Alpha  occ. eigenvalues --  -10.13552 -10.12451 -10.10973 -10.07610 -10.07497
 Alpha  occ. eigenvalues --  -10.06750  -1.01327  -0.92608  -0.91645  -0.83403
 Alpha  occ. eigenvalues --   -0.73872  -0.64404  -0.62561  -0.55790  -0.52249
 Alpha  occ. eigenvalues --   -0.49753  -0.48829  -0.42606  -0.41886  -0.40030
 Alpha  occ. eigenvalues --   -0.37077  -0.36025  -0.34059  -0.33999  -0.32628
 Alpha  occ. eigenvalues --   -0.30926  -0.30430  -0.28235  -0.27086  -0.24935
 Alpha  occ. eigenvalues --   -0.24422  -0.23954  -0.23076  -0.19697  -0.18624
 Alpha  occ. eigenvalues --   -0.17099  -0.16466   0.04531
 Alpha virt. eigenvalues --    0.07118   0.07676   0.09067   0.10152   0.10312
 Alpha virt. eigenvalues --    0.10599   0.11248   0.12489   0.13214   0.13457
 Alpha virt. eigenvalues --    0.13786   0.15544   0.16375   0.16964   0.17318

  Beta  occ. eigenvalues --  -19.06162 -19.01353 -18.99749 -14.23933 -10.21833
  Beta  occ. eigenvalues --  -10.13536 -10.12455 -10.10923 -10.07603 -10.07487
  Beta  occ. eigenvalues --  -10.06717  -1.01319  -0.92601  -0.91514  -0.83374
  Beta  occ. eigenvalues --   -0.73845  -0.64338  -0.62524  -0.55694  -0.52206
  Beta  occ. eigenvalues --   -0.49718  -0.48776  -0.42525  -0.41815  -0.39924
  Beta  occ. eigenvalues --   -0.37042  -0.35990  -0.34040  -0.33954  -0.32594
  Beta  occ. eigenvalues --   -0.30904  -0.30403  -0.28203  -0.27054  -0.24903
  Beta  occ. eigenvalues --   -0.24376  -0.23925  -0.23012  -0.19687  -0.18616
  Beta  occ. eigenvalues --   -0.17030  -0.16441
  Beta virt. eigenvalues --    0.07186   0.08375   0.08626   0.09447   0.10581
  Beta virt. eigenvalues --    0.10923   0.11203   0.11721   0.12804   0.13731
  Beta virt. eigenvalues --    0.13837   0.14105   0.15756   0.16608   0.17081

 Mulliken charges and spin densities:
               1          2
     1  C   -0.606530   0.458701
     2  C    0.187342  -0.588404
     3  C   -0.129140  -0.320016
     4  C   -1.738267   2.020039
     5  C    0.381795  -0.974863
     6  N   -0.314695   0.179399
     7  C    0.196310   0.031334
     8  O   -0.381763   0.006402
     9  O   -0.072753   0.014153
    10  C    3.591314  -3.889586
    11  O   -0.366027   0.109658
    12  H   -0.240378   0.416343
    13  H    0.201631  -0.046262
    14  H    0.060501   0.089050
    15  H    0.164256  -0.000493
    16  H    0.059434   0.202849
    17  H   -0.430720   0.576185
    18  H    0.026137   0.163036
    19  H    0.074922   0.242033
    20  H   -0.419772   0.599772
    21  H   -0.796462   0.970622
    22  H   -0.447136   0.740046
 Sum of Mulliken charges =  -1.00000   1.00000

 Dipole moment (field-independent basis, Debye):
    X=              4.2209    Y=              5.7748    Z=             -1.0962  Tot=              7.2364
 Quadrupole moment (field-independent basis, Debye-Ang):
   XX=           -131.0305   YY=           -102.5642   ZZ=            -97.0116
   XY=            -11.8758   XZ=              0.2594   YZ=             -0.8366

 Summary of Natural Population Analysis:

                                       Natural Population
                Natural  -----------------------------------------------
    Atom  No    Charge         Core      Valence    Rydberg      Total
 -----------------------------------------------------------------------
      C    1   -0.19494      0.99964     2.18661    0.00869     3.19494
      C    2   -0.20181      0.99961     2.19451    0.00768     3.20181
      C    3    0.07148      0.99950     1.91441    0.01462     2.92852
      C    4    0.04466      0.99956     1.93887    0.01692     2.95534
      C    5   -0.19700      0.99959     2.18769    0.00971     3.19700
      N    6   -0.33672      0.99963     2.82679    0.01029     3.83672
      C    7    0.46040      0.99971     1.51362    0.02627     2.53960
      O    8   -0.31913      0.99986     3.31368    0.00558     4.31913
      O    9   -0.28624      0.99986     3.27898    0.00740     4.28624
      C   10   -0.00589      0.99951     1.99224    0.01414     3.00589
      O   11   -0.37700      0.99989     3.37035    0.00676     4.37700
      H   12    0.10132      0.00000     0.39786    0.00083     0.39868
      H   13    0.09547      0.00000     0.40308    0.00145     0.40453
      H   14    0.10684      0.00000     0.39185    0.00130     0.39316
      H   15    0.10373      0.00000     0.39529    0.00098     0.39627
      H   16    0.10078      0.00000     0.39794    0.00128     0.39922
      H   17    0.10454      0.00000     0.39373    0.00173     0.39546
      H   18    0.11252      0.00000     0.38552    0.00196     0.38748
      H   19    0.20365      0.00000     0.29443    0.00191     0.29635
      H   20    0.08326      0.00000     0.41413    0.00261     0.41674
      H   21    0.08554      0.00000     0.40862    0.00584     0.41446
      H   22    0.24453      0.00000     0.22975    0.02572     0.25547
 =======================================================================
   * Total *   -0.00000     10.99635    30.82995    0.17369    42.00000

 Normal termination of Gaussian 16 at Tue Dec  8 20:33:35 2020.
