 Gaussian 16, Revision A.03,

 -----------------------------------------------------------
 # opt freq B3LYP/6-31G(d) empiricaldispersion=gd3bj scf=xqc
 -----------------------------------------------------------

 ------------------------------
 CID_65330728_JID_1553_neutraal
 ------------------------------
 Symbolic Z-matrix:
 Charge =  0 Multiplicity = 1

 SCF Done:  E(RB3LYP) =  -501.772084426     A.U. after   14 cycles
 SCF Done:  E(RB3LYP) =  -501.791369501     A.U. after   12 cycles
 SCF Done:  E(RB3LYP) =  -501.792761993     A.U. after   12 cycles
 SCF Done:  E(RB3LYP) =  -501.786621133     A.U. after   14 cycles
 SCF Done:  E(RB3LYP) =  -501.793235457     A.U. after   12 cycles
 SCF Done:  E(RB3LYP) =  -501.792952253     A.U. after   12 cycles
 SCF Done:  E(RB3LYP) =  -501.793527754     A.U. after   11 cycles
 SCF Done:  E(RB3LYP) =  -501.792782599     A.U. after   12 cycles
 SCF Done:  E(RB3LYP) =  -501.793630698     A.U. after   11 cycles
 SCF Done:  E(RB3LYP) =  -501.793689954     A.U. after   10 cycles
 SCF Done:  E(RB3LYP) =  -501.793720330     A.U. after    9 cycles
 SCF Done:  E(RB3LYP) =  -501.793721155     A.U. after    9 cycles
 SCF Done:  E(RB3LYP) =  -501.793722387     A.U. after    9 cycles
 SCF Done:  E(RB3LYP) =  -501.793722526     A.U. after    7 cycles
 SCF Done:  E(RB3LYP) =  -501.793722546     A.U. after    7 cycles
 SCF Done:  E(RB3LYP) =  -501.793722533     A.U. after    6 cycles
 Optimization completed.
    -- Stationary point found.

 1\1\GINC-NODE119\FOpt\RB3LYP\6-31G(d)\C9H14O2\VSC10255\08-Dec-2020\0\\
 # opt freq B3LYP/6-31G(d) empiricaldispersion=gd3bj scf=xqc\\CID_65330
 728_JID_1553_neutraal\\0,1\C,0.9635047809,0.2873384244,0.1261218718\C,
 0.4453584045,1.0040405453,1.2883691785\C,-0.0016803459,1.5873730541,2.
 2493022762\C,-0.4865389238,2.3126458063,3.422097397\C,0.6432632124,2.9
 85816332,4.2381437341\C,1.498849284,3.9646814138,3.4117098985\C,2.5797
 634277,4.6400825718,4.2895159959\C,1.9289347838,5.9803274413,4.7155933
 181\O,0.6237502158,6.0175624165,4.109411494\C,0.7030066109,5.189242602

 Normal termination of Gaussian 16 at Tue Dec  8 20:29:58 2020.

 --------------------------------------------------------------------
 #N Geom=AllCheck Guess=TCheck SCRF=Check GenChk RB3LYP/6-31G(d) Freq
 --------------------------------------------------------------------

 Structure from the checkpoint file:  "JID_1553.chk"
 ------------------------------
 CID_65330728_JID_1553_neutraal
 ------------------------------
 Charge =  0 Multiplicity = 1

 SCF Done:  E(RB3LYP) =  -501.793722533     A.U. after    1 cycles

  Exact polarizability: 122.379 -10.788  89.620   0.287   1.359  76.486
 Approx polarizability: 156.259 -27.298 133.886  -4.115   3.741 112.211

                      1                      2                      3
                      A                      A                      A
 Frequencies --     13.7088                36.9524                64.3928
 Red. masses --      1.0156                 3.7469                 3.3291
 Frc consts  --      0.0001                 0.0030                 0.0081
 IR Inten    --      0.0080                 0.2446                 0.5875

                      4                      5                      6
                      A                      A                      A
 Frequencies --     92.8613               114.7898               198.9759
 Red. masses --      2.2309                 4.0548                 3.8717
 Frc consts  --      0.0113                 0.0315                 0.0903
 IR Inten    --      1.8690                 0.4521                 2.5997

                      7                      8                      9
                      A                      A                      A
 Frequencies --    238.3829               254.2811               270.1181
 Red. masses --      4.6930                 3.2253                 2.9235
 Frc consts  --      0.1571                 0.1229                 0.1257
 IR Inten    --     21.5646                11.4872                 5.6824

                     10                     11                     12
                      A                      A                      A
 Frequencies --    330.0737               364.4223               388.4457
 Red. masses --      2.9832                 3.7404                 3.7016
 Frc consts  --      0.1915                 0.2927                 0.3291
 IR Inten    --      3.4005                 1.7879                 0.0504

                     13                     14                     15
                      A                      A                      A
 Frequencies --    415.5140               528.6961               540.6888
 Red. masses --      4.1213                 3.4806                 2.9366
 Frc consts  --      0.4192                 0.5732                 0.5058
 IR Inten    --      2.2006                 2.0016                 4.1144

                     16                     17                     18
                      A                      A                      A
 Frequencies --    593.1810               710.3351               751.7461
 Red. masses --      1.0989                 4.2418                 2.5274
 Frc consts  --      0.2278                 1.2610                 0.8415
 IR Inten    --    134.4501                10.2543                 1.3846

                     19                     20                     21
                      A                      A                      A
 Frequencies --    788.9606               809.7375               840.2165
 Red. masses --      3.8157                 2.5265                 1.7202
 Frc consts  --      1.3994                 0.9760                 0.7155
 IR Inten    --      0.3600                 3.7445                 2.4949

                     22                     23                     24
                      A                      A                      A
 Frequencies --    926.1410               929.2808               941.3706
 Red. masses --      3.2533                 2.5138                 2.2756
 Frc consts  --      1.6441                 1.2790                 1.1882
 IR Inten    --      7.3594                14.5818                 3.1343

                     25                     26                     27
                      A                      A                      A
 Frequencies --    988.7994              1012.1776              1038.8101
 Red. masses --      1.9882                 2.3395                 2.7485
 Frc consts  --      1.1453                 1.4122                 1.7475
 IR Inten    --     10.0607                 3.5814                26.2869

                     28                     29                     30
                      A                      A                      A
 Frequencies --   1068.9594              1071.6174              1075.6665
 Red. masses --      1.6440                 1.4086                 2.0068
 Frc consts  --      1.1068                 0.9531                 1.3680
 IR Inten    --      3.0277                 3.3821                12.7649

                     31                     32                     33
                      A                      A                      A
 Frequencies --   1094.1609              1108.5951              1155.6404
 Red. masses --      5.1194                 1.9489                 1.9875
 Frc consts  --      3.6110                 1.4112                 1.5639
 IR Inten    --    138.2426                25.1404                19.1618

                     34                     35                     36
                      A                      A                      A
 Frequencies --   1177.5093              1207.0063              1230.5348
 Red. masses --      3.4383                 1.1416                 1.0960
 Frc consts  --      2.8088                 0.9799                 0.9778
 IR Inten    --      1.7134                 2.4066                23.3983

                     37                     38                     39
                      A                      A                      A
 Frequencies --   1243.4231              1271.0383              1281.3626
 Red. masses --      1.2743                 1.3794                 1.1952
 Frc consts  --      1.1608                 1.3130                 1.1562
 IR Inten    --      3.6312                 1.6757                 1.5049

                     40                     41                     42
                      A                      A                      A
 Frequencies --   1302.2428              1328.8707              1347.5159
 Red. masses --      1.3326                 1.3273                 1.4841
 Frc consts  --      1.3315                 1.3809                 1.5878
 IR Inten    --      7.0931                 2.5388                 7.4729

                     43                     44                     45
                      A                      A                      A
 Frequencies --   1368.1089              1388.6847              1408.9244
 Red. masses --      1.3104                 1.3785                 1.3692
 Frc consts  --      1.4451                 1.5662                 1.6014
 IR Inten    --      5.0769                 4.1392                 7.0501

                     46                     47                     48
                      A                      A                      A
 Frequencies --   1415.3955              1445.4977              1484.7378
 Red. masses --      1.4064                 1.2456                 1.2310
 Frc consts  --      1.6601                 1.5334                 1.5988
 IR Inten    --      5.4769                 6.0798                73.5250

                     49                     50                     51
                      A                      A                      A
 Frequencies --   1504.9464              1509.5893              1509.9284
 Red. masses --      1.0865                 1.0404                 1.0405
 Frc consts  --      1.4498                 1.3969                 1.3976
 IR Inten    --      9.7674                 5.7033                 6.4009

                     52                     53                     54
                      A                      A                      A
 Frequencies --   1519.9412              1542.0105              1556.3314
 Red. masses --      1.0892                 1.0850                 1.1023
 Frc consts  --      1.4826                 1.5200                 1.5732
 IR Inten    --      4.0518                 1.7312                 2.7531

                     55                     56                     57
                      A                      A                      A
 Frequencies --   2371.8399              3009.8731              3036.3398
 Red. masses --     11.8031                 1.0727                 1.0651
 Frc consts  --     39.1217                 5.7255                 5.7855
 IR Inten    --      0.0701                58.0709                20.4939

                     58                     59                     60
                      A                      A                      A
 Frequencies --   3037.3329              3037.7756              3051.9913
 Red. masses --      1.0418                 1.0635                 1.0824
 Frc consts  --      5.6628                 5.7822                 5.9401
 IR Inten    --     58.3930                49.3099                35.0247

                     61                     62                     63
                      A                      A                      A
 Frequencies --   3079.4127              3081.6047              3097.0302
 Red. masses --      1.0987                 1.0632                 1.1015
 Frc consts  --      6.1387                 5.9489                 6.2247
 IR Inten    --     24.7442                31.0860                14.9724

                     64                     65                     66
                      A                      A                      A
 Frequencies --   3098.1011              3111.7098              3119.9622
 Red. masses --      1.1015                 1.0858                 1.0983
 Frc consts  --      6.2289                 6.1942                 6.2987
 IR Inten    --     13.4712                21.0319                 5.2005

                     67                     68                     69
                      A                      A                      A
 Frequencies --   3131.4814              3137.6267              3628.3446
 Red. masses --      1.0924                 1.1039                 1.0665
 Frc consts  --      6.3113                 6.4028                 8.2720
 IR Inten    --     25.1603                35.5186               135.9679

 - Thermochemistry -
 -------------------
 Temperature   298.150 Kelvin.  Pressure   1.00000 Atm.
 Atom     1 has atomic number  6 and mass  12.00000

 Molecular mass:   154.09938 amu.
 Principal axes and moments of inertia in atomic units:
                           1         2         3
     Eigenvalues --   838.983153199.061833491.59112
           X            0.99997  -0.00558   0.00466
           Y            0.00541   0.99935   0.03560
           Z           -0.00486  -0.03558   0.99936
 This molecule is an asymmetric top.
 Rotational symmetry number  1.
 Warning -- assumption of classical behavior for rotation
           may cause significant error
 Rotational temperatures (Kelvin)      0.10324     0.02707     0.02481
 Rotational constants (GHZ):           2.15111     0.56415     0.51688
 Zero-point vibrational energy     573201.0 (Joules/Mol)
                                  136.99833 (Kcal/Mol)
 Warning -- explicit consideration of  16 degrees of freedom as
           vibrations may cause significant error
 Vibrational temperatures:     19.72    53.17    92.65   133.61   165.16
          (Kelvin)            286.28   342.98   365.85   388.64   474.90
                              524.32   558.89   597.83   760.68   777.93
                              853.46  1022.01  1081.59  1135.14  1165.03
                             1208.88  1332.51  1337.03  1354.42  1422.66
                             1456.30  1494.62  1537.99  1541.82  1547.64
                             1574.25  1595.02  1662.71  1694.17  1736.61
                             1770.47  1789.01  1828.74  1843.59  1873.64
                             1911.95  1938.77  1968.40  1998.01  2027.13
                             2036.44  2079.75  2136.21  2165.28  2171.96
                             2172.45  2186.86  2218.61  2239.21  3412.55
                             4330.54  4368.62  4370.04  4370.68  4391.13
                             4430.59  4433.74  4455.94  4457.48  4477.06
                             4488.93  4505.50  4514.34  5220.38

 Zero-point correction=                           0.218321 (Hartree/Particle)
 Thermal correction to Energy=                    0.230118
 Thermal correction to Enthalpy=                  0.231062
 Thermal correction to Gibbs Free Energy=         0.178187
 Sum of electronic and zero-point Energies=           -501.575402
 Sum of electronic and thermal Energies=              -501.563605
 Sum of electronic and thermal Enthalpies=            -501.562660
 Sum of electronic and thermal Free Energies=         -501.615535

                     E (Thermal)             CV                S
                      KCal/Mol        Cal/Mol-Kelvin    Cal/Mol-Kelvin
 Total                  144.401             42.521            111.285
 Electronic               0.000              0.000              0.000
 Translational            0.889              2.981             41.007
 Rotational               0.889              2.981             30.617
 Vibrational            142.624             36.559             39.661
 Vibration     1          0.593              1.986              7.384
 Vibration     2          0.594              1.982              5.416
 Vibration     3          0.597              1.971              4.318
 Vibration     4          0.602              1.954              3.599
 Vibration     5          0.608              1.937              3.186
 Vibration     6          0.637              1.841              2.143
 Vibration     7          0.656              1.782              1.815
 Vibration     8          0.665              1.756              1.701
 Vibration     9          0.674              1.728              1.595
 Vibration    10          0.713              1.615              1.260
 Vibration    11          0.738              1.545              1.103
 Vibration    12          0.757              1.495              1.006
 Vibration    13          0.779              1.437              0.907
 Vibration    14          0.884              1.186              0.590
 Vibration    15          0.896              1.160              0.564
 Vibration    16          0.951              1.046              0.462

 Optimization completed.
    -- Stationary point found.

 1\1\GINC-NODE119\Freq\RB3LYP\6-31G(d)\C9H14O2\VSC10255\08-Dec-2020\0\\
 #N Geom=AllCheck Guess=TCheck SCRF=Check GenChk RB3LYP/6-31G(d) Freq\\
 CID_65330728_JID_1553_neutraal\\0,1\C,0.9635047809,0.2873384244,0.1261
 218718\C,0.4453584045,1.0040405453,1.2883691785\C,-0.0016803459,1.5873
 730541,2.2493022762\C,-0.4865389238,2.3126458063,3.422097397\C,0.64326
 32124,2.985816332,4.2381437341\C,1.498849284,3.9646814138,3.4117098985
 \C,2.5797634277,4.6400825718,4.2895159959\C,1.9289347838,5.9803274413,
 4.7155933181\O,0.6237502158,6.0175624165,4.109411494\C,0.7030066109,5.

 Normal termination of Gaussian 16 at Tue Dec  8 20:35:17 2020.

 ----------------------------------------------------------------------
 # B3LYP/6-311++G(d,p) empiricaldispersion=gd3bj scf=xqc pop=npa geom=c
 heck
 ----------------------------------------------------------------------

 --------------------------------------
 CID_65330728_JID_1553_Energie_neutraal
 --------------------------------------
 Structure from the checkpoint file:  "JID_1553.chk"
 Charge =  0 Multiplicity = 1

 SCF Done:  E(RB3LYP) =  -501.946006606     A.U. after   14 cycles
 Normal termination of Gaussian 16 at Tue Dec  8 20:37:57 2020.

 ----------------------------------------------------------------------
 # B3LYP/6-311++G(d,p) empiricaldispersion=gd3bj scf=xqc pop=npa geom=c
 heck
 ----------------------------------------------------------------------

 ------------------------------------
 CID_65330728_JID_1553_Energie_kation
 ------------------------------------
 Structure from the checkpoint file:  "JID_1553.chk"
 Charge =  1 Multiplicity = 2

 SCF Done:  E(UB3LYP) =  -501.622843611     A.U. after   26 cycles
 Normal termination of Gaussian 16 at Tue Dec  8 20:44:59 2020.
 Gaussian 16:  ES64L-G16RevA.03 25-Dec-2016

 -----------------------------------
 CID_65330728_JID_1553_Energie_anion
 -----------------------------------
 Structure from the checkpoint file:  "JID_1553.chk"
 Charge = -1 Multiplicity = 2

                         Standard orientation:
 ---------------------------------------------------------------------
 Center     Atomic      Atomic             Coordinates (Angstroms)
 Number     Number       Type             X           Y           Z
 ---------------------------------------------------------------------
      1          6           0        4.403702   -0.996474   -0.124184
      2          6           0        3.222833   -0.155113    0.050792
      3          6           0        2.256526    0.556309    0.204554
      4          6           0        1.057789    1.379191    0.354389
      5          6           0       -0.122847    0.911033   -0.530185
      6          6           0       -0.534181   -0.552634   -0.281832
      7          6           0       -1.746037   -0.948816   -1.159062
      8          6           0       -2.966481   -0.723675   -0.231051
      9          8           0       -2.447904   -0.259799    1.029206
     10          6           0       -1.112454   -0.770241    1.121992
     11          8           0       -1.215161    1.810031   -0.382379
     12          1           0        4.464619   -1.767719    0.653372
     13          1           0        5.325210   -0.403677   -0.075221
     14          1           0        4.390302   -1.505917   -1.095463
     15          1           0        0.736659    1.398114    1.404707
     16          1           0        1.268790    2.421481    0.086202
     17          1           0        0.198292    0.991918   -1.576180
     18          1           0        0.334722   -1.191566   -0.461365
     19          1           0       -1.678390   -1.997528   -1.463666
     20          1           0       -1.804025   -0.335920   -2.062070
     21          1           0       -3.652474    0.043201   -0.598009
     22          1           0       -3.528789   -1.653099   -0.069780
     23          1           0       -1.124200   -1.839650    1.384339
     24          1           0       -0.608363   -0.225106    1.923434
     25          1           0       -1.770940    1.466127    0.342607
 ---------------------------------------------------------------------

 SCF Done:  E(UB3LYP) =  -501.932162192     A.U. after   30 cycles

 The electronic state is 2-A.
 Alpha  occ. eigenvalues --  -19.03757 -19.01944 -10.12764 -10.12078 -10.11973
 Alpha  occ. eigenvalues --  -10.09127 -10.07969 -10.07898 -10.07257 -10.06169
 Alpha  occ. eigenvalues --  -10.05645  -0.95453  -0.92247  -0.71254  -0.68290
 Alpha  occ. eigenvalues --   -0.65735  -0.64127  -0.58573  -0.54402  -0.50258
 Alpha  occ. eigenvalues --   -0.48646  -0.42480  -0.40820  -0.38990  -0.37289
 Alpha  occ. eigenvalues --   -0.36142  -0.34502  -0.33985  -0.32816  -0.32099
 Alpha  occ. eigenvalues --   -0.31962  -0.30636  -0.29880  -0.27629  -0.25406
 Alpha  occ. eigenvalues --   -0.25152  -0.23483  -0.22112  -0.19024  -0.16941
 Alpha  occ. eigenvalues --   -0.15341  -0.14915   0.04547
 Alpha virt. eigenvalues --    0.06589   0.08229   0.08315   0.08833   0.09677
 Alpha virt. eigenvalues --    0.10316   0.10583   0.10889   0.11295   0.12123
 Alpha virt. eigenvalues --    0.12700   0.13888   0.14657   0.15265   0.15329

  Beta  occ. eigenvalues --  -19.03754 -19.01940 -10.12759 -10.12057 -10.11945
  Beta  occ. eigenvalues --  -10.09118 -10.07901 -10.07889 -10.07233 -10.06166
  Beta  occ. eigenvalues --  -10.05641  -0.95442  -0.92237  -0.71229  -0.68253
  Beta  occ. eigenvalues --   -0.65683  -0.64081  -0.58513  -0.54360  -0.50193
  Beta  occ. eigenvalues --   -0.48616  -0.42460  -0.40765  -0.38950  -0.37262
  Beta  occ. eigenvalues --   -0.36103  -0.34458  -0.33948  -0.32782  -0.32037
  Beta  occ. eigenvalues --   -0.31897  -0.30611  -0.29857  -0.27607  -0.25363
  Beta  occ. eigenvalues --   -0.25120  -0.23459  -0.22089  -0.19012  -0.16908
  Beta  occ. eigenvalues --   -0.15320  -0.14896
  Beta virt. eigenvalues --    0.06949   0.07618   0.08572   0.08857   0.09344
  Beta virt. eigenvalues --    0.10148   0.10743   0.11200   0.11383   0.11713
  Beta virt. eigenvalues --    0.12503   0.13048   0.14043   0.14708   0.15362

 Mulliken charges and spin densities:
               1          2
     1  C    3.241737  -3.658028
     2  C   -2.300983   2.101227
     3  C   -0.603725   0.970939
     4  C    0.526176  -1.127021
     5  C    0.451922  -0.902299
     6  C   -1.507006   1.914662
     7  C    0.707181  -0.916572
     8  C    0.108627  -0.594233
     9  O   -0.172787   0.021911
    10  C    0.860851  -1.487135
    11  O   -0.211154   0.002337
    12  H   -0.456683   0.618107
    13  H   -0.422077   0.577200
    14  H   -0.467360   0.634058
    15  H    0.088076   0.038235
    16  H    0.139419   0.051685
    17  H    0.013018   0.164886
    18  H   -0.145548   0.432901
    19  H   -0.475024   0.657274
    20  H   -0.036070   0.188312
    21  H    0.026181   0.152616
    22  H   -0.170880   0.319583
    23  H   -0.475059   0.658361
    24  H    0.025403   0.151803
    25  H    0.255766   0.029192
 Sum of Mulliken charges =  -1.00000   1.00000

 Dipole moment (field-independent basis, Debye):
    X=             -4.9833    Y=              5.5607    Z=              0.8417  Tot=              7.5142
 Quadrupole moment (field-independent basis, Debye-Ang):
   XX=           -146.8848   YY=           -112.5237   ZZ=            -96.6805
   XY=              5.4547   XZ=              1.9477   YZ=              0.5410

 Summary of Natural Population Analysis:

                                       Natural Population
                Natural  -----------------------------------------------
    Atom  No    Charge         Core      Valence    Rydberg      Total
 -----------------------------------------------------------------------
      C    1   -0.31950      0.99961     2.31354    0.00635     3.31950
      C    2    0.00272      0.99924     1.99169    0.00636     2.99728
      C    3   -0.02643      0.99925     2.01863    0.00856     3.02643
      C    4   -0.23297      0.99956     2.22363    0.00979     3.23297
      C    5    0.07693      0.99954     1.90879    0.01475     2.92307
      C    6   -0.13966      0.99957     2.12731    0.01278     3.13966
      C    7   -0.20624      0.99963     2.19718    0.00943     3.20624
      C    8   -0.01434      0.99960     2.00236    0.01237     3.01434
      O    9   -0.31085      0.99990     3.30278    0.00818     4.31085
      C   10   -0.01710      0.99957     2.00328    0.01425     3.01710
      O   11   -0.38190      0.99990     3.37555    0.00645     4.38190
      H   12    0.11386      0.00000     0.38404    0.00210     0.38614
      H   13    0.11107      0.00000     0.38705    0.00188     0.38893
      H   14    0.11462      0.00000     0.38300    0.00238     0.38538
      H   15    0.10629      0.00000     0.39226    0.00145     0.39371
      H   16    0.11293      0.00000     0.38587    0.00120     0.38707
      H   17    0.08584      0.00000     0.41232    0.00185     0.41416
      H   18    0.12106      0.00000     0.37680    0.00215     0.37894
      H   19    0.10692      0.00000     0.39082    0.00226     0.39308
      H   20    0.10477      0.00000     0.39398    0.00125     0.39523
      H   21    0.08879      0.00000     0.41010    0.00111     0.41121
      H   22    0.08498      0.00000     0.41337    0.00165     0.41502
      H   23    0.08901      0.00000     0.40895    0.00203     0.41099
      H   24    0.09279      0.00000     0.40569    0.00152     0.40721
      H   25    0.23641      0.00000     0.26004    0.00355     0.26359
 =======================================================================
   * Total *   -0.00000     10.99537    30.86900    0.13563    42.00000

 Normal termination of Gaussian 16 at Tue Dec  8 20:53:48 2020.
