 Gaussian 16, Revision A.03,

 -----------------------------------------------------------
 # opt freq B3LYP/6-31G(d) empiricaldispersion=gd3bj scf=xqc
 -----------------------------------------------------------

 ------------------------------
 CID_126761774_JID_372_neutraal
 ------------------------------
 Symbolic Z-matrix:
 Charge =  0 Multiplicity = 1

 SCF Done:  E(RB3LYP) =  -1123.31425078     A.U. after   14 cycles
 SCF Done:  E(RB3LYP) =  -1123.31759570     A.U. after   12 cycles
 SCF Done:  E(RB3LYP) =  -1123.31722474     A.U. after   13 cycles
 SCF Done:  E(RB3LYP) =  -1123.31837271     A.U. after   12 cycles
 SCF Done:  E(RB3LYP) =  -1123.31844160     A.U. after   11 cycles
 SCF Done:  E(RB3LYP) =  -1123.31845372     A.U. after   10 cycles
 SCF Done:  E(RB3LYP) =  -1123.31846087     A.U. after   10 cycles
 SCF Done:  E(RB3LYP) =  -1123.31846796     A.U. after   11 cycles
 SCF Done:  E(RB3LYP) =  -1123.31847352     A.U. after   10 cycles
 SCF Done:  E(RB3LYP) =  -1123.31847566     A.U. after   10 cycles
 SCF Done:  E(RB3LYP) =  -1123.31847614     A.U. after    8 cycles
 SCF Done:  E(RB3LYP) =  -1123.31847619     A.U. after    7 cycles
 Optimization completed.
    -- Stationary point found.
 Normal termination of Gaussian 16 at Tue Dec  8 10:29:02 2020.

 --------------------------------------------------------------------
 #N Geom=AllCheck Guess=TCheck SCRF=Check GenChk RB3LYP/6-31G(d) Freq
 --------------------------------------------------------------------

 Structure from the checkpoint file:  "JID_372.chk"
 ------------------------------
 CID_126761774_JID_372_neutraal
 ------------------------------
 Charge =  0 Multiplicity = 1

 SCF Done:  E(RB3LYP) =  -1123.31847619     A.U. after    1 cycles

  Exact polarizability: 144.692  -3.417 102.566   3.658   7.017  90.950
 Approx polarizability: 210.408  -5.494 167.604   9.665  12.341 163.338

                      1                      2                      3
                      A                      A                      A
 Frequencies --     30.7465                51.8063               129.6844
 Red. masses --      4.2294                 8.1093                 3.6473
 Frc consts  --      0.0024                 0.0128                 0.0361
 IR Inten    --      0.3101                 0.0929                 4.1622

                      4                      5                      6
                      A                      A                      A
 Frequencies --    173.3867               220.5629               278.8794
 Red. masses --      5.0335                 3.4777                 1.2381
 Frc consts  --      0.0892                 0.0997                 0.0567
 IR Inten    --      0.6658                 2.1069                 0.5069

                      7                      8                      9
                      A                      A                      A
 Frequencies --    328.2021               355.6138               382.1874
 Red. masses --      1.8538                 1.6963                 3.5309
 Frc consts  --      0.1176                 0.1264                 0.3039
 IR Inten    --     16.6313                 7.4906                 9.3019

                     10                     11                     12
                      A                      A                      A
 Frequencies --    418.6544               423.4779               425.7376
 Red. masses --      3.6507                 4.5985                13.1270
 Frc consts  --      0.3770                 0.4859                 1.4018
 IR Inten    --      7.2658                 1.3069                44.2605

                     13                     14                     15
                      A                      A                      A
 Frequencies --    502.0618               547.4861               634.1588
 Red. masses --      4.5601                 3.4199                 6.3094
 Frc consts  --      0.6772                 0.6040                 1.4950
 IR Inten    --      8.4419                 3.3108                 0.0838

                     16                     17                     18
                      A                      A                      A
 Frequencies --    694.6940               706.4200               773.5001
 Red. masses --      6.0699                 2.0158                 1.7652
 Frc consts  --      1.7259                 0.5927                 0.6222
 IR Inten    --     11.3430                18.1417                41.4122

                     19                     20                     21
                      A                      A                      A
 Frequencies --    838.0232               850.3671               864.0573
 Red. masses --      1.2542                 1.0797                 3.8010
 Frc consts  --      0.5189                 0.4600                 1.6720
 IR Inten    --      1.8871                 7.9363                67.3796

                     22                     23                     24
                      A                      A                      A
 Frequencies --    906.9143               960.7395               988.4714
 Red. masses --      1.4302                 1.3290                 1.2413
 Frc consts  --      0.6931                 0.7228                 0.7146
 IR Inten    --      5.0780                 0.4408                 0.3472

                     25                     26                     27
                      A                      A                      A
 Frequencies --   1017.7648              1061.3046              1097.2914
 Red. masses --      5.7504                 2.4719                 3.4736
 Frc consts  --      3.5095                 1.6404                 2.4642
 IR Inten    --      0.0890                10.0217                30.6582

                     28                     29                     30
                      A                      A                      A
 Frequencies --   1123.7680              1150.9244              1193.7430
 Red. masses --      1.6662                 1.3774                 1.2843
 Frc consts  --      1.2397                 1.0750                 1.0783
 IR Inten    --     16.5735                12.3443                 2.0663

                     31                     32                     33
                      A                      A                      A
 Frequencies --   1196.7657              1221.5303              1300.4711
 Red. masses --      1.3388                 1.1548                 3.8956
 Frc consts  --      1.1297                 1.0152                 3.8817
 IR Inten    --      4.1146                 2.6539                73.2347

                     34                     35                     36
                      A                      A                      A
 Frequencies --   1354.1192              1374.8647              1473.0766
 Red. masses --      2.8937                 1.8364                 1.1634
 Frc consts  --      3.1262                 2.0452                 1.4874
 IR Inten    --      3.0582                 0.7673                 1.4300

                     37                     38                     39
                      A                      A                      A
 Frequencies --   1503.7740              1517.2248              1539.1122
 Red. masses --      2.2347                 1.0580                 1.0785
 Frc consts  --      2.9774                 1.4349                 1.5052
 IR Inten    --      2.8668                19.6896                22.5269

                     40                     41                     42
                      A                      A                      A
 Frequencies --   1546.5798              1643.4486              1662.8458
 Red. masses --      2.0910                 5.6946                 5.5429
 Frc consts  --      2.9468                 9.0620                 9.0301
 IR Inten    --     52.8271                 6.2461                42.9273

                     43                     44                     45
                      A                      A                      A
 Frequencies --   2640.9010              3029.2249              3116.3228
 Red. masses --      1.0393                 1.0469                 1.0906
 Frc consts  --      4.2705                 5.6599                 6.2400
 IR Inten    --     16.5241                31.4061                22.9970

                     46                     47                     48
                      A                      A                      A
 Frequencies --   3168.5309              3187.1327              3195.1373
 Red. masses --      1.1023                 1.0854                 1.0898
 Frc consts  --      6.5206                 6.4956                 6.5549
 IR Inten    --      8.6246                 1.7638                16.9081

                     49                     50                     51
                      A                      A                      A
 Frequencies --   3211.4811              3222.9346              3233.3418
 Red. masses --      1.0944                 1.0936                 1.0917
 Frc consts  --      6.6499                 6.6927                 6.7246
 IR Inten    --     30.1151                 4.7629                 7.6295

 - Thermochemistry -
 -------------------
 Temperature   298.150 Kelvin.  Pressure   1.00000 Atm.
 Atom     1 has atomic number  6 and mass  12.00000

 Molecular mass:   171.01764 amu.
 Principal axes and moments of inertia in atomic units:
                           1         2         3
     Eigenvalues --  1047.794802902.842853143.48087
           X            0.99979  -0.01976   0.00489
           Y            0.01937   0.99737   0.06988
           Z           -0.00626  -0.06977   0.99754
 This molecule is an asymmetric top.
 Rotational symmetry number  1.
 Warning -- assumption of classical behavior for rotation
           may cause significant error
 Rotational temperatures (Kelvin)      0.08266     0.02984     0.02755
 Rotational constants (GHZ):           1.72242     0.62172     0.57412
 Zero-point vibrational energy     385612.9 (Joules/Mol)
                                   92.16370 (Kcal/Mol)
 Warning -- explicit consideration of  14 degrees of freedom as
           vibrations may cause significant error
 Vibrational temperatures:     44.24    74.54   186.59   249.46   317.34
          (Kelvin)            401.25   472.21   511.65   549.88   602.35
                              609.29   612.54   722.35   787.71   912.41
                              999.51  1016.38  1112.89  1205.73  1223.49
                             1243.19  1304.85  1382.29  1422.19  1464.34
                             1526.98  1578.76  1616.85  1655.92  1717.53
                             1721.88  1757.51  1871.09  1948.28  1978.12
                             2119.43  2163.60  2182.95  2214.44  2225.18
                             2364.56  2392.46  3799.67  4358.38  4483.69
                             4558.81  4585.57  4597.09  4620.61  4637.08
                             4652.06

 Zero-point correction=                           0.146872 (Hartree/Particle)
 Thermal correction to Energy=                    0.157038
 Thermal correction to Enthalpy=                  0.157982
 Thermal correction to Gibbs Free Energy=         0.109853
 Sum of electronic and zero-point Energies=          -1123.171604
 Sum of electronic and thermal Energies=             -1123.161439
 Sum of electronic and thermal Enthalpies=           -1123.160494
 Sum of electronic and thermal Free Energies=        -1123.208624

                     E (Thermal)             CV                S
                      KCal/Mol        Cal/Mol-Kelvin    Cal/Mol-Kelvin
 Total                   98.543             37.808            101.296
 Electronic               0.000              0.000              0.000
 Translational            0.889              2.981             41.317
 Rotational               0.889              2.981             30.637
 Vibrational             96.765             31.847             29.342
 Vibration     1          0.594              1.984              5.781
 Vibration     2          0.596              1.977              4.747
 Vibration     3          0.612              1.924              2.951
 Vibration     4          0.627              1.875              2.398
 Vibration     5          0.647              1.810              1.954
 Vibration     6          0.679              1.713              1.541
 Vibration     7          0.711              1.619              1.269
 Vibration     8          0.731              1.564              1.141
 Vibration     9          0.752              1.508              1.030
 Vibration    10          0.782              1.430              0.897
 Vibration    11          0.786              1.419              0.880
 Vibration    12          0.788              1.414              0.873
 Vibration    13          0.857              1.245              0.653
 Vibration    14          0.903              1.145              0.549

 Optimization completed.
    -- Stationary point found.
 Normal termination of Gaussian 16 at Tue Dec  8 10:32:45 2020.

 ----------------------------------------------------------------------
 # B3LYP/6-311++G(d,p) empiricaldispersion=gd3bj scf=xqc pop=npa geom=c
 heck
 ----------------------------------------------------------------------

 --------------------------------------
 CID_126761774_JID_372_Energie_neutraal
 --------------------------------------
 Structure from the checkpoint file:  "JID_372.chk"
 Charge =  0 Multiplicity = 1

 SCF Done:  E(RB3LYP) =  -1123.46324708     A.U. after   16 cycles
 Normal termination of Gaussian 16 at Tue Dec  8 10:35:27 2020.

 ----------------------------------------------------------------------
 # B3LYP/6-311++G(d,p) empiricaldispersion=gd3bj scf=xqc pop=npa geom=c
 heck
 ----------------------------------------------------------------------

 ------------------------------------
 CID_126761774_JID_372_Energie_kation
 ------------------------------------
 Structure from the checkpoint file:  "JID_372.chk"
 Charge =  1 Multiplicity = 2

 SCF Done:  E(UB3LYP) =  -1123.17236865     A.U. after   27 cycles
 Normal termination of Gaussian 16 at Tue Dec  8 10:42:15 2020.
 Gaussian 16:  ES64L-G16RevA.03 25-Dec-2016

 ----------------------------------------------------------------------
 # B3LYP/6-311++G(d,p) empiricaldispersion=gd3bj scf=xqc pop=npa geom=c
 heck
 ----------------------------------------------------------------------

 -----------------------------------
 CID_126761774_JID_372_Energie_anion
 -----------------------------------
 Structure from the checkpoint file:  "JID_372.chk"
 Charge = -1 Multiplicity = 2

                         Standard orientation:
 ---------------------------------------------------------------------
 Center     Atomic      Atomic             Coordinates (Angstroms)
 Number     Number       Type             X           Y           Z
 ---------------------------------------------------------------------
      1          6           0       -0.992762    2.179649   -0.175519
      2          7           0       -0.602370    0.856594   -0.661863
      3          6           0        0.690304    0.367206   -0.314472
      4          6           0        1.193214   -0.781621   -0.946960
      5          6           0        2.459688   -1.259553   -0.632050
      6          6           0        3.255939   -0.602412    0.310594
      7          6           0        2.761742    0.538574    0.936256
      8          6           0        1.486529    1.022007    0.634757
      9         16           0       -1.866326   -0.261140   -0.845845
     10         16           0       -2.401993   -0.925185    1.105827
     11          1           0       -0.202689    2.897619   -0.412758
     12          1           0       -1.174354    2.187711    0.908566
     13          1           0       -1.908748    2.476053   -0.687528
     14          1           0        0.584164   -1.289337   -1.686595
     15          1           0        2.831748   -2.147709   -1.135097
     16          1           0        4.246453   -0.976853    0.550381
     17          1           0        3.362796    1.059780    1.676128
     18          1           0        1.118047    1.899564    1.151663
     19          1           0       -1.475636   -1.904884    1.232930
 ---------------------------------------------------------------------

 SCF Done:  E(UB3LYP) =  -1123.45964797     A.U. after   33 cycles
 SCF Done:  E(UB3LYP) =  -1123.45964797     a.u. after    1 cycles

 The electronic state is 2-A.
 Alpha  occ. eigenvalues --  -88.70637 -88.68284 -14.21074 -10.07790 -10.07673
 Alpha  occ. eigenvalues --  -10.05235 -10.05159 -10.04670 -10.04140 -10.03859
 Alpha  occ. eigenvalues --   -7.79125  -7.76961  -5.75681  -5.75188  -5.74339
 Alpha  occ. eigenvalues --   -5.73323  -5.72995  -5.72397  -0.81388  -0.72270
 Alpha  occ. eigenvalues --   -0.62933  -0.62407  -0.61106  -0.55876  -0.50705
 Alpha  occ. eigenvalues --   -0.48022  -0.44544  -0.39794  -0.34789  -0.34523
 Alpha  occ. eigenvalues --   -0.32711  -0.32503  -0.30120  -0.29346  -0.26986
 Alpha  occ. eigenvalues --   -0.25148  -0.24267  -0.23317  -0.21878  -0.20563
 Alpha  occ. eigenvalues --   -0.15069  -0.13397  -0.10886  -0.09396  -0.08105
 Alpha  occ. eigenvalues --    0.05651
 Alpha virt. eigenvalues --    0.08094   0.09036   0.09822   0.10609   0.11078
 Alpha virt. eigenvalues --    0.11590   0.11717   0.12707   0.13092   0.13973
 Alpha virt. eigenvalues --    0.15215   0.15376   0.15927   0.16872   0.17160

  Beta  occ. eigenvalues --  -88.70429 -88.68112 -14.21086 -10.07673 -10.07642
  Beta  occ. eigenvalues --  -10.05269 -10.05132 -10.04679 -10.04008 -10.03784
  Beta  occ. eigenvalues --   -7.78905  -7.76782  -5.75502  -5.74740  -5.74182
  Beta  occ. eigenvalues --   -5.73070  -5.72712  -5.72271  -0.81178  -0.72122
  Beta  occ. eigenvalues --   -0.62578  -0.62090  -0.60602  -0.55509  -0.50155
  Beta  occ. eigenvalues --   -0.47940  -0.44268  -0.39681  -0.34691  -0.34294
  Beta  occ. eigenvalues --   -0.32580  -0.32442  -0.30050  -0.29159  -0.26849
  Beta  occ. eigenvalues --   -0.24721  -0.24096  -0.23114  -0.21721  -0.19796
  Beta  occ. eigenvalues --   -0.14125  -0.13095  -0.10351  -0.08909  -0.07537
  Beta virt. eigenvalues --    0.08004   0.08935   0.09672   0.10149   0.10849
  Beta virt. eigenvalues --    0.11081   0.11814   0.12205   0.12715   0.13699
  Beta virt. eigenvalues --    0.14332   0.15268   0.15465   0.16176   0.16886

 Mulliken charges and spin densities:
               1          2
     1  C   -0.257550  -0.102150
     2  N   -0.021419   0.037265
     3  C   -0.142457  -0.036056
     4  C    0.149770   0.082136
     5  C    0.112698  -0.019942
     6  C   -0.337636   0.062951
     7  C   -0.182059   0.059707
     8  C   -0.319108  -0.022802
     9  S   -0.256628   0.262668
    10  S   -0.205863   0.145564
    11  H    0.076768   0.054086
    12  H    0.147726  -0.010422
    13  H    0.002856   0.112529
    14  H   -0.050365   0.162237
    15  H    0.136477   0.002988
    16  H    0.095385  -0.011116
    17  H    0.127437   0.004076
    18  H    0.101499  -0.005542
    19  H   -0.177529   0.221824
 Sum of Mulliken charges =  -1.00000   1.00000

 Dipole moment (field-independent basis, Debye):
    X=              4.8813    Y=              2.6786    Z=             -0.4585  Tot=              5.5868
 Quadrupole moment (field-independent basis, Debye-Ang):
   XX=           -112.9231   YY=            -86.3611   ZZ=            -99.5509
   XY=             -8.2371   XZ=              5.8742   YZ=              7.0091

 Summary of Natural Population Analysis:

                                       Natural Population
                Natural  -----------------------------------------------
    Atom  No    Charge         Core      Valence    Rydberg      Total
 -----------------------------------------------------------------------
      C    1   -0.17822      0.99965     2.16967    0.00891     3.17822
      N    2   -0.32640      0.99969     2.81149    0.01522     3.82640
      C    3    0.11073      0.99946     1.87690    0.01291     2.88927
      C    4   -0.09947      0.99952     2.08914    0.01081     3.09947
      C    5   -0.10818      0.99957     2.10005    0.00855     3.10818
      C    6   -0.10416      0.99957     2.09513    0.00945     3.10416
      C    7   -0.09695      0.99958     2.08859    0.00878     3.09695
      C    8   -0.13030      0.99952     2.12091    0.00987     3.13030
      S    9    0.18333      4.99964     2.79039    0.02664     7.81667
      S   10   -0.06640      4.99972     3.04955    0.01713     8.06640
      H   11    0.09069      0.00000     0.40809    0.00122     0.40931
      H   12    0.08963      0.00000     0.40913    0.00124     0.41037
      H   13    0.10115      0.00000     0.39767    0.00117     0.39885
      H   14    0.10979      0.00000     0.38903    0.00118     0.39021
      H   15    0.09340      0.00000     0.40576    0.00084     0.40660
      H   16    0.09056      0.00000     0.40845    0.00099     0.40944
      H   17    0.09196      0.00000     0.40717    0.00086     0.40804
      H   18    0.09969      0.00000     0.39946    0.00085     0.40031
      H   19    0.04914      0.00000     0.44716    0.00370     0.45086
 =======================================================================
   * Total *   -0.00000     17.99592    26.86375    0.14033    45.00000

 Normal termination of Gaussian 16 at Tue Dec  8 10:50:25 2020.
