 Gaussian 16, Revision A.03,

 -----------------------------------------------------------
 # opt freq B3LYP/6-31G(d) empiricaldispersion=gd3bj scf=xqc
 -----------------------------------------------------------

 ------------------------------
 CID_81729129_JID_8658_neutraal
 ------------------------------
 Symbolic Z-matrix:
 Charge =  0 Multiplicity = 1

 SCF Done:  E(RB3LYP) =  -800.485446356     A.U. after   15 cycles
 SCF Done:  E(RB3LYP) =  -800.492695916     A.U. after   13 cycles
 SCF Done:  E(RB3LYP) =  -800.495553032     A.U. after   12 cycles
 SCF Done:  E(RB3LYP) =  -800.496953175     A.U. after   13 cycles
 SCF Done:  E(RB3LYP) =  -800.497333783     A.U. after   12 cycles
 SCF Done:  E(RB3LYP) =  -800.497476132     A.U. after   12 cycles
 SCF Done:  E(RB3LYP) =  -800.497588410     A.U. after   12 cycles
 SCF Done:  E(RB3LYP) =  -800.497722251     A.U. after   11 cycles
 SCF Done:  E(RB3LYP) =  -800.497860251     A.U. after   12 cycles
 SCF Done:  E(RB3LYP) =  -800.498093303     A.U. after   12 cycles
 SCF Done:  E(RB3LYP) =  -800.498477373     A.U. after    9 cycles
 SCF Done:  E(RB3LYP) =  -800.498479044     A.U. after    9 cycles
 SCF Done:  E(RB3LYP) =  -800.498481028     A.U. after   10 cycles
 SCF Done:  E(RB3LYP) =  -800.498481009     A.U. after    8 cycles
 SCF Done:  E(RB3LYP) =  -800.498481019     A.U. after    7 cycles
 Optimization completed.
    -- Stationary point found.
 Normal termination of Gaussian 16 at Fri Dec 11 21:38:42 2020.

 --------------------------------------------------------------------
 #N Geom=AllCheck Guess=TCheck SCRF=Check GenChk RB3LYP/6-31G(d) Freq
 --------------------------------------------------------------------

 Structure from the checkpoint file:  "JID_8658.chk"
 ------------------------------
 CID_81729129_JID_8658_neutraal
 ------------------------------
 Charge =  0 Multiplicity = 1

 SCF Done:  E(RB3LYP) =  -800.498481019     A.U. after    1 cycles

  Exact polarizability: 211.589  -9.278 175.233  -9.445   1.140 106.740
 Approx polarizability: 277.993 -27.022 300.663 -15.553   0.495 159.917

                      1                      2                      3
                      A                      A                      A
 Frequencies --     17.1416                34.0996                38.9004
 Red. masses --      4.8161                 4.7336                 4.4107
 Frc consts  --      0.0008                 0.0032                 0.0039
 IR Inten    --      0.4333                 0.3416                 0.5389

                      4                      5                      6
                      A                      A                      A
 Frequencies --     64.2379                73.5099               102.7875
 Red. masses --      1.1051                 3.5013                 5.2299
 Frc consts  --      0.0027                 0.0111                 0.0326
 IR Inten    --      1.4180                 3.2468                 2.8513

                      7                      8                      9
                      A                      A                      A
 Frequencies --    116.7620               137.0920               165.3251
 Red. masses --      5.3223                 5.9312                 5.0380
 Frc consts  --      0.0428                 0.0657                 0.0811
 IR Inten    --      3.8549                 6.6836                 1.6232

                     10                     11                     12
                      A                      A                      A
 Frequencies --    202.9690               218.3374               231.2596
 Red. masses --      2.6029                 4.2093                 4.1117
 Frc consts  --      0.0632                 0.1182                 0.1296
 IR Inten    --      0.4680                 0.1741                 2.2761

                     13                     14                     15
                      A                      A                      A
 Frequencies --    272.9828               311.2350               327.1276
 Red. masses --      2.2856                 2.5309                 2.7114
 Frc consts  --      0.1004                 0.1444                 0.1710
 IR Inten    --      2.2705                 1.2259                14.3698

                     16                     17                     18
                      A                      A                      A
 Frequencies --    372.7888               428.3500               436.1733
 Red. masses --      2.6086                 2.9787                 2.4249
 Frc consts  --      0.2136                 0.3220                 0.2718
 IR Inten    --      0.9352                 0.3041                 3.0113

                     19                     20                     21
                      A                      A                      A
 Frequencies --    439.2998               462.7408               477.0322
 Red. masses --      4.0461                 3.7993                 4.6769
 Frc consts  --      0.4601                 0.4793                 0.6271
 IR Inten    --      5.7894                 6.1094                 0.7864

                     22                     23                     24
                      A                      A                      A
 Frequencies --    489.5296               539.6177               573.8057
 Red. masses --      2.7292                 4.0218                 3.9503
 Frc consts  --      0.3853                 0.6900                 0.7663
 IR Inten    --      0.7705                 1.5599                 1.7057

                     25                     26                     27
                      A                      A                      A
 Frequencies --    588.6964               599.2350               610.9695
 Red. masses --      5.5143                 3.5709                 6.2833
 Frc consts  --      1.1260                 0.7555                 1.3819
 IR Inten    --      4.8239                11.3161                 2.4170

                     28                     29                     30
                      A                      A                      A
 Frequencies --    634.6048               638.7799               752.4269
 Red. masses --      1.7300                 1.2852                 2.4646
 Frc consts  --      0.4105                 0.3090                 0.8221
 IR Inten    --     20.2914                55.2408                20.4937

                     31                     32                     33
                      A                      A                      A
 Frequencies --    775.6780               783.2922               818.4194
 Red. masses --      5.5204                 6.1096                 1.2012
 Frc consts  --      1.9570                 2.2086                 0.4740
 IR Inten    --     13.3429                 5.1875                12.3875

                     34                     35                     36
                      A                      A                      A
 Frequencies --    839.7794               854.6243               860.3498
 Red. masses --      5.2060                 1.6658                 3.3479
 Frc consts  --      2.1631                 0.7168                 1.4601
 IR Inten    --      1.1361                 0.6400                13.5565

                     37                     38                     39
                      A                      A                      A
 Frequencies --    893.1903               900.6427               960.7634
 Red. masses --      2.2994                 2.4247                 2.3114
 Frc consts  --      1.0808                 1.1588                 1.2571
 IR Inten    --      4.6256                10.7985                26.4051

                     40                     41                     42
                      A                      A                      A
 Frequencies --    979.1651              1002.9786              1018.6632
 Red. masses --      1.3901                 2.1053                 2.3367
 Frc consts  --      0.7853                 1.2478                 1.4286
 IR Inten    --      0.0504                 4.7370                 4.6056

                     43                     44                     45
                      A                      A                      A
 Frequencies --   1054.2903              1058.8829              1073.7851
 Red. masses --      2.5194                 2.3247                 1.5409
 Frc consts  --      1.6499                 1.5357                 1.0468
 IR Inten    --     25.0975                 2.4148                 3.5812

                     46                     47                     48
                      A                      A                      A
 Frequencies --   1077.0035              1092.8403              1103.3068
 Red. masses --      2.0635                 1.9917                 2.0629
 Frc consts  --      1.4102                 1.4015                 1.4795
 IR Inten    --      2.4977                24.6370                32.2220

                     49                     50                     51
                      A                      A                      A
 Frequencies --   1122.3797              1148.0915              1174.4578
 Red. masses --      1.9876                 6.1932                 2.9324
 Frc consts  --      1.4752                 4.8097                 2.3831
 IR Inten    --      6.4405                75.9407                13.6792

                     52                     53                     54
                      A                      A                      A
 Frequencies --   1184.9925              1195.9922              1216.8288
 Red. masses --      2.4995                 2.2317                 2.5973
 Frc consts  --      2.0679                 1.8808                 2.2659
 IR Inten    --     11.7962                 0.2693                13.3982

                     55                     56                     57
                      A                      A                      A
 Frequencies --   1242.7059              1262.3651              1281.6728
 Red. masses --      1.1241                 1.3883                 1.3610
 Frc consts  --      1.0228                 1.3035                 1.3172
 IR Inten    --     13.5004                14.8335                 8.5325

                     58                     59                     60
                      A                      A                      A
 Frequencies --   1298.7034              1315.5859              1331.5533
 Red. masses --      1.7007                 2.6342                 1.3528
 Frc consts  --      1.6900                 2.6862                 1.4132
 IR Inten    --      5.0794                25.5292                 3.7875

                     61                     62                     63
                      A                      A                      A
 Frequencies --   1332.7871              1364.8076              1376.5804
 Red. masses --      1.4841                 1.4495                 1.2548
 Frc consts  --      1.5532                 1.5908                 1.4009
 IR Inten    --     25.8473                69.9187                 0.1066

                     64                     65                     66
                      A                      A                      A
 Frequencies --   1386.3212              1390.0164              1404.6728
 Red. masses --      1.5382                 1.9730                 1.3283
 Frc consts  --      1.7417                 2.2461                 1.5441
 IR Inten    --     14.3015                26.7464                19.7497

                     67                     68                     69
                      A                      A                      A
 Frequencies --   1409.5834              1428.8167              1440.7361
 Red. masses --      1.3931                 1.3640                 1.4345
 Frc consts  --      1.6309                 1.6407                 1.7543
 IR Inten    --     44.7300                 3.7648                 7.9580

                     70                     71                     72
                      A                      A                      A
 Frequencies --   1442.3192              1445.4084              1498.1960
 Red. masses --      1.3211                 1.4928                 1.0859
 Frc consts  --      1.6193                 1.8375                 1.4361
 IR Inten    --      4.6438                 2.1641                 6.9985

                     73                     74                     75
                      A                      A                      A
 Frequencies --   1507.8944              1510.8712              1514.7117
 Red. masses --      1.1039                 1.0426                 1.0972
 Frc consts  --      1.4789                 1.4022                 1.4832
 IR Inten    --      4.7950                 8.1035                22.7497

                     76                     77                     78
                      A                      A                      A
 Frequencies --   1516.2645              1525.2657              1526.7503
 Red. masses --      1.0910                 1.5965                 1.4035
 Frc consts  --      1.4778                 2.1884                 1.9275
 IR Inten    --      0.9693                11.1586                 9.6603

                     79                     80                     81
                      A                      A                      A
 Frequencies --   1533.8799              1548.8003              1574.3986
 Red. masses --      1.1415                 1.0939                 3.8977
 Frc consts  --      1.5824                 1.5460                 5.6922
 IR Inten    --      6.1515                48.1021               344.2296

                     82                     83                     84
                      A                      A                      A
 Frequencies --   1624.8433              1639.7128              2324.8801
 Red. masses --      4.9732                 6.2956                12.6656
 Frc consts  --      7.7358                 9.9729                40.3346
 IR Inten    --    165.2214               536.8805                56.4474

                     85                     86                     87
                      A                      A                      A
 Frequencies --   2980.9737              2981.3124              3001.4698
 Red. masses --      1.0712                 1.0713                 1.0708
 Frc consts  --      5.6084                 5.6100                 5.6834
 IR Inten    --     17.2633                18.5496               105.2056

                     88                     89                     90
                      A                      A                      A
 Frequencies --   3016.5442              3050.5287              3056.1416
 Red. masses --      1.0735                 1.0610                 1.0371
 Frc consts  --      5.7555                 5.8171                 5.7069
 IR Inten    --     70.1289                22.1845                 9.9117

                     91                     92                     93
                      A                      A                      A
 Frequencies --   3058.3207              3088.6001              3102.9058
 Red. masses --      1.0632                 1.0922                 1.1013
 Frc consts  --      5.8590                 6.1385                 6.2475
 IR Inten    --     22.9600                17.6705                43.4160

                     94                     95                     96
                      A                      A                      A
 Frequencies --   3107.3659              3108.8937              3110.8506
 Red. masses --      1.0927                 1.0941                 1.1022
 Frc consts  --      6.2164                 6.2303                 6.2847
 IR Inten    --     48.2768                30.9138                43.5691

                     97                     98                     99
                      A                      A                      A
 Frequencies --   3111.5872              3114.1598              3144.3389
 Red. masses --      1.1003                 1.0920                 1.1023
 Frc consts  --      6.2768                 6.2397                 6.4212
 IR Inten    --      7.9575                17.8058                17.0730

                    100                    101                    102
                      A                      A                      A
 Frequencies --   3167.8819              3215.8297              3541.7424
 Red. masses --      1.0895                 1.0933                 1.0766
 Frc consts  --      6.4418                 6.6613                 7.9566
 IR Inten    --     31.4016                14.9250               178.2579

 - Thermochemistry -
 -------------------
 Temperature   298.150 Kelvin.  Pressure   1.00000 Atm.
 Atom     1 has atomic number  6 and mass  12.00000

 Molecular mass:   246.14806 amu.
 Principal axes and moments of inertia in atomic units:
                           1         2         3
     Eigenvalues --  1855.555149593.22551**********
           X            0.99998   0.00539  -0.00422
           Y           -0.00538   0.99998   0.00217
           Z            0.00423  -0.00215   0.99999
 This molecule is an asymmetric top.
 Rotational symmetry number  1.
 Warning -- assumption of classical behavior for rotation
           may cause significant error
 Rotational temperatures (Kelvin)      0.04668     0.00903     0.00809
 Rotational constants (GHZ):           0.97262     0.18813     0.16851
 Zero-point vibrational energy     804541.1 (Joules/Mol)
                                  192.28994 (Kcal/Mol)
 Warning -- explicit consideration of  27 degrees of freedom as
           vibrations may cause significant error
 Vibrational temperatures:     24.66    49.06    55.97    92.42   105.76
          (Kelvin)            147.89   167.99   197.24   237.87   292.03
                              314.14   332.73   392.76   447.80   470.66
                              536.36   616.30   627.56   632.05   665.78
                              686.34   704.32   776.39   825.58   847.00
                              862.17   879.05   913.05   919.06  1082.57
                             1116.03  1126.98  1177.52  1208.26  1229.61
                             1237.85  1285.10  1295.82  1382.32  1408.80
                             1443.06  1465.63  1516.89  1523.50  1544.94
                             1549.57  1572.35  1587.41  1614.85  1651.85
                             1689.78  1704.94  1720.77  1750.75  1787.98
                             1816.26  1844.04  1868.54  1892.83  1915.81
                             1917.58  1963.65  1980.59  1994.61  1999.92
                             2021.01  2028.08  2055.75  2072.90  2075.18
                             2079.62  2155.57  2169.52  2173.81  2179.33
                             2181.57  2194.52  2196.65  2206.91  2228.38
                             2265.21  2337.79  2359.18  3344.98  4288.96
                             4289.44  4318.45  4340.13  4389.03  4397.11
                             4400.24  4443.81  4464.39  4470.81  4473.00
                             4475.82  4476.88  4480.58  4524.00  4557.88
                             4626.86  5095.78

 Zero-point correction=                           0.306434 (Hartree/Particle)
 Thermal correction to Energy=                    0.323358
 Thermal correction to Enthalpy=                  0.324302
 Thermal correction to Gibbs Free Energy=         0.259458
 Sum of electronic and zero-point Energies=           -800.192048
 Sum of electronic and thermal Energies=              -800.175123
 Sum of electronic and thermal Enthalpies=            -800.174179
 Sum of electronic and thermal Free Energies=         -800.239023

                     E (Thermal)             CV                S
                      KCal/Mol        Cal/Mol-Kelvin    Cal/Mol-Kelvin
 Total                  202.910             63.867            136.476
 Electronic               0.000              0.000              0.000
 Translational            0.889              2.981             42.403
 Rotational               0.889              2.981             33.610
 Vibrational            201.133             57.905             60.463
 Vibration     1          0.593              1.986              6.940
 Vibration     2          0.594              1.983              5.575
 Vibration     3          0.594              1.981              5.314
 Vibration     4          0.597              1.971              4.323
 Vibration     5          0.599              1.966              4.057
 Vibration     6          0.605              1.947              3.401
 Vibration     7          0.608              1.935              3.153
 Vibration     8          0.614              1.916              2.844
 Vibration     9          0.624              1.885              2.488
 Vibration    10          0.639              1.836              2.106
 Vibration    11          0.646              1.813              1.973
 Vibration    12          0.653              1.793              1.869
 Vibration    13          0.676              1.723              1.577
 Vibration    14          0.700              1.652              1.356
 Vibration    15          0.711              1.621              1.274
 Vibration    16          0.744              1.528              1.068
 Vibration    17          0.790              1.409              0.864
 Vibration    18          0.797              1.391              0.839
 Vibration    19          0.799              1.384              0.829
 Vibration    20          0.820              1.333              0.758
 Vibration    21          0.834              1.301              0.718
 Vibration    22          0.845              1.273              0.685
 Vibration    23          0.895              1.162              0.566
 Vibration    24          0.930              1.088              0.497
 Vibration    25          0.946              1.056              0.470
 Vibration    26          0.957              1.033              0.451
 Vibration    27          0.970              1.009              0.431

 Optimization completed.
    -- Stationary point found.
 Normal termination of Gaussian 16 at Fri Dec 11 21:55:01 2020.

 ----------------------------------------------------------------------
 # B3LYP/6-311++G(d,p) empiricaldispersion=gd3bj scf=xqc pop=npa geom=c
 heck
 ----------------------------------------------------------------------

 --------------------------------------
 CID_81729129_JID_8658_Energie_neutraal
 --------------------------------------
 Structure from the checkpoint file:  "JID_8658.chk"
 Charge =  0 Multiplicity = 1

 SCF Done:  E(RB3LYP) =  -800.716286161     A.U. after   15 cycles
 Normal termination of Gaussian 16 at Fri Dec 11 22:02:36 2020.

 ----------------------------------------------------------------------
 # B3LYP/6-311++G(d,p) empiricaldispersion=gd3bj scf=xqc pop=npa geom=c
 heck
 ----------------------------------------------------------------------

 ------------------------------------
 CID_81729129_JID_8658_Energie_kation
 ------------------------------------
 Structure from the checkpoint file:  "JID_8658.chk"
 Charge =  1 Multiplicity = 2

 SCF Done:  E(UB3LYP) =  -800.441297635     A.U. after   24 cycles
 Normal termination of Gaussian 16 at Fri Dec 11 22:20:10 2020.
 Gaussian 16:  ES64L-G16RevA.03 25-Dec-2016

 ----------------------------------------------------------------------
 # B3LYP/6-311++G(d,p) empiricaldispersion=gd3bj scf=xqc pop=npa geom=c
 heck
 ----------------------------------------------------------------------

 -----------------------------------
 CID_81729129_JID_8658_Energie_anion
 -----------------------------------
 Structure from the checkpoint file:  "JID_8658.chk"
 Charge = -1 Multiplicity = 2

                         Standard orientation:
 ---------------------------------------------------------------------
 Center     Atomic      Atomic             Coordinates (Angstroms)
 Number     Number       Type             X           Y           Z
 ---------------------------------------------------------------------
      1          6           0        4.876734    1.557137   -0.326746
      2          6           0        3.970094    0.366989   -0.170010
      3          6           0        2.590134    0.540820    0.020919
      4          6           0        1.747961   -0.605356    0.167478
      5          7           0        2.241131   -1.857019    0.118026
      6          6           0        3.555730   -1.995889   -0.061184
      7          6           0        4.455620   -0.941394   -0.207794
      8          7           0        0.418474   -0.460174    0.379812
      9          6           0       -0.516452   -1.566004    0.389660
     10          6           0       -1.871343   -1.043603    0.876931
     11          7           0       -2.242381    0.185418    0.169377
     12          6           0       -3.211054    1.030850    0.878174
     13          6           0       -4.644605    0.509462    0.761313
     14          8           0       -5.016557    0.367481   -0.605404
     15          6           0       -4.139431   -0.519578   -1.289791
     16          6           0       -2.693617   -0.022652   -1.215171
     17          6           0        2.007447    1.838352    0.066217
     18          7           0        1.486531    2.880474    0.105081
     19          1           0        5.914111    1.244650   -0.470619
     20          1           0        4.575880    2.169244   -1.184688
     21          1           0        4.828476    2.205511    0.555642
     22          1           0        3.916033   -3.023172   -0.093456
     23          1           0        5.512970   -1.134973   -0.353021
     24          1           0       -0.016245    0.449572    0.256469
     25          1           0       -0.599447   -2.021930   -0.608249
     26          1           0       -0.156070   -2.352435    1.058384
     27          1           0       -2.612944   -1.855050    0.797227
     28          1           0       -1.785152   -0.789107    1.938763
     29          1           0       -3.165972    2.032769    0.433192
     30          1           0       -2.910715    1.116546    1.928363
     31          1           0       -4.748416   -0.457888    1.282500
     32          1           0       -5.356617    1.213168    1.203301
     33          1           0       -4.485851   -0.558387   -2.327045
     34          1           0       -4.224449   -1.533742   -0.863557
     35          1           0       -2.624892    0.940225   -1.735879
     36          1           0       -2.017837   -0.720549   -1.720147
 ---------------------------------------------------------------------

 SCF Done:  E(UB3LYP) =  -800.718488965     A.U. after   33 cycles
 SCF Done:  E(UB3LYP) =  -800.718488965     a.u. after    1 cycles

 The electronic state is 2-A.
 Alpha  occ. eigenvalues --  -19.04176 -14.22071 -14.20565 -14.16292 -14.16069
 Alpha  occ. eigenvalues --  -10.13094 -10.13063 -10.11854 -10.10921 -10.10837
 Alpha  occ. eigenvalues --  -10.10538 -10.09678 -10.06572 -10.05701 -10.05652
 Alpha  occ. eigenvalues --  -10.05547 -10.05348 -10.03660  -0.95748  -0.85277
 Alpha  occ. eigenvalues --   -0.83396  -0.77769  -0.76548  -0.69436  -0.68847
 Alpha  occ. eigenvalues --   -0.66880  -0.62111  -0.59298  -0.58531  -0.57077
 Alpha  occ. eigenvalues --   -0.53370  -0.52299  -0.47933  -0.46540  -0.42334
 Alpha  occ. eigenvalues --   -0.41763  -0.39834  -0.39720  -0.39249  -0.38333
 Alpha  occ. eigenvalues --   -0.37898  -0.36461  -0.34621  -0.33080  -0.31921
 Alpha  occ. eigenvalues --   -0.31406  -0.31110  -0.30997  -0.29193  -0.28422
 Alpha  occ. eigenvalues --   -0.27805  -0.27496  -0.26750  -0.25913  -0.25396
 Alpha  occ. eigenvalues --   -0.24813  -0.23422  -0.22901  -0.22387  -0.19958
 Alpha  occ. eigenvalues --   -0.19585  -0.18390  -0.14372  -0.13130  -0.12475
 Alpha  occ. eigenvalues --   -0.08838   0.04300
 Alpha virt. eigenvalues --    0.05603   0.07012   0.07676   0.08155   0.08908
 Alpha virt. eigenvalues --    0.09459   0.09877   0.10498   0.10746   0.11221
 Alpha virt. eigenvalues --    0.11523   0.11747   0.12477   0.13240   0.13359

  Beta  occ. eigenvalues --  -19.04172 -14.22071 -14.20570 -14.16026 -14.15973
  Beta  occ. eigenvalues --  -10.13078 -10.13046 -10.11828 -10.10917 -10.10834
  Beta  occ. eigenvalues --  -10.10524 -10.09673 -10.06571 -10.05679 -10.05324
  Beta  occ. eigenvalues --  -10.05229 -10.05178 -10.03782  -0.95739  -0.85193
  Beta  occ. eigenvalues --   -0.83321  -0.77539  -0.76159  -0.68950  -0.68827
  Beta  occ. eigenvalues --   -0.66789  -0.61865  -0.59151  -0.58456  -0.57055
  Beta  occ. eigenvalues --   -0.53317  -0.51868  -0.47772  -0.46395  -0.42250
  Beta  occ. eigenvalues --   -0.41677  -0.39711  -0.39562  -0.39211  -0.38292
  Beta  occ. eigenvalues --   -0.37808  -0.36404  -0.34544  -0.32934  -0.31766
  Beta  occ. eigenvalues --   -0.31240  -0.31018  -0.30776  -0.29100  -0.28316
  Beta  occ. eigenvalues --   -0.27776  -0.27279  -0.26569  -0.25777  -0.25217
  Beta  occ. eigenvalues --   -0.24591  -0.23406  -0.22507  -0.21263  -0.19798
  Beta  occ. eigenvalues --   -0.19558  -0.17787  -0.13001  -0.12925  -0.12423
  Beta  occ. eigenvalues --   -0.08184
  Beta virt. eigenvalues --    0.06136   0.07257   0.07903   0.08117   0.08958
  Beta virt. eigenvalues --    0.09453   0.09572   0.10011   0.10469   0.10826
  Beta virt. eigenvalues --    0.11237   0.11569   0.11998   0.12432   0.13299

 Mulliken charges and spin densities:
               1          2
     1  C   -0.453117  -0.022343
     2  C    1.268561   0.244743
     3  C    1.903945   0.192741
     4  C   -1.162572  -0.013173
     5  N   -0.158900   0.020384
     6  C   -0.144224   0.318787
     7  C   -0.797538  -0.112497
     8  N   -0.001495   0.027863
     9  C   -0.077641  -0.156288
    10  C   -0.126128  -0.403727
    11  N   -0.003466   0.042399
    12  C   -0.318119   0.321663
    13  C    0.142223  -0.633809
    14  O   -0.169479   0.044586
    15  C    0.165899  -0.665740
    16  C   -0.414970   0.308546
    17  C   -1.930747  -0.062019
    18  N   -0.281866   0.130249
    19  H    0.116700   0.000087
    20  H    0.140880   0.017773
    21  H    0.135476   0.023819
    22  H    0.131230  -0.018030
    23  H    0.080967   0.006421
    24  H    0.391940   0.019173
    25  H    0.065089   0.075236
    26  H    0.181379   0.014085
    27  H   -0.008130   0.137447
    28  H    0.097660   0.065770
    29  H    0.171637   0.002067
    30  H    0.099172   0.035222
    31  H   -0.172066   0.317760
    32  H   -0.037161   0.227460
    33  H    0.038898   0.141737
    34  H   -0.190189   0.346333
    35  H    0.158344   0.024033
    36  H    0.157806  -0.018756
 Sum of Mulliken charges =  -1.00000   1.00000

 Dipole moment (field-independent basis, Debye):
    X=             -1.8493    Y=             -1.1679    Z=             -0.3500  Tot=              2.2150
 Quadrupole moment (field-independent basis, Debye-Ang):
   XX=           -181.5558   YY=           -148.6266   ZZ=           -121.4915
   XY=             -4.3318   XZ=             -1.8509   YZ=              0.6833

 Summary of Natural Population Analysis:

                                       Natural Population
                Natural  -----------------------------------------------
    Atom  No    Charge         Core      Valence    Rydberg      Total
 -----------------------------------------------------------------------
      C    1   -0.29762      0.99964     2.29376    0.00422     3.29762
      C    2    0.08453      0.99951     1.90658    0.00938     2.91547
      C    3   -0.11858      0.99934     2.11087    0.00836     3.11858
      C    4    0.23249      0.99953     1.75196    0.01601     2.76751
      N    5   -0.26640      0.99968     2.75817    0.00855     3.76640
      C    6    0.11094      0.99961     1.87510    0.01435     2.88906
      C    7   -0.18115      0.99952     2.17353    0.00810     3.18115
      N    8   -0.31724      0.99965     2.80792    0.00967     3.81724
      C    9   -0.08985      0.99963     2.07700    0.01322     3.08985
      C   10   -0.09122      0.99960     2.07944    0.01218     3.09122
      N   11   -0.28637      0.99974     2.77410    0.01253     3.78637
      C   12   -0.09636      0.99962     2.08568    0.01106     3.09636
      C   13   -0.02192      0.99958     2.00961    0.01273     3.02192
      O   14   -0.30157      0.99989     3.29182    0.00985     4.30157
      C   15   -0.02215      0.99958     2.00975    0.01282     3.02215
      C   16   -0.10207      0.99961     2.09112    0.01134     3.10207
      C   17    0.14152      0.99965     1.83978    0.01904     2.85848
      N   18   -0.17219      0.99979     2.66109    0.01131     3.67219
      H   19    0.09551      0.00000     0.40367    0.00082     0.40449
      H   20    0.10715      0.00000     0.39186    0.00098     0.39285
      H   21    0.10725      0.00000     0.39176    0.00099     0.39275
      H   22    0.07476      0.00000     0.42401    0.00123     0.42524
      H   23    0.09417      0.00000     0.40487    0.00096     0.40583
      H   24    0.20543      0.00000     0.29187    0.00271     0.29457
      H   25    0.08621      0.00000     0.41209    0.00170     0.41379
      H   26    0.10557      0.00000     0.39277    0.00166     0.39443
      H   27    0.08654      0.00000     0.41182    0.00164     0.41346
      H   28    0.09683      0.00000     0.40198    0.00118     0.40317
      H   29    0.09696      0.00000     0.40191    0.00112     0.40304
      H   30    0.09884      0.00000     0.40006    0.00109     0.40116
      H   31    0.07896      0.00000     0.41959    0.00144     0.42104
      H   32    0.09076      0.00000     0.40808    0.00117     0.40924
      H   33    0.09125      0.00000     0.40764    0.00112     0.40875
      H   34    0.07954      0.00000     0.41896    0.00150     0.42046
      H   35    0.09747      0.00000     0.40146    0.00107     0.40253
      H   36    0.10201      0.00000     0.39701    0.00097     0.39799
 =======================================================================
   * Total *    0.00000     17.99318    47.77870    0.22811    66.00000

 Normal termination of Gaussian 16 at Fri Dec 11 22:44:29 2020.
