 Gaussian 16, Revision A.03,

 -----------------------------------------------------------
 # opt freq B3LYP/6-31G(d) empiricaldispersion=gd3bj scf=xqc
 -----------------------------------------------------------

 -------------------------------
 CID_102608390_JID_4629_neutraal
 -------------------------------
 Symbolic Z-matrix:
 Charge =  0 Multiplicity = 1

 SCF Done:  E(RB3LYP) =  -720.044605544     A.U. after   15 cycles
 SCF Done:  E(RB3LYP) =  -720.050319318     A.U. after   12 cycles
 SCF Done:  E(RB3LYP) =  -720.050480727     A.U. after   12 cycles
 SCF Done:  E(RB3LYP) =  -720.050845906     A.U. after   12 cycles
 SCF Done:  E(RB3LYP) =  -720.051184413     A.U. after   11 cycles
 SCF Done:  E(RB3LYP) =  -720.051213761     A.U. after   11 cycles
 SCF Done:  E(RB3LYP) =  -720.051216061     A.U. after   12 cycles
 SCF Done:  E(RB3LYP) =  -720.051271361     A.U. after   11 cycles
 SCF Done:  E(RB3LYP) =  -720.051278250     A.U. after   10 cycles
 SCF Done:  E(RB3LYP) =  -720.051282083     A.U. after    9 cycles
 SCF Done:  E(RB3LYP) =  -720.051285041     A.U. after   10 cycles
 SCF Done:  E(RB3LYP) =  -720.051285905     A.U. after    9 cycles
 SCF Done:  E(RB3LYP) =  -720.051286632     A.U. after    9 cycles
 Optimization completed.
    -- Stationary point found.
 Normal termination of Gaussian 16 at Thu Dec 10 10:12:07 2020.

 --------------------------------------------------------------------
 #N Geom=AllCheck Guess=TCheck SCRF=Check GenChk RB3LYP/6-31G(d) Freq
 --------------------------------------------------------------------

 Structure from the checkpoint file:  "JID_4629.chk"
 -------------------------------
 CID_102608390_JID_4629_neutraal
 -------------------------------
 Charge =  0 Multiplicity = 1

 SCF Done:  E(RB3LYP) =  -720.051286632     A.U. after    1 cycles

  Exact polarizability: 157.313  -9.534 100.630   0.000  -0.001  62.286
 Approx polarizability: 215.863 -18.256 186.958  -0.004   0.001  91.112

                      1                      2                      3
                      A                      A                      A
 Frequencies --     38.7298                54.8367                67.9805
 Red. masses --      7.2246                 8.1294                 5.9124
 Frc consts  --      0.0064                 0.0144                 0.0161
 IR Inten    --      0.3382                 2.9147                 0.1582

                      4                      5                      6
                      A                      A                      A
 Frequencies --     79.5121               139.5225               152.1526
 Red. masses --      5.1882                 5.0737                 3.9219
 Frc consts  --      0.0193                 0.0582                 0.0535
 IR Inten    --      1.1652                 9.3464                 0.8094

                      7                      8                      9
                      A                      A                      A
 Frequencies --    215.9986               290.2411               312.8249
 Red. masses --      4.6070                 5.3410                 6.3263
 Frc consts  --      0.1266                 0.2651                 0.3648
 IR Inten    --      3.1028                 1.7858                 1.9103

                     10                     11                     12
                      A                      A                      A
 Frequencies --    370.5738               387.4197               438.4208
 Red. masses --      4.8870                 3.6411                 4.4177
 Frc consts  --      0.3954                 0.3220                 0.5003
 IR Inten    --      1.4095                 7.5962                10.0520

                     13                     14                     15
                      A                      A                      A
 Frequencies --    499.5134               534.9000               548.5302
 Red. masses --      5.8173                 3.9550                 3.9478
 Frc consts  --      0.8552                 0.6667                 0.6999
 IR Inten    --      5.8040                 0.0047                 8.9257

                     16                     17                     18
                      A                      A                      A
 Frequencies --    631.9915               641.7321               662.6690
 Red. masses --      1.3251                 8.5510                 3.8839
 Frc consts  --      0.3118                 2.0748                 1.0049
 IR Inten    --     91.0917                 7.5154                99.1892

                     19                     20                     21
                      A                      A                      A
 Frequencies --    714.0091               748.9709               767.3018
 Red. masses --      8.0245                 4.0830                 4.3866
 Frc consts  --      2.4103                 1.3495                 1.5216
 IR Inten    --      1.8347                39.1891                11.5402

                     22                     23                     24
                      A                      A                      A
 Frequencies --    810.7024               870.9040               903.1697
 Red. masses --      7.3219                 4.9474                 1.2594
 Frc consts  --      2.8353                 2.2109                 0.6053
 IR Inten    --     15.5404                 8.9913                 0.1013

                     25                     26                     27
                      A                      A                      A
 Frequencies --    906.5409               923.6867               979.5726
 Red. masses --      3.8072                 1.5165                 1.3964
 Frc consts  --      1.8434                 0.7623                 0.7894
 IR Inten    --     21.1537                 8.3360                 2.2856

                     28                     29                     30
                      A                      A                      A
 Frequencies --    989.2988              1040.7986              1042.0388
 Red. masses --      4.7444                 3.4790                10.5991
 Frc consts  --      2.7358                 2.2205                 6.7809
 IR Inten    --     16.3454                33.5968                93.7617

                     31                     32                     33
                      A                      A                      A
 Frequencies --   1053.4559              1129.4930              1146.6014
 Red. masses --      2.9621                 3.5214                 2.1289
 Frc consts  --      1.9368                 2.6468                 1.6490
 IR Inten    --      2.1691                52.8724               163.6631

                     34                     35                     36
                      A                      A                      A
 Frequencies --   1156.5590              1164.1668              1200.4215
 Red. masses --      2.6383                 1.0726                 1.6216
 Frc consts  --      2.0792                 0.8565                 1.3767
 IR Inten    --     90.2370                 0.0204                63.1266

                     37                     38                     39
                      A                      A                      A
 Frequencies --   1232.8056              1284.9853              1294.0663
 Red. masses --      2.1698                 3.5192                 1.3326
 Frc consts  --      1.9429                 3.4236                 1.3148
 IR Inten    --    272.3721                38.1076                 0.5321

                     40                     41                     42
                      A                      A                      A
 Frequencies --   1315.5057              1320.7241              1328.9470
 Red. masses --      1.5890                 1.3065                 2.1008
 Frc consts  --      1.6202                 1.3427                 2.1860
 IR Inten    --    104.2834                 2.4850                30.4760

                     43                     44                     45
                      A                      A                      A
 Frequencies --   1376.7343              1405.4190              1433.8403
 Red. masses --      1.8057                 2.3731                 3.6868
 Frc consts  --      2.0165                 2.7617                 4.4658
 IR Inten    --     99.1396               268.4161                34.4703

                     46                     47                     48
                      A                      A                      A
 Frequencies --   1453.8970              1526.0769              1526.8100
 Red. masses --      1.6051                 3.1730                 1.0819
 Frc consts  --      1.9990                 4.3538                 1.4860
 IR Inten    --     71.2392                57.8438                 0.1053

                     49                     50                     51
                      A                      A                      A
 Frequencies --   1554.1145              1596.2415              1628.4639
 Red. masses --      1.1679                 7.9531                 6.1996
 Frc consts  --      1.6619                11.9394                 9.6866
 IR Inten    --     12.4104                85.5313               162.6191

                     52                     53                     54
                      A                      A                      A
 Frequencies --   1817.7674              3056.7675              3064.0011
 Red. masses --      9.9945                 1.0594                 1.0671
 Frc consts  --     19.4575                 5.8322                 5.9026
 IR Inten    --    270.6575                99.9343                27.5308

                     55                     56                     57
                      A                      A                      A
 Frequencies --   3125.7237              3126.4896              3146.2392
 Red. masses --      1.1000                 1.1039                 1.0925
 Frc consts  --      6.3322                 6.3574                 6.3716
 IR Inten    --     22.5253                 1.9346                71.0811

                     58                     59                     60
                      A                      A                      A
 Frequencies --   3200.4392              3224.9734              3692.4356
 Red. masses --      1.0922                 1.0926                 1.0640
 Frc consts  --      6.5913                 6.6953                 8.5472
 IR Inten    --     11.2420                 1.7847                77.5982

 - Thermochemistry -
 -------------------
 Temperature   298.150 Kelvin.  Pressure   1.00000 Atm.
 Atom     1 has atomic number  6 and mass  12.00000

 Molecular mass:   196.04841 amu.
 Principal axes and moments of inertia in atomic units:
                           1         2         3
     Eigenvalues --   948.512335275.425725957.19431
           X            1.00000  -0.00001   0.00000
           Y            0.00001   1.00000  -0.00001
           Z           -0.00000   0.00001   1.00000
 This molecule is an asymmetric top.
 Rotational symmetry number  1.
 Warning -- assumption of classical behavior for rotation
           may cause significant error
 Rotational temperatures (Kelvin)      0.09132     0.01642     0.01454
 Rotational constants (GHZ):           1.90271     0.34210     0.30295
 Zero-point vibrational energy     432741.4 (Joules/Mol)
                                  103.42767 (Kcal/Mol)
 Warning -- explicit consideration of  15 degrees of freedom as
           vibrations may cause significant error
 Vibrational temperatures:     55.72    78.90    97.81   114.40   200.74
          (Kelvin)            218.91   310.77   417.59   450.09   533.17
                              557.41   630.79   718.69   769.60   789.21
                              909.29   923.31   953.43  1027.30  1077.60
                             1103.98  1166.42  1253.04  1299.46  1304.31
                             1328.98  1409.39  1423.38  1497.48  1499.26
                             1515.69  1625.09  1649.70  1664.03  1674.98
                             1727.14  1773.73  1848.81  1861.87  1892.72
                             1900.23  1912.06  1980.81  2022.08  2062.98
                             2091.83  2195.68  2196.74  2236.02  2296.64
                             2343.00  2615.36  4398.01  4408.41  4497.22
                             4498.32  4526.74  4604.72  4640.02  5312.59

 Zero-point correction=                           0.164822 (Hartree/Particle)
 Thermal correction to Energy=                    0.176512
 Thermal correction to Enthalpy=                  0.177457
 Thermal correction to Gibbs Free Energy=         0.125114
 Sum of electronic and zero-point Energies=           -719.886464
 Sum of electronic and thermal Energies=              -719.874774
 Sum of electronic and thermal Enthalpies=            -719.873830
 Sum of electronic and thermal Free Energies=         -719.926173

                     E (Thermal)             CV                S
                      KCal/Mol        Cal/Mol-Kelvin    Cal/Mol-Kelvin
 Total                  110.763             43.070            110.164
 Electronic               0.000              0.000              0.000
 Translational            0.889              2.981             41.725
 Rotational               0.889              2.981             31.767
 Vibrational            108.986             37.108             36.673
 Vibration     1          0.594              1.981              5.323
 Vibration     2          0.596              1.976              4.635
 Vibration     3          0.598              1.969              4.211
 Vibration     4          0.600              1.963              3.903
 Vibration     5          0.615              1.914              2.810
 Vibration     6          0.619              1.900              2.645
 Vibration     7          0.645              1.817              1.992
 Vibration     8          0.686              1.692              1.473
 Vibration     9          0.701              1.649              1.347
 Vibration    10          0.743              1.533              1.077
 Vibration    11          0.756              1.497              1.010
 Vibration    12          0.799              1.386              0.832
 Vibration    13          0.855              1.251              0.659
 Vibration    14          0.890              1.173              0.576
 Vibration    15          0.904              1.143              0.547

 Optimization completed.
    -- Stationary point found.
 Normal termination of Gaussian 16 at Thu Dec 10 10:17:35 2020.

 ----------------------------------------------------------------------
 # B3LYP/6-311++G(d,p) empiricaldispersion=gd3bj scf=xqc pop=npa geom=c
 heck
 ----------------------------------------------------------------------

 ---------------------------------------
 CID_102608390_JID_4629_Energie_neutraal
 ---------------------------------------
 Structure from the checkpoint file:  "JID_4629.chk"
 Charge =  0 Multiplicity = 1

 SCF Done:  E(RB3LYP) =  -720.261312457     A.U. after   15 cycles
 Normal termination of Gaussian 16 at Thu Dec 10 10:20:00 2020.

 ----------------------------------------------------------------------
 # B3LYP/6-311++G(d,p) empiricaldispersion=gd3bj scf=xqc pop=npa geom=c
 heck
 ----------------------------------------------------------------------

 -------------------------------------
 CID_102608390_JID_4629_Energie_kation
 -------------------------------------
 Structure from the checkpoint file:  "JID_4629.chk"
 Charge =  1 Multiplicity = 2

 SCF Done:  E(UB3LYP) =  -719.927204053     A.U. after   33 cycles
 SCF Done:  E(UB3LYP) =  -719.927372486     a.u. after    5 cycles
 Normal termination of Gaussian 16 at Thu Dec 10 10:51:02 2020.
 Gaussian 16:  ES64L-G16RevA.03 25-Dec-2016

 ----------------------------------------------------------------------
 # B3LYP/6-311++G(d,p) empiricaldispersion=gd3bj scf=xqc pop=npa geom=c
 heck
 ----------------------------------------------------------------------

 ------------------------------------
 CID_102608390_JID_4629_Energie_anion
 ------------------------------------
 Structure from the checkpoint file:  "JID_4629.chk"
 Charge = -1 Multiplicity = 2

                         Standard orientation:
 ---------------------------------------------------------------------
 Center     Atomic      Atomic             Coordinates (Angstroms)
 Number     Number       Type             X           Y           Z
 ---------------------------------------------------------------------
      1          6           0       -3.209341   -0.513716   -1.043568
      2          6           0       -2.989171    0.599488   -0.000027
      3          6           0       -3.209623   -0.513510    1.043650
      4          8           0       -3.579903   -1.441998    0.000063
      5          8           0       -1.801977    1.397304    0.000224
      6          6           0       -0.572577    0.856570   -0.000047
      7          7           0       -0.386874   -0.457824    0.000125
      8          6           0        0.884933   -0.878632    0.000042
      9          6           0        1.957430    0.011553   -0.000113
     10          7           0        1.761387    1.345966   -0.000386
     11          6           0        0.510657    1.768095   -0.000400
     12          6           0        3.341706   -0.535119   -0.000004
     13          8           0        3.590886   -1.725353   -0.000411
     14          8           0        4.294906    0.417342    0.000703
     15          1           0       -2.310205   -0.827265   -1.579503
     16          1           0       -4.029383   -0.341544   -1.750972
     17          1           0       -3.779929    1.349701   -0.000251
     18          1           0       -4.029796   -0.341334    1.750892
     19          1           0       -2.310535   -0.826917    1.579756
     20          1           0        1.057891   -1.950131    0.000120
     21          1           0        0.321972    2.838423   -0.000744
     22          1           0        5.143015   -0.064670    0.000691
 ---------------------------------------------------------------------

 SCF Done:  E(UB3LYP) =  -720.278542834     A.U. after   26 cycles

 The electronic state is 2-A.
 Alpha  occ. eigenvalues --  -19.02670 -19.01678 -19.01519 -18.94064 -14.15167
 Alpha  occ. eigenvalues --  -14.13109 -10.13012 -10.12629 -10.11100 -10.11099
 Alpha  occ. eigenvalues --  -10.09457 -10.05851 -10.04665 -10.03387  -0.95724
 Alpha  occ. eigenvalues --   -0.95255  -0.93385  -0.85734  -0.81142  -0.74199
 Alpha  occ. eigenvalues --   -0.65215  -0.60698  -0.59282  -0.53355  -0.50940
 Alpha  occ. eigenvalues --   -0.47411  -0.44581  -0.41386  -0.40810  -0.37066
 Alpha  occ. eigenvalues --   -0.35983  -0.34854  -0.32844  -0.31430  -0.31241
 Alpha  occ. eigenvalues --   -0.30115  -0.29366  -0.29339  -0.28750  -0.26493
 Alpha  occ. eigenvalues --   -0.25440  -0.23581  -0.20281  -0.19733  -0.17537
 Alpha  occ. eigenvalues --   -0.16874  -0.15774  -0.14356  -0.12976  -0.09720
 Alpha  occ. eigenvalues --   -0.08729   0.04890
 Alpha virt. eigenvalues --    0.07420   0.09324   0.10028   0.10070   0.10871
 Alpha virt. eigenvalues --    0.11276   0.12471   0.12870   0.13810   0.14967
 Alpha virt. eigenvalues --    0.16119   0.16298   0.17229   0.17945   0.18107

  Beta  occ. eigenvalues --  -19.02566 -19.01678 -19.01474 -18.93766 -14.14942
  Beta  occ. eigenvalues --  -14.12338 -10.13016 -10.12419 -10.11085 -10.11083
  Beta  occ. eigenvalues --  -10.09048 -10.05916 -10.04780 -10.03226  -0.95530
  Beta  occ. eigenvalues --   -0.95005  -0.93277  -0.85304  -0.80505  -0.73237
  Beta  occ. eigenvalues --   -0.65004  -0.60340  -0.59260  -0.52791  -0.50720
  Beta  occ. eigenvalues --   -0.47169  -0.44311  -0.41301  -0.40636  -0.36801
  Beta  occ. eigenvalues --   -0.35783  -0.34644  -0.32519  -0.31333  -0.30814
  Beta  occ. eigenvalues --   -0.29323  -0.29237  -0.28606  -0.28577  -0.26403
  Beta  occ. eigenvalues --   -0.24568  -0.23295  -0.19678  -0.19261  -0.16251
  Beta  occ. eigenvalues --   -0.15642  -0.14929  -0.13935  -0.12665  -0.08310
  Beta  occ. eigenvalues --   -0.08022
  Beta virt. eigenvalues --    0.07369   0.09246   0.10013   0.10042   0.11239
  Beta virt. eigenvalues --    0.11479   0.12397   0.12427   0.12813   0.13794
  Beta virt. eigenvalues --    0.14919   0.16144   0.16294   0.17212   0.17927

 Mulliken charges and spin densities:
               1          2
     1  C   -0.233095  -0.014619
     2  C    0.094324   0.018450
     3  C   -0.233036  -0.014838
     4  O   -0.230223   0.000970
     5  O   -0.109032   0.012453
     6  C   -0.246751   0.256712
     7  N   -0.154447   0.110961
     8  C   -0.250233  -0.009789
     9  C   -0.228151   0.093380
    10  N   -0.172039   0.360328
    11  C    0.011777  -0.077731
    12  C   -0.041588   0.116886
    13  O   -0.438286   0.098959
    14  O   -0.188110   0.008215
    15  H    0.205969   0.007019
    16  H    0.090443   0.010875
    17  H    0.215980  -0.000433
    18  H    0.090350   0.010969
    19  H    0.205959   0.007082
    20  H    0.200945   0.002484
    21  H    0.149295   0.002760
    22  H    0.259950  -0.001092
 Sum of Mulliken charges =  -1.00000   1.00000

 Dipole moment (field-independent basis, Debye):
    X=             -5.6832    Y=              1.5149    Z=              0.0001  Tot=              5.8817
 Quadrupole moment (field-independent basis, Debye-Ang):
   XX=           -117.0547   YY=           -103.4722   ZZ=            -83.2144
   XY=             -3.9911   XZ=              0.0071   YZ=             -0.0025

 Summary of Natural Population Analysis:

                                       Natural Population
                Natural  -----------------------------------------------
    Atom  No    Charge         Core      Valence    Rydberg      Total
 -----------------------------------------------------------------------
      C    1   -0.01614      0.99963     2.00654    0.00998     3.01614
      C    2    0.04817      0.99953     1.94030    0.01200     2.95183
      C    3   -0.01615      0.99963     2.00654    0.00998     3.01615
      O    4   -0.30786      0.99991     3.29647    0.01148     4.30786
      O    5   -0.27237      0.99985     3.26257    0.00996     4.27237
      C    6    0.30951      0.99948     1.67557    0.01545     2.69049
      N    7   -0.25365      0.99966     2.74284    0.01114     3.75365
      C    8    0.02290      0.99957     1.96418    0.01335     2.97710
      C    9    0.02292      0.99948     1.96406    0.01354     2.97708
      N   10   -0.09424      0.99968     2.58249    0.01207     3.59424
      C   11   -0.04013      0.99959     2.02606    0.01449     3.04013
      C   12    0.41319      0.99969     1.56208    0.02504     2.58681
      O   13   -0.31079      0.99987     3.30405    0.00686     4.31079
      O   14   -0.34013      0.99988     3.33313    0.00712     4.34013
      H   15    0.10004      0.00000     0.39863    0.00133     0.39996
      H   16    0.07366      0.00000     0.42485    0.00149     0.42634
      H   17    0.08715      0.00000     0.41167    0.00117     0.41285
      H   18    0.07366      0.00000     0.42485    0.00149     0.42634
      H   19    0.10003      0.00000     0.39863    0.00133     0.39997
      H   20    0.09455      0.00000     0.40415    0.00130     0.40545
      H   21    0.08186      0.00000     0.41656    0.00159     0.41814
      H   22    0.22382      0.00000     0.27049    0.00568     0.27618
 =======================================================================
   * Total *   -0.00000     13.99544    36.81671    0.18785    51.00000

 Normal termination of Gaussian 16 at Thu Dec 10 10:57:24 2020.
