 Gaussian 16, Revision A.03,

 ----------------------------------------------------------------------
 # opt=(cartesian,calcfc) freq B3LYP/6-31G(d) empiricaldispersion=gd3bj
  scf=xqc
 ----------------------------------------------------------------------

 ------------------------------
 CID_81685766_JID_7391_neutraal
 ------------------------------
 Symbolic Z-matrix:
 Charge =  0 Multiplicity = 1

 SCF Done:  E(RB3LYP) =  -787.085429974     A.U. after   14 cycles
 SCF Done:  E(RB3LYP) =  -787.085947876     A.U. after   11 cycles
 SCF Done:  E(RB3LYP) =  -787.086037498     A.U. after   10 cycles
 SCF Done:  E(RB3LYP) =  -787.086075954     A.U. after   10 cycles
 SCF Done:  E(RB3LYP) =  -787.086084859     A.U. after   10 cycles
 SCF Done:  E(RB3LYP) =  -787.086086049     A.U. after    9 cycles
 SCF Done:  E(RB3LYP) =  -787.086088109     A.U. after    9 cycles
 SCF Done:  E(RB3LYP) =  -787.086088485     A.U. after    8 cycles
 SCF Done:  E(RB3LYP) =  -787.086088698     A.U. after    7 cycles
 SCF Done:  E(RB3LYP) =  -787.086088588     A.U. after    7 cycles
 SCF Done:  E(RB3LYP) =  -787.086088710     A.U. after    6 cycles
 Optimization completed.
    -- Stationary point found.
 Normal termination of Gaussian 16 at Mon Jan  4 10:25:10 2021.

 --------------------------------------------------------------------
 #N Geom=AllCheck Guess=TCheck SCRF=Check GenChk RB3LYP/6-31G(d) Freq
 --------------------------------------------------------------------

 Structure from the checkpoint file:  "JID_7391.chk"
 ------------------------------
 CID_81685766_JID_7391_neutraal
 ------------------------------
 Charge =  0 Multiplicity = 1

 SCF Done:  E(RB3LYP) =  -787.086088710     A.U. after    1 cycles

  Exact polarizability: 154.875  -2.048 163.544   3.696  -0.332 132.483
 Approx polarizability: 196.143   1.025 228.132   6.392   3.383 202.074

                      1                      2                      3
                      A                      A                      A
 Frequencies --     31.4563                43.7899                52.3500
 Red. masses --      4.0916                 3.6051                 4.0697
 Frc consts  --      0.0024                 0.0041                 0.0066
 IR Inten    --      0.4892                 0.2323                 1.6257

                      4                      5                      6
                      A                      A                      A
 Frequencies --     66.4343                85.1291                94.6302
 Red. masses --      3.1163                 3.2800                 3.5524
 Frc consts  --      0.0081                 0.0140                 0.0187
 IR Inten    --      2.2478                 0.9568                 0.3313

                      7                      8                      9
                      A                      A                      A
 Frequencies --    111.3195               123.6872               157.2076
 Red. masses --      5.6746                 2.1085                 3.0739
 Frc consts  --      0.0414                 0.0190                 0.0448
 IR Inten    --      1.9039                 2.4714                 3.1909

                     10                     11                     12
                      A                      A                      A
 Frequencies --    181.4409               189.4232               207.5079
 Red. masses --      2.0949                 3.2964                 3.6052
 Frc consts  --      0.0406                 0.0697                 0.0915
 IR Inten    --      1.3349                 0.9878                 4.6543

                     13                     14                     15
                      A                      A                      A
 Frequencies --    248.9931               259.4536               268.6990
 Red. masses --      1.1094                 2.1017                 1.4278
 Frc consts  --      0.0405                 0.0834                 0.0607
 IR Inten    --      0.2324                 1.6191                 1.2057

                     16                     17                     18
                      A                      A                      A
 Frequencies --    282.5725               299.3027               326.5627
 Red. masses --      2.2344                 1.2083                 2.3559
 Frc consts  --      0.1051                 0.0638                 0.1480
 IR Inten    --      2.4418                 0.6933                 0.6278

                     19                     20                     21
                      A                      A                      A
 Frequencies --    341.9429               361.7763               386.8376
 Red. masses --      3.2108                 2.6507                 2.8348
 Frc consts  --      0.2212                 0.2044                 0.2499
 IR Inten    --      2.1960                 1.0783                 0.8858

                     22                     23                     24
                      A                      A                      A
 Frequencies --    419.8342               442.9404               458.5094
 Red. masses --      2.3723                 2.6964                 2.5202
 Frc consts  --      0.2464                 0.3117                 0.3122
 IR Inten    --     10.0743                 1.7263                 0.9212

                     25                     26                     27
                      A                      A                      A
 Frequencies --    465.4530               506.8068               524.7241
 Red. masses --      2.4975                 3.6872                 2.0452
 Frc consts  --      0.3188                 0.5580                 0.3318
 IR Inten    --      2.1891                 4.8932                36.6711

                     28                     29                     30
                      A                      A                      A
 Frequencies --    545.3644               549.7052               598.9502
 Red. masses --      2.4516                 3.5519                 1.5953
 Frc consts  --      0.4296                 0.6324                 0.3372
 IR Inten    --      7.0490                 8.5342                53.3667

                     31                     32                     33
                      A                      A                      A
 Frequencies --    681.3528               711.5756               771.1896
 Red. masses --      2.3925                 2.8243                 2.8685
 Frc consts  --      0.6544                 0.8426                 1.0052
 IR Inten    --      4.1223                33.2892                 7.1564

                     34                     35                     36
                      A                      A                      A
 Frequencies --    782.2603               836.3085               851.6949
 Red. masses --      2.6848                 1.3990                 2.9290
 Frc consts  --      0.9680                 0.5765                 1.2518
 IR Inten    --      2.1299                60.8116                24.4876

                     37                     38                     39
                      A                      A                      A
 Frequencies --    880.8973               890.1738               922.4327
 Red. masses --      2.4844                 2.5065                 1.8352
 Frc consts  --      1.1359                 1.1702                 0.9200
 IR Inten    --     10.5644                12.4349                 4.7607

                     40                     41                     42
                      A                      A                      A
 Frequencies --    939.3053               953.5798               967.6165
 Red. masses --      2.4317                 1.1931                 1.4792
 Frc consts  --      1.2641                 0.6392                 0.8160
 IR Inten    --      7.4753                 0.9565                 0.4374

                     43                     44                     45
                      A                      A                      A
 Frequencies --    986.2505               996.8355              1002.2009
 Red. masses --      2.0989                 2.1366                 2.0217
 Frc consts  --      1.2029                 1.2509                 1.1964
 IR Inten    --      8.3320                 7.2953                 4.0829

                     46                     47                     48
                      A                      A                      A
 Frequencies --   1025.0103              1053.2648              1061.3210
 Red. masses --      1.9449                 1.7972                 2.0706
 Frc consts  --      1.2039                 1.1747                 1.3742
 IR Inten    --      5.4991                 6.8121                24.7214

                     49                     50                     51
                      A                      A                      A
 Frequencies --   1073.3387              1118.8085              1129.0920
 Red. masses --      2.3130                 1.9307                 2.2082
 Frc consts  --      1.5700                 1.4239                 1.6586
 IR Inten    --     10.5767                 1.7604                13.3932

                     52                     53                     54
                      A                      A                      A
 Frequencies --   1147.4792              1158.2768              1164.3935
 Red. masses --      2.3171                 1.9953                 3.5804
 Frc consts  --      1.7976                 1.5772                 2.8601
 IR Inten    --     17.0985                 0.9903               129.0360

                     55                     56                     57
                      A                      A                      A
 Frequencies --   1171.4876              1178.7648              1190.7718
 Red. masses --      2.0753                 1.9530                 2.2527
 Frc consts  --      1.6781                 1.5988                 1.8820
 IR Inten    --     63.9556                10.1188                22.3842

                     58                     59                     60
                      A                      A                      A
 Frequencies --   1201.4765              1209.8177              1219.7829
 Red. masses --      1.8703                 1.8860                 2.4679
 Frc consts  --      1.5908                 1.6264                 2.1635
 IR Inten    --      0.7619                 9.3758                29.7487

                     61                     62                     63
                      A                      A                      A
 Frequencies --   1242.1290              1275.3083              1287.1419
 Red. masses --      1.3675                 1.2268                 1.1899
 Frc consts  --      1.2431                 1.1756                 1.1615
 IR Inten    --     16.3084                39.3996                 6.9277

                     64                     65                     66
                      A                      A                      A
 Frequencies --   1302.4101              1320.2721              1327.2704
 Red. masses --      1.3913                 1.4258                 1.3785
 Frc consts  --      1.3904                 1.4643                 1.4308
 IR Inten    --     10.0950                12.0309                33.3904

                     67                     68                     69
                      A                      A                      A
 Frequencies --   1348.1165              1354.0054              1373.0578
 Red. masses --      1.2143                 1.2585                 1.4898
 Frc consts  --      1.3002                 1.3594                 1.6549
 IR Inten    --     10.6062                26.4087                33.3936

                     70                     71                     72
                      A                      A                      A
 Frequencies --   1385.5677              1387.0039              1398.7336
 Red. masses --      1.2889                 1.2991                 1.4871
 Frc consts  --      1.4579                 1.4724                 1.7142
 IR Inten    --     10.7159                 5.5835                12.9164

                     73                     74                     75
                      A                      A                      A
 Frequencies --   1412.9816              1420.8681              1429.1470
 Red. masses --      1.5037                 1.3802                 1.3556
 Frc consts  --      1.7688                 1.6417                 1.6313
 IR Inten    --     37.0875                 2.1552                24.8585

                     76                     77                     78
                      A                      A                      A
 Frequencies --   1432.2830              1436.9837              1443.1297
 Red. masses --      1.4206                 1.4580                 1.4074
 Frc consts  --      1.7170                 1.7738                 1.7269
 IR Inten    --     22.3297                15.3731                 4.1276

                     79                     80                     81
                      A                      A                      A
 Frequencies --   1450.8378              1482.7176              1483.1606
 Red. masses --      1.2686                 1.2791                 1.3961
 Frc consts  --      1.5733                 1.6568                 1.8094
 IR Inten    --     28.4282                26.0381                29.5143

                     82                     83                     84
                      A                      A                      A
 Frequencies --   1503.2817              1507.3109              1517.1135
 Red. masses --      1.2036                 1.2121                 1.0826
 Frc consts  --      1.6025                 1.6225                 1.4681
 IR Inten    --     19.3849                15.7436                17.2204

                     85                     86                     87
                      A                      A                      A
 Frequencies --   1519.2355              1519.5505              1522.3208
 Red. masses --      1.0674                 1.0520                 1.0519
 Frc consts  --      1.4515                 1.4312                 1.4363
 IR Inten    --      6.2662                 9.9677                 1.8266

                     88                     89                     90
                      A                      A                      A
 Frequencies --   1533.8437              1535.9688              1537.2046
 Red. masses --      1.0727                 1.0898                 1.0922
 Frc consts  --      1.4869                 1.5148                 1.5206
 IR Inten    --      2.4633                 6.6853                 2.1559

                     91                     92                     93
                      A                      A                      A
 Frequencies --   1542.9537              1547.0963              1552.2250
 Red. masses --      1.0722                 1.0508                 1.0738
 Frc consts  --      1.5040                 1.4818                 1.5244
 IR Inten    --      1.7085                12.5039                 1.8411

                     94                     95                     96
                      A                      A                      A
 Frequencies --   1565.3571              1768.9727              2952.7529
 Red. masses --      1.0829                 7.6310                 1.0741
 Frc consts  --      1.5634                14.0693                 5.5177
 IR Inten    --      9.2114               323.4620                71.3500

                     97                     98                     99
                      A                      A                      A
 Frequencies --   2954.6437              2992.4812              3001.2602
 Red. masses --      1.0604                 1.0699                 1.0722
 Frc consts  --      5.4542                 5.6451                 5.6902
 IR Inten    --     67.6792                48.5031                43.8711

                    100                    101                    102
                      A                      A                      A
 Frequencies --   3009.4961              3038.8568              3043.2939
 Red. masses --      1.0685                 1.0645                 1.0385
 Frc consts  --      5.7017                 5.7920                 5.6667
 IR Inten    --     81.7853                28.2046                20.6666

                    103                    104                    105
                      A                      A                      A
 Frequencies --   3048.5806              3058.4897              3061.9667
 Red. masses --      1.0413                 1.0856                 1.0730
 Frc consts  --      5.7018                 5.9834                 5.9270
 IR Inten    --     22.6167                38.8545                 5.9539

                    106                    107                    108
                      A                      A                      A
 Frequencies --   3066.2894              3074.3663              3080.3074
 Red. masses --      1.0758                 1.0729                 1.0923
 Frc consts  --      5.9594                 5.9748                 6.1064
 IR Inten    --     21.9137                45.1674                71.5611

                    109                    110                    111
                      A                      A                      A
 Frequencies --   3086.7707              3093.6457              3102.6196
 Red. masses --      1.0931                 1.0885                 1.0926
 Frc consts  --      6.1363                 6.1378                 6.1969
 IR Inten    --      4.6079                53.5288                33.2560

                    112                    113                    114
                      A                      A                      A
 Frequencies --   3106.1479              3110.8193              3118.0725
 Red. masses --      1.0971                 1.1014                 1.1034
 Frc consts  --      6.2363                 6.2797                 6.3205
 IR Inten    --     14.7603                 5.5661                23.2095

                    115                    116                    117
                      A                      A                      A
 Frequencies --   3119.7898              3129.5723              3136.8297
 Red. masses --      1.0994                 1.1032                 1.0976
 Frc consts  --      6.3048                 6.3659                 6.3634
 IR Inten    --     56.2961                 7.0961                10.3986

                    118                    119                    120
                      A                      A                      A
 Frequencies --   3137.5477              3489.2489              3574.2388
 Red. masses --      1.1015                 1.0734                 1.0755
 Frc consts  --      6.3888                 7.7000                 8.0951
 IR Inten    --     43.5600                 0.5338                16.7875

 - Thermochemistry -
 -------------------
 Temperature   298.150 Kelvin.  Pressure   1.00000 Atm.
 Atom     1 has atomic number  6 and mass  12.00000

 Molecular mass:   243.19468 amu.
 Principal axes and moments of inertia in atomic units:
                           1         2         3
     Eigenvalues --  3228.108835406.412667178.99651
           X            0.99962  -0.02639   0.00747
           Y            0.02648   0.99957  -0.01263
           Z           -0.00713   0.01283   0.99989
 This molecule is an asymmetric top.
 Rotational symmetry number  1.
 Warning -- assumption of classical behavior for rotation
           may cause significant error
 Rotational temperatures (Kelvin)      0.02683     0.01602     0.01206
 Rotational constants (GHZ):           0.55907     0.33381     0.25139
 Zero-point vibrational energy     999858.1 (Joules/Mol)
                                  238.97181 (Kcal/Mol)
 Warning -- explicit consideration of  30 degrees of freedom as
           vibrations may cause significant error
 Vibrational temperatures:     45.26    63.00    75.32    95.58   122.48
          (Kelvin)            136.15   160.16   177.96   226.19   261.05
                              272.54   298.56   358.25   373.30   386.60
                              406.56   430.63   469.85   491.98   520.52
                              556.57   604.05   637.29   659.69   669.68
                              729.18   754.96   784.66   790.90   861.76
                              980.31  1023.80  1109.57  1125.50  1203.26
                             1225.40  1267.41  1280.76  1327.17  1351.45
                             1371.99  1392.18  1418.99  1434.22  1441.94
                             1474.76  1515.41  1527.00  1544.30  1609.72
                             1624.51  1650.97  1666.50  1675.30  1685.51
                             1695.98  1713.26  1728.66  1740.66  1755.00
                             1787.15  1834.88  1851.91  1873.88  1899.58
                             1909.65  1939.64  1948.11  1975.52  1993.52
                             1995.59  2012.47  2032.97  2044.31  2056.22
                             2060.74  2067.50  2076.34  2087.43  2133.30
                             2133.94  2162.89  2168.68  2182.79  2185.84
                             2186.29  2190.28  2206.86  2209.92  2211.69
                             2219.97  2225.93  2233.31  2252.20  2545.16
                             4248.35  4251.07  4305.51  4318.14  4329.99
                             4372.24  4378.62  4386.23  4400.48  4405.49
                             4411.71  4423.33  4431.88  4441.17  4451.07
                             4463.98  4469.05  4475.78  4486.21  4488.68
                             4502.76  4513.20  4514.23  5020.25  5142.53

 Zero-point correction=                           0.380826 (Hartree/Particle)
 Thermal correction to Energy=                    0.399525
 Thermal correction to Enthalpy=                  0.400469
 Thermal correction to Gibbs Free Energy=         0.333664
 Sum of electronic and zero-point Energies=           -786.705263
 Sum of electronic and thermal Energies=              -786.686564
 Sum of electronic and thermal Enthalpies=            -786.685619
 Sum of electronic and thermal Free Energies=         -786.752424

                     E (Thermal)             CV                S
                      KCal/Mol        Cal/Mol-Kelvin    Cal/Mol-Kelvin
 Total                  250.706             70.479            140.602
 Electronic               0.000              0.000              0.000
 Translational            0.889              2.981             42.367
 Rotational               0.889              2.981             33.193
 Vibrational            248.928             64.518             65.042
 Vibration     1          0.594              1.983              5.735
 Vibration     2          0.595              1.980              5.080
 Vibration     3          0.596              1.977              4.727
 Vibration     4          0.598              1.970              4.256
 Vibration     5          0.601              1.959              3.769
 Vibration     6          0.603              1.953              3.562
 Vibration     7          0.607              1.940              3.246
 Vibration     8          0.610              1.929              3.042
 Vibration     9          0.621              1.895              2.583
 Vibration    10          0.630              1.865              2.314
 Vibration    11          0.633              1.854              2.233
 Vibration    12          0.641              1.829              2.065
 Vibration    13          0.662              1.764              1.738
 Vibration    14          0.668              1.747              1.665
 Vibration    15          0.673              1.731              1.605
 Vibration    16          0.682              1.706              1.518
 Vibration    17          0.692              1.675              1.421
 Vibration    18          0.710              1.622              1.277
 Vibration    19          0.721              1.592              1.203
 Vibration    20          0.736              1.551              1.114
 Vibration    21          0.755              1.498              1.012
 Vibration    22          0.783              1.427              0.893
 Vibration    23          0.803              1.376              0.817
 Vibration    24          0.817              1.342              0.770
 Vibration    25          0.823              1.327              0.750
 Vibration    26          0.862              1.235              0.641
 Vibration    27          0.880              1.195              0.599
 Vibration    28          0.901              1.150              0.554
 Vibration    29          0.905              1.140              0.545
 Vibration    30          0.957              1.034              0.451

 Optimization completed.
    -- Stationary point found.
 Normal termination of Gaussian 16 at Mon Jan  4 10:52:35 2021.

 ----------------------------------------------------------------------
 # B3LYP/6-311++G(d,p) empiricaldispersion=gd3bj scf=xqc pop=npa geom=c
 heck
 ----------------------------------------------------------------------

 --------------------------------------
 CID_81685766_JID_7391_Energie_neutraal
 --------------------------------------
 Structure from the checkpoint file:  "JID_7391.chk"
 Charge =  0 Multiplicity = 1

 SCF Done:  E(RB3LYP) =  -787.317562961     A.U. after   15 cycles
 Normal termination of Gaussian 16 at Mon Jan  4 11:04:33 2021.

 ----------------------------------------------------------------------
 # B3LYP/6-311++G(d,p) empiricaldispersion=gd3bj scf=xqc pop=npa geom=c
 heck
 ----------------------------------------------------------------------

 ------------------------------------
 CID_81685766_JID_7391_Energie_kation
 ------------------------------------
 Structure from the checkpoint file:  "JID_7391.chk"
 Charge =  1 Multiplicity = 2

 SCF Done:  E(UB3LYP) =  -787.031733557     A.U. after   25 cycles
 Normal termination of Gaussian 16 at Mon Jan  4 11:40:12 2021.
 Gaussian 16:  ES64L-G16RevA.03 25-Dec-2016

 ----------------------------------------------------------------------
 # B3LYP/6-311++G(d,p) empiricaldispersion=gd3bj scf=xqc pop=npa geom=c
 heck
 ----------------------------------------------------------------------

 -----------------------------------
 CID_81685766_JID_7391_Energie_anion
 -----------------------------------
 Structure from the checkpoint file:  "JID_7391.chk"
 Charge = -1 Multiplicity = 2

                         Standard orientation:
 ---------------------------------------------------------------------
 Center     Atomic      Atomic             Coordinates (Angstroms)
 Number     Number       Type             X           Y           Z
 ---------------------------------------------------------------------
      1          6           0       -1.362280    1.802461   -0.537711
      2          6           0       -2.739723    1.305738   -0.081729
      3          6           0       -3.876569    2.094196   -0.734615
      4          7           0       -2.933207   -0.117142   -0.377571
      5          6           0       -2.414514   -1.213813    0.249070
      6          8           0       -2.578640   -2.342001   -0.211121
      7          6           0       -1.640082   -1.013143    1.545601
      8          6           0       -0.242021   -1.647847    1.486669
      9          7           0        0.647339   -0.973726    0.542291
     10          6           0        0.534353   -1.444681   -0.859339
     11          6           0        1.864582   -1.973461   -1.392726
     12          8           0        2.922513   -1.027450   -1.287214
     13          6           0        2.912462   -0.270541   -0.067593
     14          6           0        2.038263   -0.930822    0.993666
     15          6           0        2.481676    1.166358   -0.406399
     16          7           0        2.275776    1.970567    0.792929
     17          6           0        2.115306    3.389681    0.497639
     18          1           0       -1.266844    1.711308   -1.626120
     19          1           0       -0.565468    1.211107   -0.076170
     20          1           0       -1.221958    2.856772   -0.271257
     21          1           0       -2.822565    1.433725    1.003233
     22          1           0       -3.845741    1.986191   -1.826360
     23          1           0       -4.852007    1.746052   -0.380145
     24          1           0       -3.782357    3.159931   -0.504797
     25          1           0       -3.389064   -0.347518   -1.253685
     26          1           0       -1.540639    0.037543    1.825002
     27          1           0       -2.216865   -1.517417    2.330877
     28          1           0        0.203107   -1.566422    2.484095
     29          1           0       -0.347087   -2.720654    1.261764
     30          1           0        0.192462   -0.620194   -1.498283
     31          1           0       -0.217704   -2.236723   -0.929184
     32          1           0        2.130987   -2.905617   -0.870250
     33          1           0        1.769894   -2.210124   -2.457006
     34          1           0        3.941964   -0.250495    0.309240
     35          1           0        2.102716   -0.344930    1.916133
     36          1           0        2.449447   -1.930768    1.222827
     37          1           0        3.282425    1.625122   -0.998490
     38          1           0        1.594357    1.128878   -1.059845
     39          1           0        1.426606    1.636051    1.245193
     40          1           0        1.321500    3.612534   -0.239754
     41          1           0        1.887375    3.932298    1.421198
     42          1           0        3.056395    3.786301    0.099718
 ---------------------------------------------------------------------

 SCF Done:  E(UB3LYP) =  -787.307265579     A.U. after   31 cycles

 The electronic state is 2-A.
 Alpha  occ. eigenvalues --  -19.03794 -18.99102 -14.24061 -14.22033 -14.20635
 Alpha  occ. eigenvalues --  -10.17817 -10.13498 -10.13482 -10.12162 -10.10965
 Alpha  occ. eigenvalues --  -10.10943 -10.10500 -10.09819 -10.09263 -10.08297
 Alpha  occ. eigenvalues --  -10.07033 -10.06262  -0.95349  -0.94272  -0.83741
 Alpha  occ. eigenvalues --   -0.83034  -0.81319  -0.69586  -0.68969  -0.68013
 Alpha  occ. eigenvalues --   -0.62804  -0.60128  -0.59736  -0.57497  -0.54638
 Alpha  occ. eigenvalues --   -0.52427  -0.51794  -0.47704  -0.44936  -0.42908
 Alpha  occ. eigenvalues --   -0.42430  -0.41139  -0.40244  -0.38750  -0.38339
 Alpha  occ. eigenvalues --   -0.36724  -0.35627  -0.35085  -0.34408  -0.33771
 Alpha  occ. eigenvalues --   -0.33573  -0.32565  -0.31576  -0.31041  -0.30866
 Alpha  occ. eigenvalues --   -0.30371  -0.29680  -0.28985  -0.28319  -0.27820
 Alpha  occ. eigenvalues --   -0.27443  -0.27035  -0.26493  -0.26008  -0.25325
 Alpha  occ. eigenvalues --   -0.24929  -0.21464  -0.17385  -0.16513  -0.16070
 Alpha  occ. eigenvalues --   -0.14042  -0.13018   0.04124
 Alpha virt. eigenvalues --    0.06261   0.06649   0.06868   0.08092   0.08169
 Alpha virt. eigenvalues --    0.08606   0.08785   0.09452   0.10093   0.10504
 Alpha virt. eigenvalues --    0.10938   0.11109   0.11424   0.11730   0.11982

  Beta  occ. eigenvalues --  -19.03793 -18.99100 -14.24051 -14.22029 -14.20620
  Beta  occ. eigenvalues --  -10.17816 -10.13494 -10.13479 -10.12144 -10.10956
  Beta  occ. eigenvalues --  -10.10929 -10.10496 -10.09815 -10.09237 -10.08274
  Beta  occ. eigenvalues --  -10.06984 -10.06233  -0.95346  -0.94266  -0.83730
  Beta  occ. eigenvalues --   -0.83013  -0.81298  -0.69571  -0.68939  -0.67977
  Beta  occ. eigenvalues --   -0.62783  -0.60087  -0.59679  -0.57461  -0.54597
  Beta  occ. eigenvalues --   -0.52386  -0.51732  -0.47667  -0.44913  -0.42885
  Beta  occ. eigenvalues --   -0.42411  -0.41110  -0.40225  -0.38720  -0.38312
  Beta  occ. eigenvalues --   -0.36688  -0.35591  -0.35065  -0.34385  -0.33751
  Beta  occ. eigenvalues --   -0.33554  -0.32532  -0.31555  -0.31003  -0.30844
  Beta  occ. eigenvalues --   -0.30349  -0.29641  -0.28945  -0.28288  -0.27798
  Beta  occ. eigenvalues --   -0.27418  -0.27011  -0.26468  -0.25980  -0.25282
  Beta  occ. eigenvalues --   -0.24886  -0.21456  -0.17377  -0.16504  -0.16055
  Beta  occ. eigenvalues --   -0.14014  -0.12993
  Beta virt. eigenvalues --    0.06190   0.06822   0.07215   0.07268   0.08332
  Beta virt. eigenvalues --    0.08709   0.08947   0.09109   0.09737   0.10255
  Beta virt. eigenvalues --    0.10801   0.11123   0.11394   0.11647   0.12028

 Mulliken charges and spin densities:
               1          2
     1  C   -0.701736   0.423141
     2  C   -0.650662   0.364947
     3  C    1.945042  -2.556242
     4  N   -0.046635   0.064811
     5  C    0.005446  -0.297287
     6  O   -0.295068  -0.006524
     7  C   -0.192087   0.303266
     8  C    0.159779  -0.682104
     9  N    0.273263   0.041235
    10  C   -0.141530   0.049808
    11  C   -0.323235  -0.138000
    12  O   -0.068988   0.006788
    13  C   -0.194130  -0.168476
    14  C   -0.299488  -0.260714
    15  C   -0.356235   0.045260
    16  N   -0.111151   0.039026
    17  C    0.447245  -0.818125
    18  H   -0.209481   0.378780
    19  H    0.873930  -0.835339
    20  H    0.165190  -0.039593
    21  H   -0.450525   0.639596
    22  H   -0.168559   0.315727
    23  H   -0.280285   0.443507
    24  H   -0.471614   0.637671
    25  H    0.267072   0.030533
    26  H   -0.355376   0.536988
    27  H   -0.319948   0.536915
    28  H   -0.270462   0.427935
    29  H    0.220400  -0.036228
    30  H    0.130592   0.011952
    31  H    0.143914   0.017144
    32  H    0.111050   0.034413
    33  H    0.103354   0.075116
    34  H    0.125135   0.075139
    35  H    0.058670   0.143386
    36  H    0.052140   0.057435
    37  H    0.107733   0.076560
    38  H    0.115752   0.018448
    39  H    0.124525   0.104483
    40  H   -0.121586   0.265228
    41  H   -0.364621   0.518248
    42  H   -0.036831   0.155147
 Sum of Mulliken charges =  -1.00000   1.00000

 Dipole moment (field-independent basis, Debye):
    X=              5.5420    Y=             -5.2741    Z=             -3.2154  Tot=              8.2987
 Quadrupole moment (field-independent basis, Debye-Ang):
   XX=           -179.6143   YY=           -170.6038   ZZ=           -149.5587
   XY=              3.8452   XZ=              2.2607   YZ=             -5.5851

 Summary of Natural Population Analysis:

                                       Natural Population
                Natural  -----------------------------------------------
    Atom  No    Charge         Core      Valence    Rydberg      Total
 -----------------------------------------------------------------------
      C    1   -0.29395      0.99963     2.28722    0.00710     3.29395
      C    2   -0.01431      0.99961     2.00304    0.01167     3.01431
      C    3   -0.28545      0.99965     2.27972    0.00609     3.28545
      N    4   -0.31591      0.99966     2.80571    0.01054     3.81591
      C    5    0.34636      0.99966     1.63052    0.02346     2.65364
      O    6   -0.33724      0.99988     3.33190    0.00546     4.33724
      C    7   -0.23629      0.99957     2.22714    0.00958     3.23629
      C    8   -0.07457      0.99960     2.06348    0.01149     3.07457
      N    9   -0.29803      0.99971     2.78506    0.01326     3.79803
      C   10   -0.10457      0.99961     2.09673    0.00823     3.10457
      C   11   -0.01569      0.99957     2.00478    0.01134     3.01569
      O   12   -0.30603      0.99988     3.29741    0.00874     4.30603
      C   13    0.06557      0.99954     1.92117    0.01372     2.93443
      C   14   -0.10123      0.99959     2.09039    0.01125     3.10123
      C   15   -0.09636      0.99960     2.08425    0.01251     3.09636
      N   16   -0.34223      0.99974     2.83116    0.01134     3.84223
      C   17   -0.17680      0.99966     2.16861    0.00852     3.17680
      H   18    0.09572      0.00000     0.40296    0.00132     0.40428
      H   19    0.10513      0.00000     0.39163    0.00324     0.39487
      H   20    0.10409      0.00000     0.39441    0.00150     0.39591
      H   21    0.09765      0.00000     0.39912    0.00323     0.40235
      H   22    0.09569      0.00000     0.40297    0.00134     0.40431
      H   23    0.10327      0.00000     0.39537    0.00136     0.39673
      H   24    0.10860      0.00000     0.38954    0.00186     0.39140
      H   25    0.19190      0.00000     0.30589    0.00221     0.30810
      H   26    0.10584      0.00000     0.39133    0.00283     0.39416
      H   27    0.11305      0.00000     0.38585    0.00110     0.38695
      H   28    0.09840      0.00000     0.40037    0.00123     0.40160
      H   29    0.09042      0.00000     0.40827    0.00131     0.40958
      H   30    0.09402      0.00000     0.40454    0.00144     0.40598
      H   31    0.11070      0.00000     0.38800    0.00129     0.38930
      H   32    0.07675      0.00000     0.42194    0.00132     0.42325
      H   33    0.09277      0.00000     0.40606    0.00117     0.40723
      H   34    0.09037      0.00000     0.40826    0.00137     0.40963
      H   35    0.10838      0.00000     0.39000    0.00163     0.39162
      H   36    0.08528      0.00000     0.41344    0.00129     0.41472
      H   37    0.09300      0.00000     0.40578    0.00121     0.40700
      H   38    0.08498      0.00000     0.41313    0.00189     0.41502
      H   39    0.17460      0.00000     0.32036    0.00504     0.32540
      H   40    0.08109      0.00000     0.41755    0.00136     0.41891
      H   41    0.09753      0.00000     0.40142    0.00106     0.40247
      H   42    0.08750      0.00000     0.41140    0.00110     0.41250
 =======================================================================
   * Total *    0.00000     16.99417    49.77787    0.22796    67.00000

 Normal termination of Gaussian 16 at Mon Jan  4 12:31:32 2021.
