 Gaussian 16, Revision A.03,

 -----------------------------------------------------------
 # opt freq B3LYP/6-31G(d) empiricaldispersion=gd3bj scf=xqc
 -----------------------------------------------------------

 -------------------------------
 CID_113848992_JID_7141_neutraal
 -------------------------------
 Symbolic Z-matrix:
 Charge =  0 Multiplicity = 1

 SCF Done:  E(RB3LYP) =  -709.253527203     A.U. after   14 cycles
 SCF Done:  E(RB3LYP) =  -709.257980778     A.U. after   12 cycles
 SCF Done:  E(RB3LYP) =  -709.258483372     A.U. after   12 cycles
 SCF Done:  E(RB3LYP) =  -709.258615779     A.U. after   11 cycles
 SCF Done:  E(RB3LYP) =  -709.258666024     A.U. after   10 cycles
 SCF Done:  E(RB3LYP) =  -709.258685666     A.U. after   10 cycles
 SCF Done:  E(RB3LYP) =  -709.258689945     A.U. after    9 cycles
 SCF Done:  E(RB3LYP) =  -709.258693352     A.U. after    9 cycles
 SCF Done:  E(RB3LYP) =  -709.258695270     A.U. after    8 cycles
 SCF Done:  E(RB3LYP) =  -709.258697129     A.U. after    8 cycles
 SCF Done:  E(RB3LYP) =  -709.258716846     A.U. after   10 cycles
 SCF Done:  E(RB3LYP) =  -709.258717478     A.U. after    7 cycles
 SCF Done:  E(RB3LYP) =  -709.258718267     A.U. after    9 cycles
 SCF Done:  E(RB3LYP) =  -709.258718290     A.U. after    7 cycles
 SCF Done:  E(RB3LYP) =  -709.258718310     A.U. after    7 cycles
 Optimization completed.
    -- Stationary point found.
 Normal termination of Gaussian 16 at Fri Dec 11 12:03:51 2020.

 --------------------------------------------------------------------
 #N Geom=AllCheck Guess=TCheck SCRF=Check GenChk RB3LYP/6-31G(d) Freq
 --------------------------------------------------------------------

 Structure from the checkpoint file:  "JID_7141.chk"
 -------------------------------
 CID_113848992_JID_7141_neutraal
 -------------------------------
 Charge =  0 Multiplicity = 1

 SCF Done:  E(RB3LYP) =  -709.258718310     A.U. after    1 cycles

  Exact polarizability: 236.541   8.782 171.528  -4.821   1.845  91.936
 Approx polarizability: 321.566  10.375 279.642  -8.133   4.716 132.428

                      1                      2                      3
                      A                      A                      A
 Frequencies --     15.7622                34.4842                63.3787
 Red. masses --      3.7907                 3.7476                 4.3726
 Frc consts  --      0.0006                 0.0026                 0.0103
 IR Inten    --      0.0572                 0.8039                 1.8932

                      4                      5                      6
                      A                      A                      A
 Frequencies --     73.0917                81.2827                89.5803
 Red. masses --      2.7360                 3.6880                 3.6956
 Frc consts  --      0.0086                 0.0144                 0.0175
 IR Inten    --      0.0700                 0.7723                 1.4075

                      7                      8                      9
                      A                      A                      A
 Frequencies --    143.2155               177.5104               211.3813
 Red. masses --      1.6305                 3.6882                 4.1406
 Frc consts  --      0.0197                 0.0685                 0.1090
 IR Inten    --      0.9661                 2.1466                 0.5603

                     10                     11                     12
                      A                      A                      A
 Frequencies --    230.2947               237.9311               251.4168
 Red. masses --      1.8055                 1.2944                 2.3270
 Frc consts  --      0.0564                 0.0432                 0.0867
 IR Inten    --      0.0912                 1.0185                 0.7429

                     13                     14                     15
                      A                      A                      A
 Frequencies --    278.3074               292.2407               318.7137
 Red. masses --      2.8779                 1.9476                 2.8243
 Frc consts  --      0.1313                 0.0980                 0.1690
 IR Inten    --     29.0350                 0.0891                11.4324

                     16                     17                     18
                      A                      A                      A
 Frequencies --    323.3238               354.2842               385.8586
 Red. masses --      1.6903                 3.0426                 3.2921
 Frc consts  --      0.1041                 0.2250                 0.2888
 IR Inten    --     25.9580                 8.3347                 3.0828

                     19                     20                     21
                      A                      A                      A
 Frequencies --    419.7181               465.6817               514.1835
 Red. masses --      3.1803                 4.4692                 3.0442
 Frc consts  --      0.3301                 0.5710                 0.4742
 IR Inten    --      0.0311                 5.7664                 4.2302

                     22                     23                     24
                      A                      A                      A
 Frequencies --    560.0705               620.9924               631.0199
 Red. masses --      2.5712                 4.8758                 6.1527
 Frc consts  --      0.4752                 1.1078                 1.4435
 IR Inten    --      0.4498                 5.9021                 2.8080

                     25                     26                     27
                      A                      A                      A
 Frequencies --    642.1261               665.3177               701.7047
 Red. masses --      6.1236                 1.2584                 2.3002
 Frc consts  --      1.4876                 0.3282                 0.6673
 IR Inten    --     12.5849                32.6824                 0.8934

                     28                     29                     30
                      A                      A                      A
 Frequencies --    704.7755               718.3409               762.2550
 Red. masses --      2.3177                 5.5903                 1.6160
 Frc consts  --      0.6783                 1.6996                 0.5532
 IR Inten    --      9.9148                 3.0434                48.3103

                     31                     32                     33
                      A                      A                      A
 Frequencies --    787.3068               811.9671               829.5660
 Red. masses --      2.0144                 1.5439                 1.2813
 Frc consts  --      0.7357                 0.5997                 0.5195
 IR Inten    --      0.4667                 5.1958                 5.2273

                     34                     35                     36
                      A                      A                      A
 Frequencies --    837.2579               841.6868               871.8501
 Red. masses --      1.2779                 2.1651                 2.2521
 Frc consts  --      0.5278                 0.9037                 1.0086
 IR Inten    --      0.0463                 3.2980                 7.4010

                     37                     38                     39
                      A                      A                      A
 Frequencies --    886.8211               902.5356               938.8791
 Red. masses --      4.1702                 1.3903                 1.7468
 Frc consts  --      1.9323                 0.6672                 0.9072
 IR Inten    --      4.6736                 6.1259                 9.2736

                     40                     41                     42
                      A                      A                      A
 Frequencies --    954.7085               959.9001               994.5634
 Red. masses --      1.2896                 5.3610                 1.2445
 Frc consts  --      0.6925                 2.9104                 0.7253
 IR Inten    --      0.3546                 0.9954                 1.5734

                     43                     44                     45
                      A                      A                      A
 Frequencies --   1016.4800              1028.8594              1040.9270
 Red. masses --      6.0322                 1.9400                 1.3115
 Frc consts  --      3.6722                 1.2099                 0.8373
 IR Inten    --      3.5576                 0.1520                 3.8553

                     46                     47                     48
                      A                      A                      A
 Frequencies --   1062.6740              1064.1894              1098.0927
 Red. masses --      2.1999                 2.2162                 1.7523
 Frc consts  --      1.4637                 1.4788                 1.2449
 IR Inten    --      1.0905                 3.4282                 8.7775

                     49                     50                     51
                      A                      A                      A
 Frequencies --   1116.9260              1122.2948              1152.8207
 Red. masses --      1.6219                 1.5810                 1.8850
 Frc consts  --      1.1922                 1.1733                 1.4760
 IR Inten    --      2.6762                 7.6081                 7.7907

                     52                     53                     54
                      A                      A                      A
 Frequencies --   1156.1089              1192.6140              1197.8823
 Red. masses --      1.9825                 1.0884                 2.0612
 Frc consts  --      1.5612                 0.9121                 1.7426
 IR Inten    --     27.8722                 1.5740                 2.0395

                     55                     56                     57
                      A                      A                      A
 Frequencies --   1217.3105              1224.6992              1284.6774
 Red. masses --      1.1762                 2.6975                 2.3391
 Frc consts  --      1.0269                 2.3838                 2.2745
 IR Inten    --      3.2041                 6.0174                90.9863

                     58                     59                     60
                      A                      A                      A
 Frequencies --   1295.2517              1300.6632              1310.5390
 Red. masses --      2.6681                 1.3003                 2.7302
 Frc consts  --      2.6373                 1.2961                 2.7628
 IR Inten    --     14.7584                 2.0980                24.4764

                     61                     62                     63
                      A                      A                      A
 Frequencies --   1330.0709              1359.0546              1374.8786
 Red. masses --      1.3067                 2.0633                 2.1293
 Frc consts  --      1.3620                 2.2454                 2.3715
 IR Inten    --     35.4373                21.1706                 4.4332

                     64                     65                     66
                      A                      A                      A
 Frequencies --   1376.2299              1382.6901              1407.2113
 Red. masses --      1.5677                 1.6917                 1.3847
 Frc consts  --      1.7495                 1.9055                 1.6156
 IR Inten    --      8.4984                 5.6216                11.2787

                     67                     68                     69
                      A                      A                      A
 Frequencies --   1425.9617              1444.0903              1447.6559
 Red. masses --      1.9198                 1.2877                 1.3716
 Frc consts  --      2.3000                 1.5822                 1.6936
 IR Inten    --     43.1232                 4.3979                16.9404

                     70                     71                     72
                      A                      A                      A
 Frequencies --   1449.2406              1508.0778              1516.7030
 Red. masses --      1.3350                 2.6149                 1.0678
 Frc consts  --      1.6520                 3.5039                 1.4473
 IR Inten    --      5.3151                56.7206                 4.2198

                     73                     74                     75
                      A                      A                      A
 Frequencies --   1522.9090              1531.9113              1536.0855
 Red. masses --      1.0550                 1.0569                 1.0429
 Frc consts  --      1.4416                 1.4613                 1.4498
 IR Inten    --      4.0812                 6.0518                 1.1719

                     76                     77                     78
                      A                      A                      A
 Frequencies --   1537.6194              1546.9320              1550.5268
 Red. masses --      1.0565                 1.0768                 2.2876
 Frc consts  --      1.4718                 1.5182                 3.2404
 IR Inten    --      5.9768                 5.5189               102.9075

                     79                     80                     81
                      A                      A                      A
 Frequencies --   1562.8999              1593.6564              1621.4952
 Red. masses --      3.7460                 3.0954                 5.3951
 Frc consts  --      5.3912                 4.6318                 8.3576
 IR Inten    --     19.5198                66.6556               527.0185

                     82                     83                     84
                      A                      A                      A
 Frequencies --   1660.3112              1669.8688              3008.9806
 Red. masses --      3.7291                 5.4885                 1.0827
 Frc consts  --      6.0567                 9.0171                 5.7755
 IR Inten    --    161.2242               168.7062                24.1216

                     85                     86                     87
                      A                      A                      A
 Frequencies --   3050.6284              3055.8750              3056.9101
 Red. masses --      1.0412                 1.0464                 1.0498
 Frc consts  --      5.7091                 5.7574                 5.7800
 IR Inten    --      9.5136                21.7136                30.4567

                     88                     89                     90
                      A                      A                      A
 Frequencies --   3064.4792              3086.4136              3097.4971
 Red. masses --      1.0579                 1.1028                 1.1017
 Frc consts  --      5.8532                 6.1894                 6.2281
 IR Inten    --     18.8967                22.7653                10.0164

                     91                     92                     93
                      A                      A                      A
 Frequencies --   3119.7841              3123.4037              3128.4939
 Red. masses --      1.1018                 1.1016                 1.1025
 Frc consts  --      6.3186                 6.3320                 6.3576
 IR Inten    --     37.2401                50.1605                22.7353

                     94                     95                     96
                      A                      A                      A
 Frequencies --   3133.0045              3158.4014              3184.0900
 Red. masses --      1.1028                 1.0879                 1.0865
 Frc consts  --      6.3776                 6.3939                 6.4900
 IR Inten    --     32.4711                20.9204                 0.3697

                     97                     98                     99
                      A                      A                      A
 Frequencies --   3192.6628              3210.2163              3258.4951
 Red. masses --      1.0919                 1.0969                 1.0924
 Frc consts  --      6.5574                 6.6599                 6.8339
 IR Inten    --     34.3965                31.6215                13.1281

                    100                    101                    102
                      A                      A                      A
 Frequencies --   3263.6555              3314.8275              3648.8810
 Red. masses --      1.0940                 1.1007                 1.0752
 Frc consts  --      6.8653                 7.1257                 8.4345
 IR Inten    --     11.1635                 2.0288                15.4266

 - Thermochemistry -
 -------------------
 Temperature   298.150 Kelvin.  Pressure   1.00000 Atm.
 Atom     1 has atomic number  6 and mass  12.00000

 Molecular mass:   229.15790 amu.
 Principal axes and moments of inertia in atomic units:
                           1         2         3
     Eigenvalues --  2012.647967314.076598363.62252
           X            0.99993  -0.01197   0.00064
           Y            0.01197   0.99989   0.00927
           Z           -0.00075  -0.00926   0.99996
 This molecule is an asymmetric top.
 Rotational symmetry number  1.
 Warning -- assumption of classical behavior for rotation
           may cause significant error
 Rotational temperatures (Kelvin)      0.04303     0.01184     0.01036
 Rotational constants (GHZ):           0.89670     0.24675     0.21578
 Zero-point vibrational energy     819328.8 (Joules/Mol)
                                  195.82428 (Kcal/Mol)
 Warning -- explicit consideration of  22 degrees of freedom as
           vibrations may cause significant error
 Vibrational temperatures:     22.68    49.62    91.19   105.16   116.95
          (Kelvin)            128.89   206.06   255.40   304.13   331.34
                              342.33   361.73   400.42   420.47   458.56
                              465.19   509.74   555.16   603.88   670.01
                              739.80   805.82   893.47   907.90   923.88
                              957.24  1009.60  1014.01  1033.53  1096.71
                             1132.76  1168.24  1193.56  1204.63  1211.00
                             1254.40  1275.94  1298.55  1350.84  1373.61
                             1381.08  1430.95  1462.49  1480.30  1497.66
                             1528.95  1531.13  1579.91  1607.01  1614.73
                             1658.65  1663.38  1715.91  1723.49  1751.44
                             1762.07  1848.36  1863.58  1871.36  1885.57
                             1913.68  1955.38  1978.14  1980.09  1989.38
                             2024.66  2051.64  2077.72  2082.85  2085.13
                             2169.79  2182.20  2191.13  2204.08  2210.08
                             2212.29  2225.69  2230.86  2248.66  2292.92
                             2332.97  2388.82  2402.57  4329.25  4389.17
                             4396.72  4398.21  4409.10  4440.66  4456.61
                             4488.67  4493.88  4501.20  4507.69  4544.24
                             4581.20  4593.53  4618.79  4688.25  4695.67
                             4769.30  5249.93

 Zero-point correction=                           0.312066 (Hartree/Particle)
 Thermal correction to Energy=                    0.328563
 Thermal correction to Enthalpy=                  0.329507
 Thermal correction to Gibbs Free Energy=         0.266382
 Sum of electronic and zero-point Energies=           -708.946652
 Sum of electronic and thermal Energies=              -708.930156
 Sum of electronic and thermal Enthalpies=            -708.929212
 Sum of electronic and thermal Free Energies=         -708.992336

                     E (Thermal)             CV                S
                      KCal/Mol        Cal/Mol-Kelvin    Cal/Mol-Kelvin
 Total                  206.176             63.024            132.857
 Electronic               0.000              0.000              0.000
 Translational            0.889              2.981             42.190
 Rotational               0.889              2.981             33.176
 Vibrational            204.399             57.062             57.491
 Vibration     1          0.593              1.986              7.107
 Vibration     2          0.594              1.983              5.553
 Vibration     3          0.597              1.972              4.349
 Vibration     4          0.599              1.967              4.068
 Vibration     5          0.600              1.962              3.860
 Vibration     6          0.602              1.957              3.669
 Vibration     7          0.616              1.910              2.760
 Vibration     8          0.628              1.870              2.354
 Vibration     9          0.643              1.824              2.032
 Vibration    10          0.652              1.795              1.877
 Vibration    11          0.656              1.783              1.818
 Vibration    12          0.663              1.760              1.721
 Vibration    13          0.679              1.714              1.544
 Vibration    14          0.688              1.688              1.461
 Vibration    15          0.705              1.638              1.317
 Vibration    16          0.708              1.629              1.293
 Vibration    17          0.730              1.566              1.147
 Vibration    18          0.755              1.500              1.016
 Vibration    19          0.782              1.427              0.893
 Vibration    20          0.823              1.326              0.750
 Vibration    21          0.869              1.219              0.624
 Vibration    22          0.916              1.118              0.524

 Optimization completed.
    -- Stationary point found.
 Normal termination of Gaussian 16 at Fri Dec 11 12:17:18 2020.

 ----------------------------------------------------------------------
 # B3LYP/6-311++G(d,p) empiricaldispersion=gd3bj scf=xqc pop=npa geom=c
 heck
 ----------------------------------------------------------------------

 ---------------------------------------
 CID_113848992_JID_7141_Energie_neutraal
 ---------------------------------------
 Structure from the checkpoint file:  "JID_7141.chk"
 Charge =  0 Multiplicity = 1

 SCF Done:  E(RB3LYP) =  -709.449103773     A.U. after   15 cycles
 Normal termination of Gaussian 16 at Fri Dec 11 12:24:06 2020.

 ----------------------------------------------------------------------
 # B3LYP/6-311++G(d,p) empiricaldispersion=gd3bj scf=xqc pop=npa geom=c
 heck
 ----------------------------------------------------------------------

 -------------------------------------
 CID_113848992_JID_7141_Energie_kation
 -------------------------------------
 Structure from the checkpoint file:  "JID_7141.chk"
 Charge =  1 Multiplicity = 2

 SCF Done:  E(UB3LYP) =  -709.199876779     A.U. after   22 cycles
 Normal termination of Gaussian 16 at Fri Dec 11 12:39:45 2020.
 Gaussian 16:  ES64L-G16RevA.03 25-Dec-2016

 ----------------------------------------------------------------------
 # B3LYP/6-311++G(d,p) empiricaldispersion=gd3bj scf=xqc pop=npa geom=c
 heck
 ----------------------------------------------------------------------

 ------------------------------------
 CID_113848992_JID_7141_Energie_anion
 ------------------------------------
 Structure from the checkpoint file:  "JID_7141.chk"
 Charge = -1 Multiplicity = 2

                         Standard orientation:
 ---------------------------------------------------------------------
 Center     Atomic      Atomic             Coordinates (Angstroms)
 Number     Number       Type             X           Y           Z
 ---------------------------------------------------------------------
      1          6           0        4.225021   -1.774206   -1.156710
      2          6           0        3.499998   -0.439858   -0.965969
      3          6           0        2.143608   -0.592501   -0.262869
      4          6           0        2.227797   -1.164371    1.168496
      5          6           0        3.063682   -0.322480    2.134265
      6          7           0        1.405633    0.674633   -0.271611
      7          6           0        1.934528    1.969672   -0.244589
      8          6           0        0.862265    2.806680   -0.141550
      9          7           0       -0.321089    2.093480   -0.089528
     10          6           0        0.038810    0.826310   -0.161486
     11          7           0       -0.789193   -0.278301   -0.128336
     12          6           0       -2.188498   -0.325401   -0.081392
     13          6           0       -2.789901   -1.595352   -0.114325
     14          6           0       -4.173408   -1.723089   -0.063252
     15          6           0       -4.984443   -0.589628    0.021952
     16          6           0       -4.383984    0.669014    0.054760
     17          6           0       -2.998473    0.817586    0.004457
     18          1           0        4.512843   -2.222367   -0.200024
     19          1           0        5.138685   -1.632983   -1.742757
     20          1           0        3.595630   -2.496822   -1.689992
     21          1           0        4.141986    0.242604   -0.398713
     22          1           0        3.324912    0.031038   -1.940004
     23          1           0        1.561308   -1.295451   -0.876541
     24          1           0        1.206628   -1.251057    1.558977
     25          1           0        2.624904   -2.185143    1.113415
     26          1           0        2.700673    0.709752    2.169968
     27          1           0        3.007275   -0.734471    3.146921
     28          1           0        4.120578   -0.300907    1.846437
     29          1           0        2.993131    2.152110   -0.319851
     30          1           0        0.860204    3.887158   -0.104167
     31          1           0       -0.338062   -1.173780   -0.228396
     32          1           0       -2.164518   -2.484250   -0.180029
     33          1           0       -4.617425   -2.714513   -0.090639
     34          1           0       -6.065068   -0.687810    0.061654
     35          1           0       -5.001262    1.561141    0.120585
     36          1           0       -2.531891    1.792805    0.028761
 ---------------------------------------------------------------------

 SCF Done:  E(UB3LYP) =  -709.441530224     A.U. after   33 cycles
 SCF Done:  E(UB3LYP) =  -709.441530224     a.u. after    1 cycles

 The electronic state is 2-A.
 Alpha  occ. eigenvalues --  -14.27091 -14.25939 -14.19426 -10.17218 -10.13268
 Alpha  occ. eigenvalues --  -10.12860 -10.10106 -10.09099 -10.08744 -10.08682
 Alpha  occ. eigenvalues --  -10.08240 -10.08161 -10.08068 -10.07784 -10.07419
 Alpha  occ. eigenvalues --  -10.06837 -10.06360  -0.93557  -0.85622  -0.80008
 Alpha  occ. eigenvalues --   -0.75963  -0.70957  -0.67155  -0.66125  -0.65787
 Alpha  occ. eigenvalues --   -0.62989  -0.59874  -0.54699  -0.53682  -0.52859
 Alpha  occ. eigenvalues --   -0.51005  -0.48722  -0.47341  -0.43995  -0.43736
 Alpha  occ. eigenvalues --   -0.40623  -0.39352  -0.38550  -0.37086  -0.35438
 Alpha  occ. eigenvalues --   -0.35028  -0.34471  -0.33308  -0.33249  -0.32790
 Alpha  occ. eigenvalues --   -0.32142  -0.31427  -0.29891  -0.28095  -0.27943
 Alpha  occ. eigenvalues --   -0.27723  -0.27104  -0.25847  -0.25578  -0.24460
 Alpha  occ. eigenvalues --   -0.24268  -0.23505  -0.18186  -0.17786  -0.16646
 Alpha  occ. eigenvalues --   -0.15729  -0.10037   0.03992
 Alpha virt. eigenvalues --    0.06086   0.06710   0.07303   0.07467   0.07785
 Alpha virt. eigenvalues --    0.08001   0.08160   0.09256   0.09551   0.09774
 Alpha virt. eigenvalues --    0.10139   0.10942   0.11463   0.12007   0.12291

  Beta  occ. eigenvalues --  -14.27093 -14.25922 -14.19423 -10.17216 -10.13267
  Beta  occ. eigenvalues --  -10.12835 -10.10100 -10.09099 -10.08740 -10.08681
  Beta  occ. eigenvalues --  -10.08215 -10.08144 -10.08064 -10.07756 -10.07416
  Beta  occ. eigenvalues --  -10.06815 -10.06303  -0.93546  -0.85597  -0.79990
  Beta  occ. eigenvalues --   -0.75946  -0.70920  -0.67139  -0.66078  -0.65767
  Beta  occ. eigenvalues --   -0.62967  -0.59819  -0.54638  -0.53666  -0.52805
  Beta  occ. eigenvalues --   -0.50964  -0.48676  -0.47310  -0.43957  -0.43689
  Beta  occ. eigenvalues --   -0.40595  -0.39301  -0.38526  -0.37064  -0.35421
  Beta  occ. eigenvalues --   -0.35008  -0.34449  -0.33283  -0.33219  -0.32753
  Beta  occ. eigenvalues --   -0.32108  -0.31389  -0.29874  -0.28026  -0.27899
  Beta  occ. eigenvalues --   -0.27699  -0.27051  -0.25821  -0.25545  -0.24428
  Beta  occ. eigenvalues --   -0.24223  -0.23466  -0.18179  -0.17772  -0.16633
  Beta  occ. eigenvalues --   -0.15716  -0.10022
  Beta virt. eigenvalues --    0.06218   0.06504   0.07405   0.07452   0.07825
  Beta virt. eigenvalues --    0.08084   0.08137   0.08378   0.09613   0.09771
  Beta virt. eigenvalues --    0.10328   0.10665   0.11340   0.11734   0.12159

 Mulliken charges and spin densities:
               1          2
     1  C    1.711070  -2.456067
     2  C   -1.715961   1.597916
     3  C    0.028904  -0.265939
     4  C    0.577606  -0.654995
     5  C    0.271289  -0.945183
     6  N    0.212297   0.038721
     7  C   -0.152611   0.109381
     8  C   -0.045802  -0.100563
     9  N   -0.170536   0.011596
    10  C    0.104181  -0.257073
    11  N    0.039713  -0.053191
    12  C    0.211836  -0.822683
    13  C   -0.473787  -0.095317
    14  C    0.012130  -0.448261
    15  C    0.105819  -0.377561
    16  C   -0.638891   0.464679
    17  C    0.781361   0.135674
    18  H   -0.127698   0.276975
    19  H   -0.508760   0.655451
    20  H   -0.544567   0.704002
    21  H    0.065120   0.058917
    22  H   -0.036078   0.214565
    23  H   -0.216832   0.404238
    24  H    0.104798   0.022236
    25  H   -0.452138   0.638519
    26  H    0.085885   0.086331
    27  H   -0.081974   0.244718
    28  H   -0.068876   0.213674
    29  H   -0.092271   0.226889
    30  H    0.119217   0.023965
    31  H    0.310393   0.053290
    32  H   -0.880134   1.025284
    33  H   -0.047398   0.216619
    34  H    0.112889   0.011462
    35  H    0.112919   0.040103
    36  H    0.286888   0.001628
 Sum of Mulliken charges =  -1.00000   1.00000

 Dipole moment (field-independent basis, Debye):
    X=             -4.7953    Y=              6.7308    Z=              1.7224  Tot=              8.4419
 Quadrupole moment (field-independent basis, Debye-Ang):
   XX=           -179.8169   YY=           -156.0963   ZZ=           -142.1170
   XY=             14.9595   XZ=              5.3351   YZ=             -4.3093

 Summary of Natural Population Analysis:

                                       Natural Population
                Natural  -----------------------------------------------
    Atom  No    Charge         Core      Valence    Rydberg      Total
 -----------------------------------------------------------------------
      C    1   -0.28526      0.99966     2.28040    0.00520     3.28526
      C    2   -0.19404      0.99962     2.18485    0.00956     3.19404
      C    3   -0.00345      0.99957     1.98950    0.01438     3.00345
      C    4   -0.19598      0.99961     2.18747    0.00890     3.19598
      C    5   -0.29089      0.99966     2.28515    0.00609     3.29089
      N    6   -0.21994      0.99962     2.70991    0.01041     3.71994
      C    7   -0.04358      0.99954     2.03423    0.00980     3.04358
      C    8   -0.03360      0.99958     2.02031    0.01370     3.03360
      N    9   -0.28726      0.99969     2.77811    0.00947     3.78726
      C   10    0.29064      0.99959     1.69243    0.01734     2.70936
      N   11   -0.29940      0.99963     2.79185    0.00791     3.79940
      C   12    0.08791      0.99948     1.90071    0.01189     2.91209
      C   13   -0.11609      0.99953     2.10634    0.01022     3.11609
      C   14   -0.09819      0.99957     2.08807    0.01055     3.09819
      C   15   -0.12535      0.99956     2.11613    0.00965     3.12535
      C   16   -0.09573      0.99958     2.08693    0.00923     3.09573
      C   17   -0.12606      0.99952     2.11839    0.00815     3.12606
      H   18    0.09932      0.00000     0.39909    0.00159     0.40068
      H   19    0.10215      0.00000     0.39655    0.00129     0.39785
      H   20    0.10294      0.00000     0.39459    0.00247     0.39706
      H   21    0.09596      0.00000     0.40259    0.00145     0.40404
      H   22    0.10301      0.00000     0.39569    0.00131     0.39699
      H   23    0.10167      0.00000     0.39476    0.00357     0.39833
      H   24    0.09916      0.00000     0.39935    0.00148     0.40084
      H   25    0.10593      0.00000     0.39211    0.00197     0.39407
      H   26    0.10009      0.00000     0.39866    0.00125     0.39991
      H   27    0.10195      0.00000     0.39731    0.00073     0.39805
      H   28    0.09711      0.00000     0.40191    0.00097     0.40289
      H   29    0.10565      0.00000     0.39330    0.00105     0.39435
      H   30    0.09465      0.00000     0.40454    0.00081     0.40535
      H   31    0.20137      0.00000     0.29504    0.00360     0.29863
      H   32    0.10499      0.00000     0.39297    0.00204     0.39501
      H   33    0.10056      0.00000     0.39865    0.00079     0.39944
      H   34    0.09755      0.00000     0.40173    0.00073     0.40245
      H   35    0.09713      0.00000     0.40211    0.00076     0.40287
      H   36    0.12510      0.00000     0.37356    0.00134     0.37490
 =======================================================================
   * Total *   -0.00000     16.99302    44.80532    0.20166    62.00000

 Normal termination of Gaussian 16 at Fri Dec 11 13:04:04 2020.
