 Gaussian 16, Revision A.03,

 -----------------------------------------------------------
 # opt freq B3LYP/6-31G(d) empiricaldispersion=gd3bj scf=xqc
 -----------------------------------------------------------

 --------------------------------
 CID_117445973_JID_10786_neutraal
 --------------------------------
 Symbolic Z-matrix:
 Charge =  0 Multiplicity = 1

 SCF Done:  E(RB3LYP) =  -958.610299134     A.U. after   15 cycles
 SCF Done:  E(RB3LYP) =  -958.617390971     A.U. after   12 cycles
 SCF Done:  E(RB3LYP) =  -958.614188418     A.U. after   15 cycles
 SCF Done:  E(RB3LYP) =  -958.618250953     A.U. after   13 cycles
 SCF Done:  E(RB3LYP) =  -958.619454811     A.U. after   13 cycles
 SCF Done:  E(RB3LYP) =  -958.620127374     A.U. after   13 cycles
 SCF Done:  E(RB3LYP) =  -958.620383203     A.U. after   12 cycles
 SCF Done:  E(RB3LYP) =  -958.620587656     A.U. after   11 cycles
 SCF Done:  E(RB3LYP) =  -958.620757419     A.U. after   12 cycles
 SCF Done:  E(RB3LYP) =  -958.620838345     A.U. after   11 cycles
 SCF Done:  E(RB3LYP) =  -958.620972661     A.U. after    9 cycles
 SCF Done:  E(RB3LYP) =  -958.620973349     A.U. after    9 cycles
 SCF Done:  E(RB3LYP) =  -958.620973484     A.U. after    9 cycles
 SCF Done:  E(RB3LYP) =  -958.620973594     A.U. after    7 cycles
 SCF Done:  E(RB3LYP) =  -958.620973632     A.U. after    7 cycles
 Optimization completed.
    -- Stationary point found.
 Normal termination of Gaussian 16 at Sat Dec 12 16:49:17 2020.

 --------------------------------------------------------------------
 #N Geom=AllCheck Guess=TCheck SCRF=Check GenChk RB3LYP/6-31G(d) Freq
 --------------------------------------------------------------------

 Structure from the checkpoint file:  "JID_10786.chk"
 --------------------------------
 CID_117445973_JID_10786_neutraal
 --------------------------------
 Charge =  0 Multiplicity = 1

 SCF Done:  E(RB3LYP) =  -958.620973632     A.U. after    1 cycles

  Exact polarizability: 195.605  -5.709 193.140  16.200   3.231 113.544
 Approx polarizability: 278.000  -2.180 293.758  31.381  11.389 178.409

                      1                      2                      3
                      A                      A                      A
 Frequencies --     24.4766                37.1970                53.1798
 Red. masses --      5.4549                 2.9566                 6.5584
 Frc consts  --      0.0019                 0.0024                 0.0109
 IR Inten    --      1.2176                 2.6073                 1.2411

                      4                      5                      6
                      A                      A                      A
 Frequencies --     68.7081                92.0215               102.0517
 Red. masses --      3.9794                 3.7868                 4.0733
 Frc consts  --      0.0111                 0.0189                 0.0250
 IR Inten    --      0.5442                 0.5596                 2.3337

                      7                      8                      9
                      A                      A                      A
 Frequencies --    111.9402               137.6957               141.2273
 Red. masses --      6.6041                 1.8916                 2.4302
 Frc consts  --      0.0488                 0.0211                 0.0286
 IR Inten    --      3.6243                 0.9201                 3.1855

                     10                     11                     12
                      A                      A                      A
 Frequencies --    148.7144               192.2740               201.1333
 Red. masses --      2.2961                 2.1457                 2.5534
 Frc consts  --      0.0299                 0.0467                 0.0609
 IR Inten    --      1.7630                 1.7032                 2.2562

                     13                     14                     15
                      A                      A                      A
 Frequencies --    217.6075               237.6222               264.8866
 Red. masses --      4.0636                 3.1944                 3.2068
 Frc consts  --      0.1134                 0.1063                 0.1326
 IR Inten    --      3.0473                 1.7568                 0.0819

                     16                     17                     18
                      A                      A                      A
 Frequencies --    275.0872               290.9296               322.3931
 Red. masses --      3.0182                 3.0049                 3.9170
 Frc consts  --      0.1346                 0.1499                 0.2399
 IR Inten    --      4.6430                 1.9715                 1.7674

                     19                     20                     21
                      A                      A                      A
 Frequencies --    342.3506               369.2022               426.0299
 Red. masses --      3.7607                 3.1090                 5.1848
 Frc consts  --      0.2597                 0.2497                 0.5545
 IR Inten    --      4.6464                 0.2482                 2.3397

                     22                     23                     24
                      A                      A                      A
 Frequencies --    470.9556               495.8695               508.6045
 Red. masses --      4.3573                 5.5011                 4.3527
 Frc consts  --      0.5694                 0.7969                 0.6634
 IR Inten    --      5.2056                 1.3634                 6.6352

                     25                     26                     27
                      A                      A                      A
 Frequencies --    521.0930               536.0464               584.3198
 Red. masses --      2.2430                 4.3183                 2.8582
 Frc consts  --      0.3588                 0.7311                 0.5750
 IR Inten    --     21.1967                 8.1883                26.0853

                     28                     29                     30
                      A                      A                      A
 Frequencies --    599.3236               627.7795               664.4204
 Red. masses --      4.7199                 4.0523                 5.5874
 Frc consts  --      0.9989                 0.9409                 1.4533
 IR Inten    --     11.9558                11.4503                 1.6416

                     31                     32                     33
                      A                      A                      A
 Frequencies --    686.7910               691.9319               703.2196
 Red. masses --      1.5651                 3.3208                 2.9531
 Frc consts  --      0.4350                 0.9367                 0.8604
 IR Inten    --     72.6388                 6.8202                23.2195

                     34                     35                     36
                      A                      A                      A
 Frequencies --    718.3930               757.2697               796.6769
 Red. masses --      3.4002                 3.9480                 2.9029
 Frc consts  --      1.0339                 1.3339                 1.0855
 IR Inten    --      8.1716                 7.4053                28.5497

                     37                     38                     39
                      A                      A                      A
 Frequencies --    848.6418               863.8718               870.2262
 Red. masses --      2.6288                 1.8090                 1.8744
 Frc consts  --      1.1155                 0.7954                 0.8363
 IR Inten    --     22.8311                 7.0361                 6.3770

                     40                     41                     42
                      A                      A                      A
 Frequencies --    886.7400               911.4504               938.0564
 Red. masses --      3.4958                 3.5661                 4.2914
 Frc consts  --      1.6195                 1.7455                 2.2249
 IR Inten    --      5.1769                 9.2847                21.7359

                     43                     44                     45
                      A                      A                      A
 Frequencies --    968.3023               976.6507              1004.4939
 Red. masses --      2.4753                 2.3457                 2.4778
 Frc consts  --      1.3674                 1.3183                 1.4730
 IR Inten    --      1.8900                20.8307                19.4201

                     46                     47                     48
                      A                      A                      A
 Frequencies --   1016.7323              1035.1072              1053.4645
 Red. masses --      4.0504                 3.9676                 2.4576
 Frc consts  --      2.4670                 2.5047                 1.6069
 IR Inten    --     51.8214                47.7705                75.0574

                     49                     50                     51
                      A                      A                      A
 Frequencies --   1069.8698              1077.7592              1087.9366
 Red. masses --      3.8779                 4.1148                 1.7635
 Frc consts  --      2.6152                 2.8161                 1.2298
 IR Inten    --     13.3790                12.6866                37.1774

                     52                     53                     54
                      A                      A                      A
 Frequencies --   1091.1488              1104.4261              1172.9537
 Red. masses --      1.7236                 2.8242                 2.5671
 Frc consts  --      1.2091                 2.0296                 2.0809
 IR Inten    --      4.0995                20.1685               252.0303

                     55                     56                     57
                      A                      A                      A
 Frequencies --   1176.3960              1186.7554              1211.8826
 Red. masses --      1.9964                 1.2702                 1.2938
 Frc consts  --      1.6278                 1.0540                 1.1195
 IR Inten    --     13.4230                 5.3643                 5.7100

                     58                     59                     60
                      A                      A                      A
 Frequencies --   1218.6690              1222.5203              1230.1588
 Red. masses --      1.2982                 1.2546                 1.5630
 Frc consts  --      1.1360                 1.1047                 1.3936
 IR Inten    --     11.1742                28.5724                 4.7940

                     61                     62                     63
                      A                      A                      A
 Frequencies --   1240.2935              1252.9421              1257.5917
 Red. masses --      1.3931                 1.3173                 1.2272
 Frc consts  --      1.2626                 1.2184                 1.1436
 IR Inten    --    114.7392                53.1334                 9.5252

                     64                     65                     66
                      A                      A                      A
 Frequencies --   1265.6235              1312.0878              1315.9808
 Red. masses --      2.1960                 1.2806                 1.7594
 Frc consts  --      2.0725                 1.2989                 1.7952
 IR Inten    --     61.5809                 2.1507                14.5520

                     67                     68                     69
                      A                      A                      A
 Frequencies --   1320.6316              1358.4860              1370.6438
 Red. masses --      1.4966                 1.5411                 2.1410
 Frc consts  --      1.5378                 1.6757                 2.3698
 IR Inten    --      7.6358                24.8357                11.0110

                     70                     71                     72
                      A                      A                      A
 Frequencies --   1377.9256              1386.8987              1401.7307
 Red. masses --      2.1021                 2.9426                 1.5095
 Frc consts  --      2.3515                 3.3348                 1.7474
 IR Inten    --     40.8826                42.2712                24.2292

                     73                     74                     75
                      A                      A                      A
 Frequencies --   1408.5755              1412.5545              1422.8711
 Red. masses --      1.6652                 1.6445                 2.3918
 Frc consts  --      1.9466                 1.9333                 2.8531
 IR Inten    --     10.0455                 8.2907                56.8290

                     76                     77                     78
                      A                      A                      A
 Frequencies --   1473.0200              1490.5761              1497.4586
 Red. masses --      4.1490                 1.0792                 1.3488
 Frc consts  --      5.3041                 1.4127                 1.7819
 IR Inten    --    156.4202                 7.8848                42.4503

                     79                     80                     81
                      A                      A                      A
 Frequencies --   1511.4268              1516.9011              1518.0673
 Red. masses --      1.0909                 1.0550                 1.1021
 Frc consts  --      1.4683                 1.4302                 1.4965
 IR Inten    --      6.4464                 4.1184                 0.6510

                     82                     83                     84
                      A                      A                      A
 Frequencies --   1520.5502              1526.2625              1532.0538
 Red. masses --      1.1125                 1.1041                 1.0521
 Frc consts  --      1.5155                 1.5154                 1.4550
 IR Inten    --      8.4918                 6.9842                32.8186

                     85                     86                     87
                      A                      A                      A
 Frequencies --   1544.5455              1550.6492              1556.5174
 Red. masses --      1.1424                 1.1896                 3.4852
 Frc consts  --      1.6057                 1.6853                 4.9750
 IR Inten    --      2.9854                 7.0173                95.2680

                     88                     89                     90
                      A                      A                      A
 Frequencies --   1658.6319              1678.1971              1838.1979
 Red. masses --      9.6456                 9.9780                 9.5399
 Frc consts  --     15.6343                16.5570                18.9923
 IR Inten    --      5.1338                50.1166               240.5474

                     91                     92                     93
                      A                      A                      A
 Frequencies --   3035.5991              3039.6893              3042.0744
 Red. masses --      1.0738                 1.0657                 1.0663
 Frc consts  --      5.8301                 5.8017                 5.8137
 IR Inten    --     43.2477                48.5831                15.5508

                     94                     95                     96
                      A                      A                      A
 Frequencies --   3045.4817              3047.5271              3053.0462
 Red. masses --      1.0691                 1.0379                 1.0686
 Frc consts  --      5.8423                 5.6793                 5.8688
 IR Inten    --     34.1518                67.3077                33.1682

                     97                     98                     99
                      A                      A                      A
 Frequencies --   3058.3373              3080.3672              3094.2789
 Red. masses --      1.0679                 1.0640                 1.0977
 Frc consts  --      5.8848                 5.9483                 6.1926
 IR Inten    --     33.6159                31.7387                25.0885

                    100                    101                    102
                      A                      A                      A
 Frequencies --   3098.4249              3104.7630              3121.3798
 Red. masses --      1.0941                 1.0925                 1.0933
 Frc consts  --      6.1885                 6.2047                 6.2761
 IR Inten    --     25.1560                22.0436                10.1773

                    103                    104                    105
                      A                      A                      A
 Frequencies --   3124.2730              3130.1148              3136.5210
 Red. masses --      1.0957                 1.0960                 1.0984
 Frc consts  --      6.3012                 6.3266                 6.3669
 IR Inten    --     21.7340                38.2844                42.7122

                    106                    107                    108
                      A                      A                      A
 Frequencies --   3142.4249              3161.2251              3688.0670
 Red. masses --      1.1080                 1.1078                 1.0639
 Frc consts  --      6.4465                 6.5228                 8.5260
 IR Inten    --     34.9612                20.9415                48.6560

 - Thermochemistry -
 -------------------
 Temperature   298.150 Kelvin.  Pressure   1.00000 Atm.
 Atom     1 has atomic number  6 and mass  12.00000

 Molecular mass:   278.11542 amu.
 Principal axes and moments of inertia in atomic units:
                           1         2         3
     Eigenvalues --  3310.107606844.875279104.75348
           X            0.99995   0.00419   0.00916
           Y           -0.00419   0.99999   0.00019
           Z           -0.00916  -0.00023   0.99996
 This molecule is an asymmetric top.
 Rotational symmetry number  1.
 Warning -- assumption of classical behavior for rotation
           may cause significant error
 Rotational temperatures (Kelvin)      0.02617     0.01265     0.00951
 Rotational constants (GHZ):           0.54522     0.26366     0.19822
 Zero-point vibrational energy     827607.2 (Joules/Mol)
                                  197.80288 (Kcal/Mol)
 Warning -- explicit consideration of  28 degrees of freedom as
           vibrations may cause significant error
 Vibrational temperatures:     35.22    53.52    76.51    98.86   132.40
          (Kelvin)            146.83   161.06   198.11   203.19   213.97
                              276.64   289.39   313.09   341.89   381.11
                              395.79   418.58   463.85   492.57   531.20
                              612.96   677.60   713.45   731.77   749.74
                              771.25   840.71   862.29   903.23   955.95
                              988.14   995.54  1011.78  1033.61  1089.54
                             1146.24  1221.01  1242.92  1252.06  1275.82
                             1311.37  1349.65  1393.17  1405.18  1445.24
                             1462.85  1489.29  1515.70  1539.30  1550.66
                             1565.30  1569.92  1589.02  1687.62  1692.57
                             1707.48  1743.63  1753.39  1758.93  1769.92
                             1784.51  1802.70  1809.39  1820.95  1887.80
                             1893.40  1900.09  1954.56  1972.05  1982.53
                             1995.44  2016.78  2026.63  2032.35  2047.19
                             2119.35  2144.61  2154.51  2174.61  2182.48
                             2184.16  2187.73  2195.95  2204.28  2222.26
                             2231.04  2239.48  2386.40  2414.55  2644.76
                             4367.55  4373.43  4376.87  4381.77  4384.71
                             4392.65  4400.27  4431.96  4451.98  4457.94
                             4467.06  4490.97  4495.13  4503.54  4512.75
                             4521.25  4548.30  5306.31

 Zero-point correction=                           0.315219 (Hartree/Particle)
 Thermal correction to Energy=                    0.333834
 Thermal correction to Enthalpy=                  0.334778
 Thermal correction to Gibbs Free Energy=         0.267338
 Sum of electronic and zero-point Energies=           -958.305755
 Sum of electronic and thermal Energies=              -958.287140
 Sum of electronic and thermal Enthalpies=            -958.286196
 Sum of electronic and thermal Free Energies=         -958.353636

                     E (Thermal)             CV                S
                      KCal/Mol        Cal/Mol-Kelvin    Cal/Mol-Kelvin
 Total                  209.484             70.042            141.940
 Electronic               0.000              0.000              0.000
 Translational            0.889              2.981             42.767
 Rotational               0.889              2.981             33.689
 Vibrational            207.706             64.080             65.484
 Vibration     1          0.593              1.985              6.233
 Vibration     2          0.594              1.982              5.403
 Vibration     3          0.596              1.976              4.695
 Vibration     4          0.598              1.969              4.190
 Vibration     5          0.602              1.955              3.617
 Vibration     6          0.604              1.948              3.415
 Vibration     7          0.607              1.940              3.235
 Vibration     8          0.614              1.916              2.836
 Vibration     9          0.615              1.912              2.787
 Vibration    10          0.618              1.904              2.689
 Vibration    11          0.634              1.851              2.206
 Vibration    12          0.638              1.838              2.123
 Vibration    13          0.646              1.814              1.979
 Vibration    14          0.656              1.783              1.821
 Vibration    15          0.671              1.737              1.629
 Vibration    16          0.677              1.719              1.564
 Vibration    17          0.687              1.691              1.469
 Vibration    18          0.707              1.631              1.298
 Vibration    19          0.721              1.591              1.201
 Vibration    20          0.742              1.536              1.083
 Vibration    21          0.788              1.414              0.872
 Vibration    22          0.828              1.314              0.735
 Vibration    23          0.851              1.259              0.669
 Vibration    24          0.864              1.231              0.637
 Vibration    25          0.876              1.203              0.607
 Vibration    26          0.891              1.170              0.574
 Vibration    27          0.941              1.065              0.477
 Vibration    28          0.957              1.033              0.451

                           ! Non-Optimized Parameters !
 Normal termination of Gaussian 16 at Sat Dec 12 17:13:25 2020.

 ----------------------------------------------------------------------
 # B3LYP/6-311++G(d,p) empiricaldispersion=gd3bj scf=xqc pop=npa geom=c
 heck
 ----------------------------------------------------------------------

 ----------------------------------------
 CID_117445973_JID_10786_Energie_neutraal
 ----------------------------------------
 Structure from the checkpoint file:  "JID_10786.chk"
 Charge =  0 Multiplicity = 1

 SCF Done:  E(RB3LYP) =  -958.892028227     A.U. after   16 cycles
 Normal termination of Gaussian 16 at Sat Dec 12 17:24:21 2020.

 ----------------------------------------------------------------------
 # B3LYP/6-311++G(d,p) empiricaldispersion=gd3bj scf=xqc pop=npa geom=c
 heck
 ----------------------------------------------------------------------

 --------------------------------------
 CID_117445973_JID_10786_Energie_kation
 --------------------------------------
 Structure from the checkpoint file:  "JID_10786.chk"
 Charge =  1 Multiplicity = 2

 SCF Done:  E(UB3LYP) =  -958.635255980     A.U. after   25 cycles
 Normal termination of Gaussian 16 at Sat Dec 12 17:48:15 2020.
 Gaussian 16:  ES64L-G16RevA.03 25-Dec-2016

 ----------------------------------------------------------------------
 # B3LYP/6-311++G(d,p) empiricaldispersion=gd3bj scf=xqc pop=npa geom=c
 heck
 ----------------------------------------------------------------------

 -------------------------------------
 CID_117445973_JID_10786_Energie_anion
 -------------------------------------
 Structure from the checkpoint file:  "JID_10786.chk"
 Charge = -1 Multiplicity = 2

                         Standard orientation:
 ---------------------------------------------------------------------
 Center     Atomic      Atomic             Coordinates (Angstroms)
 Number     Number       Type             X           Y           Z
 ---------------------------------------------------------------------
      1          6           0        4.020707    1.537075    1.078206
      2          8           0        2.958160    1.910113    0.200554
      3          6           0        1.993715    0.983101   -0.072400
      4          6           0        2.156378   -0.411032   -0.119098
      5          6           0        1.095399   -1.269464   -0.418314
      6          6           0       -0.187142   -0.806764   -0.727621
      7          6           0       -0.317924    0.582711   -0.703261
      8          6           0        0.715471    1.455886   -0.373184
      9          6           0        0.187070    2.866588   -0.435607
     10          6           0       -1.335961    2.606779   -0.526443
     11          8           0       -1.497899    1.233013   -0.971180
     12          6           0       -1.372883   -1.701912   -0.978300
     13          6           0       -2.061465   -2.160554    0.326023
     14          6           0       -2.450962   -1.023121    1.278198
     15          6           0       -3.469872   -0.019789    0.781058
     16          8           0       -3.636454    1.085597    1.250702
     17          8           0       -4.248962   -0.503215   -0.217664
     18          6           0        1.636867   -2.682829   -0.409845
     19          6           0        3.007016   -2.476567    0.268758
     20          8           0        3.345115   -1.080572    0.101370
     21          1           0        4.560768    2.461851    1.292127
     22          1           0        4.690036    0.808394    0.615334
     23          1           0        3.627872    1.117404    2.012515
     24          1           0        0.569578    3.396783   -1.317629
     25          1           0        0.451773    3.463692    0.442377
     26          1           0       -1.825923    2.690299    0.449081
     27          1           0       -1.853024    3.244718   -1.245986
     28          1           0       -2.102527   -1.171599   -1.596146
     29          1           0       -1.063358   -2.592735   -1.538180
     30          1           0       -2.949148   -2.749472    0.071030
     31          1           0       -1.382527   -2.826497    0.874145
     32          1           0       -2.870927   -1.446489    2.201008
     33          1           0       -1.572821   -0.445990    1.581173
     34          1           0       -4.856509    0.223357   -0.451055
     35          1           0        1.741665   -3.069798   -1.432698
     36          1           0        1.013075   -3.390481    0.145371
     37          1           0        3.817301   -3.064873   -0.166348
     38          1           0        2.946512   -2.688711    1.344590
 ---------------------------------------------------------------------

 SCF Done:  E(UB3LYP) =  -958.879987230     A.U. after   33 cycles
 SCF Done:  E(UB3LYP) =  -958.879987230     a.u. after    1 cycles

 The electronic state is 2-A.
 Alpha  occ. eigenvalues --  -19.07506 -19.06032 -19.05306 -19.05191 -19.01674
 Alpha  occ. eigenvalues --  -10.21030 -10.14084 -10.13492 -10.12988 -10.12749
 Alpha  occ. eigenvalues --  -10.12720 -10.12577 -10.09483 -10.08526 -10.08523
 Alpha  occ. eigenvalues --  -10.08351 -10.08091 -10.08063 -10.07531 -10.07428
 Alpha  occ. eigenvalues --   -1.01446  -0.98000  -0.97321  -0.96463  -0.92364
 Alpha  occ. eigenvalues --   -0.76453  -0.72195  -0.69909  -0.68241  -0.65787
 Alpha  occ. eigenvalues --   -0.64091  -0.62779  -0.58477  -0.55810  -0.53606
 Alpha  occ. eigenvalues --   -0.50791  -0.50619  -0.49292  -0.47678  -0.44098
 Alpha  occ. eigenvalues --   -0.42679  -0.40691  -0.40430  -0.39643  -0.38886
 Alpha  occ. eigenvalues --   -0.38496  -0.37955  -0.37432  -0.36247  -0.34900
 Alpha  occ. eigenvalues --   -0.34447  -0.33924  -0.32624  -0.31175  -0.30941
 Alpha  occ. eigenvalues --   -0.30317  -0.30110  -0.29515  -0.29133  -0.28553
 Alpha  occ. eigenvalues --   -0.28136  -0.26323  -0.26059  -0.25566  -0.25251
 Alpha  occ. eigenvalues --   -0.25135  -0.24580  -0.23537  -0.22522  -0.21749
 Alpha  occ. eigenvalues --   -0.18588  -0.17868  -0.13077  -0.10117   0.04134
 Alpha virt. eigenvalues --    0.05899   0.06350   0.06870   0.07498   0.07950
 Alpha virt. eigenvalues --    0.08316   0.09000   0.09387   0.09695   0.10029
 Alpha virt. eigenvalues --    0.10118   0.10339   0.11148   0.11292   0.12046

  Beta  occ. eigenvalues --  -19.07475 -19.06030 -19.05303 -19.05188 -19.01663
  Beta  occ. eigenvalues --  -10.21020 -10.14082 -10.13488 -10.12955 -10.12748
  Beta  occ. eigenvalues --  -10.12698 -10.12577 -10.09478 -10.08506 -10.08491
  Beta  occ. eigenvalues --  -10.08343 -10.08089 -10.08062 -10.07503 -10.07419
  Beta  occ. eigenvalues --   -1.01400  -0.97992  -0.97316  -0.96454  -0.92329
  Beta  occ. eigenvalues --   -0.76438  -0.72174  -0.69873  -0.68213  -0.65765
  Beta  occ. eigenvalues --   -0.64063  -0.62744  -0.58440  -0.55771  -0.53549
  Beta  occ. eigenvalues --   -0.50748  -0.50554  -0.49273  -0.47634  -0.44076
  Beta  occ. eigenvalues --   -0.42655  -0.40665  -0.40416  -0.39619  -0.38857
  Beta  occ. eigenvalues --   -0.38461  -0.37916  -0.37413  -0.36224  -0.34862
  Beta  occ. eigenvalues --   -0.34419  -0.33897  -0.32586  -0.31148  -0.30924
  Beta  occ. eigenvalues --   -0.30280  -0.30080  -0.29498  -0.29115  -0.28529
  Beta  occ. eigenvalues --   -0.28104  -0.26290  -0.26044  -0.25527  -0.25224
  Beta  occ. eigenvalues --   -0.25118  -0.24552  -0.23516  -0.22495  -0.21733
  Beta  occ. eigenvalues --   -0.18546  -0.17846  -0.13051  -0.10101
  Beta virt. eigenvalues --    0.06116   0.06690   0.06945   0.07255   0.07975
  Beta virt. eigenvalues --    0.08481   0.08588   0.09278   0.09531   0.10065
  Beta virt. eigenvalues --    0.10184   0.10380   0.10537   0.11246   0.11491

 Mulliken charges and spin densities:
               1          2
     1  C    0.221491  -0.548814
     2  O   -0.203646   0.026339
     3  C   -0.319541  -0.103168
     4  C   -0.259570  -0.169841
     5  C    0.230827   0.516126
     6  C    0.542451  -0.125260
     7  C   -1.200780  -0.140224
     8  C    0.812420   0.164659
     9  C   -0.211911   0.120627
    10  C   -0.072263  -0.135806
    11  O   -0.064520   0.019712
    12  C   -1.225095   0.916722
    13  C    1.304735  -1.869909
    14  C   -0.197725   0.048562
    15  C   -0.139684  -0.187049
    16  O   -0.261583   0.022744
    17  O   -0.135722   0.028963
    18  C    0.143512  -0.344828
    19  C    1.370745  -1.762425
    20  O   -0.205009   0.080858
    21  H   -0.088825   0.233281
    22  H    0.031546   0.141590
    23  H   -0.073957   0.236505
    24  H    0.160160   0.018402
    25  H    0.079503   0.091498
    26  H    0.214541  -0.014843
    27  H    0.038925   0.105652
    28  H    0.091005   0.123281
    29  H   -0.229247   0.413535
    30  H    0.013283   0.159756
    31  H   -0.318423   0.476850
    32  H   -0.285786   0.502962
    33  H    0.247325  -0.044665
    34  H   -0.128784   0.423443
    35  H   -0.043978   0.224698
    36  H   -0.268584   0.423248
    37  H   -0.229506   0.403134
    38  H   -0.338330   0.523687
 Sum of Mulliken charges =  -1.00000   1.00000

 Dipole moment (field-independent basis, Debye):
    X=              0.8243    Y=              5.5408    Z=             -2.5420  Tot=              6.1516
 Quadrupole moment (field-independent basis, Debye-Ang):
   XX=           -195.9088   YY=           -171.1483   ZZ=           -151.5043
   XY=              2.9404   XZ=              0.9178   YZ=              3.1440

 Summary of Natural Population Analysis:

                                       Natural Population
                Natural  -----------------------------------------------
    Atom  No    Charge         Core      Valence    Rydberg      Total
 -----------------------------------------------------------------------
      C    1   -0.09770      0.99960     2.09012    0.00798     3.09770
      O    2   -0.27736      0.99986     3.26853    0.00897     4.27736
      C    3    0.14374      0.99928     1.84453    0.01245     2.85626
      C    4    0.12190      0.99930     1.86503    0.01377     2.87810
      C    5   -0.02411      0.99946     2.01522    0.00943     3.02411
      C    6   -0.04417      0.99942     2.03387    0.01088     3.04417
      C    7    0.16013      0.99930     1.82815    0.01242     2.83987
      C    8   -0.05686      0.99944     2.04940    0.00801     3.05686
      C    9   -0.20412      0.99962     2.19765    0.00685     3.20412
      C   10   -0.00889      0.99959     1.99957    0.00973     3.00889
      O   11   -0.28016      0.99987     3.27210    0.00819     4.28016
      C   12   -0.19884      0.99960     2.18990    0.00934     3.19884
      C   13   -0.18461      0.99962     2.17614    0.00885     3.18461
      C   14   -0.24346      0.99957     2.23444    0.00944     3.24346
      C   15    0.41410      0.99971     1.55967    0.02652     2.58590
      O   16   -0.31614      0.99987     3.31002    0.00625     4.31614
      O   17   -0.34583      0.99987     3.33906    0.00689     4.34583
      C   18   -0.20859      0.99961     2.20094    0.00804     3.20859
      C   19   -0.00289      0.99960     1.99209    0.01121     3.00289
      O   20   -0.28366      0.99988     3.27511    0.00867     4.28366
      H   21    0.08587      0.00000     0.41296    0.00117     0.41413
      H   22    0.09251      0.00000     0.40560    0.00188     0.40749
      H   23    0.08488      0.00000     0.41329    0.00182     0.41512
      H   24    0.10049      0.00000     0.39807    0.00144     0.39951
      H   25    0.10786      0.00000     0.39062    0.00152     0.39214
      H   26    0.09510      0.00000     0.40340    0.00151     0.40490
      H   27    0.08718      0.00000     0.41151    0.00132     0.41282
      H   28    0.10998      0.00000     0.38809    0.00193     0.39002
      H   29    0.10378      0.00000     0.39510    0.00112     0.39622
      H   30    0.10230      0.00000     0.39610    0.00160     0.39770
      H   31    0.10114      0.00000     0.39699    0.00187     0.39886
      H   32    0.11780      0.00000     0.38089    0.00131     0.38220
      H   33    0.11563      0.00000     0.38294    0.00142     0.38437
      H   34    0.24073      0.00000     0.25369    0.00558     0.25927
      H   35    0.10282      0.00000     0.39602    0.00116     0.39718
      H   36    0.11306      0.00000     0.38452    0.00241     0.38694
      H   37    0.09081      0.00000     0.40766    0.00153     0.40919
      H   38    0.08556      0.00000     0.41217    0.00227     0.41444
 =======================================================================
   * Total *    0.00000     19.99206    53.77119    0.23675    74.00000

 Normal termination of Gaussian 16 at Sat Dec 12 18:20:18 2020.
