 Gaussian 16, Revision A.03,

 -----------------------------------------------------------
 # opt freq B3LYP/6-31G(d) empiricaldispersion=gd3bj scf=xqc
 -----------------------------------------------------------

 -------------------------------
 CID_105106113_JID_3595_neutraal
 -------------------------------
 Symbolic Z-matrix:
 Charge =  0 Multiplicity = 1

 SCF Done:  E(RB3LYP) =  -540.899936280     A.U. after   14 cycles
 SCF Done:  E(RB3LYP) =  -540.902516317     A.U. after   12 cycles
 SCF Done:  E(RB3LYP) =  -540.897518317     A.U. after   13 cycles
 SCF Done:  E(RB3LYP) =  -540.903043442     A.U. after   12 cycles
 SCF Done:  E(RB3LYP) =  -540.902648362     A.U. after   12 cycles
 SCF Done:  E(RB3LYP) =  -540.903114490     A.U. after   11 cycles
 SCF Done:  E(RB3LYP) =  -540.903133763     A.U. after   10 cycles
 SCF Done:  E(RB3LYP) =  -540.903147451     A.U. after   10 cycles
 SCF Done:  E(RB3LYP) =  -540.903151990     A.U. after    9 cycles
 SCF Done:  E(RB3LYP) =  -540.903153200     A.U. after    8 cycles
 SCF Done:  E(RB3LYP) =  -540.903153607     A.U. after    8 cycles
 SCF Done:  E(RB3LYP) =  -540.903153780     A.U. after    8 cycles
 SCF Done:  E(RB3LYP) =  -540.903153888     A.U. after    8 cycles
 Optimization completed.
    -- Stationary point found.
 Normal termination of Gaussian 16 at Wed Dec  9 23:11:30 2020.

 --------------------------------------------------------------------
 #N Geom=AllCheck Guess=TCheck SCRF=Check GenChk RB3LYP/6-31G(d) Freq
 --------------------------------------------------------------------

 Structure from the checkpoint file:  "JID_3595.chk"
 -------------------------------
 CID_105106113_JID_3595_neutraal
 -------------------------------
 Charge =  0 Multiplicity = 1

 SCF Done:  E(RB3LYP) =  -540.903153888     A.U. after    1 cycles

  Exact polarizability: 138.089  -5.998 134.719  24.166  -0.836  84.744
 Approx polarizability: 192.943 -14.684 215.923  47.216  -7.070 138.248

                      1                      2                      3
                      A                      A                      A
 Frequencies --     38.0682                59.4615                69.9670
 Red. masses --      4.4138                 4.3388                 5.0622
 Frc consts  --      0.0038                 0.0090                 0.0146
 IR Inten    --      0.3303                 0.0422                 0.3699

                      4                      5                      6
                      A                      A                      A
 Frequencies --    124.2018               135.8340               162.2963
 Red. masses --      3.2330                 1.2691                 2.7452
 Frc consts  --      0.0294                 0.0138                 0.0426
 IR Inten    --      0.0438                 0.3839                 0.3583

                      7                      8                      9
                      A                      A                      A
 Frequencies --    217.7144               225.9821               243.3620
 Red. masses --      3.2587                 2.2321                 3.9492
 Frc consts  --      0.0910                 0.0672                 0.1378
 IR Inten    --      3.1115                 6.8393                 0.0527

                     10                     11                     12
                      A                      A                      A
 Frequencies --    294.8834               338.4164               346.3605
 Red. masses --      2.2584                 1.6318                 2.2987
 Frc consts  --      0.1157                 0.1101                 0.1625
 IR Inten    --     24.2358                84.2590                 0.1170

                     13                     14                     15
                      A                      A                      A
 Frequencies --    413.2564               442.1695               478.2350
 Red. masses --      2.5826                 3.6380                 3.1563
 Frc consts  --      0.2599                 0.4191                 0.4253
 IR Inten    --      0.3205                 4.6573                11.9203

                     16                     17                     18
                      A                      A                      A
 Frequencies --    508.6706               545.4230               565.7079
 Red. masses --      3.8101                 3.6944                 4.9461
 Frc consts  --      0.5808                 0.6475                 0.9326
 IR Inten    --      1.0528                 6.4622                 4.1508

                     19                     20                     21
                      A                      A                      A
 Frequencies --    591.0895               606.9276               611.9533
 Red. masses --      5.4956                 1.2941                 2.9613
 Frc consts  --      1.1313                 0.2809                 0.6534
 IR Inten    --      2.3409                45.4998                 2.5483

                     22                     23                     24
                      A                      A                      A
 Frequencies --    646.3982               737.4966               743.6005
 Red. masses --      1.2206                 3.6378                 2.6614
 Frc consts  --      0.3005                 1.1657                 0.8671
 IR Inten    --     44.5536                 0.5278                 4.2070

                     25                     26                     27
                      A                      A                      A
 Frequencies --    764.7635               794.3518               833.1845
 Red. masses --      1.3569                 2.5743                 3.9670
 Frc consts  --      0.4676                 0.9571                 1.6225
 IR Inten    --     35.8151                 3.7154                 0.4376

                     28                     29                     30
                      A                      A                      A
 Frequencies --    887.4438               921.7014               951.4635
 Red. masses --      1.3195                 1.9948                 1.3783
 Frc consts  --      0.6122                 0.9984                 0.7351
 IR Inten    --      0.1585                14.5689                 2.6009

                     31                     32                     33
                      A                      A                      A
 Frequencies --    979.5491               986.4270              1020.6879
 Red. masses --      2.2589                 1.2653                 1.5710
 Frc consts  --      1.2770                 0.7254                 0.9643
 IR Inten    --     11.9908                 1.3772                 2.1255

                     34                     35                     36
                      A                      A                      A
 Frequencies --   1038.2477              1066.1739              1073.1716
 Red. masses --      2.8506                 2.8243                 1.5796
 Frc consts  --      1.8104                 1.8916                 1.0718
 IR Inten    --     81.7202                46.0279                 0.9690

                     37                     38                     39
                      A                      A                      A
 Frequencies --   1090.0148              1095.3002              1142.9239
 Red. masses --      2.1534                 3.2292                 1.9297
 Frc consts  --      1.5074                 2.2825                 1.4852
 IR Inten    --      4.1349                30.9850                 5.1778

                     40                     41                     42
                      A                      A                      A
 Frequencies --   1196.3154              1197.7724              1216.9305
 Red. masses --      1.2036                 1.1092                 2.2727
 Frc consts  --      1.0149                 0.9376                 1.9830
 IR Inten    --      0.6735                 0.2092                 0.1290

                     43                     44                     45
                      A                      A                      A
 Frequencies --   1222.7913              1258.4415              1299.7104
 Red. masses --      1.2815                 2.2631                 1.3434
 Frc consts  --      1.1290                 2.1116                 1.3370
 IR Inten    --     13.9260                 2.9204                15.8489

                     46                     47                     48
                      A                      A                      A
 Frequencies --   1335.6272              1355.7476              1362.4689
 Red. masses --      1.4717                 3.1808                 1.3524
 Frc consts  --      1.5468                 3.4446                 1.4791
 IR Inten    --      0.8863                 1.9860                 7.7089

                     49                     50                     51
                      A                      A                      A
 Frequencies --   1380.8559              1399.1399              1440.8657
 Red. masses --      1.4678                 1.3981                 1.2228
 Frc consts  --      1.6490                 1.6126                 1.4957
 IR Inten    --      1.9305                 7.2034                52.8715

                     52                     53                     54
                      A                      A                      A
 Frequencies --   1446.6378              1493.2012              1508.8536
 Red. masses --      1.2385                 1.8294                 1.0795
 Frc consts  --      1.5271                 2.4032                 1.4479
 IR Inten    --      6.9347                 0.9259                 0.8402

                     55                     56                     57
                      A                      A                      A
 Frequencies --   1519.9291              1524.4492              1531.2747
 Red. masses --      1.0676                 1.1969                 1.2227
 Frc consts  --      1.4532                 1.6389                 1.6892
 IR Inten    --      5.0234                11.8494                10.9641

                     58                     59                     60
                      A                      A                      A
 Frequencies --   1546.5159              1640.1059              1668.2896
 Red. masses --      2.0410                 5.7851                 5.6630
 Frc consts  --      2.8761                 9.1687                 9.2862
 IR Inten    --     13.7053                 0.1059                 1.7272

                     61                     62                     63
                      A                      A                      A
 Frequencies --   2230.4681              3041.1624              3044.3139
 Red. masses --      5.9584                 1.0636                 1.0404
 Frc consts  --     17.4650                 5.7955                 5.6811
 IR Inten    --      1.0183                22.3892                31.9428

                     64                     65                     66
                      A                      A                      A
 Frequencies --   3063.7024              3087.6140              3094.5295
 Red. masses --      1.0601                 1.0855                 1.0986
 Frc consts  --      5.8624                 6.0974                 6.1981
 IR Inten    --     34.1778                 2.6533                18.9054

                     67                     68                     69
                      A                      A                      A
 Frequencies --   3098.1908              3111.5295              3127.8949
 Red. masses --      1.1010                 1.0994                 1.1005
 Frc consts  --      6.2266                 6.2712                 6.3435
 IR Inten    --     16.4385                47.4600                17.2931

                     70                     71                     72
                      A                      A                      A
 Frequencies --   3175.4244              3183.6822              3194.6744
 Red. masses --      1.0862                 1.0879                 1.0922
 Frc consts  --      6.4529                 6.4965                 6.5675
 IR Inten    --     10.4459                 3.4444                29.4297

                     73                     74                     75
                      A                      A                      A
 Frequencies --   3208.2298              3494.0797              3728.7253
 Red. masses --      1.0976                 1.1599                 1.0661
 Frc consts  --      6.6559                 8.3434                 8.7330
 IR Inten    --     27.0104                54.8596                16.5887

 - Thermochemistry -
 -------------------
 Temperature   298.150 Kelvin.  Pressure   1.00000 Atm.
 Atom     1 has atomic number  6 and mass  12.00000

 Molecular mass:   174.10447 amu.
 Principal axes and moments of inertia in atomic units:
                           1         2         3
     Eigenvalues --  1435.379743492.128794146.00368
           X            0.99989  -0.00966   0.01145
           Y            0.00946   0.99980   0.01747
           Z           -0.01162  -0.01736   0.99978
 This molecule is an asymmetric top.
 Rotational symmetry number  1.
 Warning -- assumption of classical behavior for rotation
           may cause significant error
 Rotational temperatures (Kelvin)      0.06034     0.02480     0.02089
 Rotational constants (GHZ):           1.25733     0.51680     0.43530
 Zero-point vibrational energy     599466.8 (Joules/Mol)
                                  143.27601 (Kcal/Mol)
 Warning -- explicit consideration of  21 degrees of freedom as
           vibrations may cause significant error
 Vibrational temperatures:     54.77    85.55   100.67   178.70   195.43
          (Kelvin)            233.51   313.24   325.14   350.14   424.27
                              486.91   498.34   594.58   636.18   688.07
                              731.86   784.74   813.93   850.45   873.23
                              880.46   930.02  1061.09  1069.88  1100.32
                             1142.90  1198.77  1276.83  1326.12  1368.94
                             1409.35  1419.25  1468.54  1493.81  1533.99
                             1544.05  1568.29  1575.89  1644.41  1721.23
                             1723.33  1750.89  1759.32  1810.62  1869.99
                             1921.67  1950.62  1960.29  1986.74  2013.05
                             2073.08  2081.39  2148.38  2170.90  2186.84
                             2193.34  2203.16  2225.09  2359.75  2400.30
                             3209.15  4375.55  4380.09  4407.98  4442.39
                             4452.34  4457.61  4476.80  4500.34  4568.73
                             4580.61  4596.42  4615.93  5027.20  5364.80

 Zero-point correction=                           0.228325 (Hartree/Particle)
 Thermal correction to Energy=                    0.241366
 Thermal correction to Enthalpy=                  0.242310
 Thermal correction to Gibbs Free Energy=         0.188514
 Sum of electronic and zero-point Energies=           -540.674829
 Sum of electronic and thermal Energies=              -540.661788
 Sum of electronic and thermal Enthalpies=            -540.660844
 Sum of electronic and thermal Free Energies=         -540.714640

                     E (Thermal)             CV                S
                      KCal/Mol        Cal/Mol-Kelvin    Cal/Mol-Kelvin
 Total                  151.460             49.705            113.224
 Electronic               0.000              0.000              0.000
 Translational            0.889              2.981             41.371
 Rotational               0.889              2.981             31.408
 Vibrational            149.682             43.744             40.445
 Vibration     1          0.594              1.982              5.357
 Vibration     2          0.597              1.974              4.475
 Vibration     3          0.598              1.968              4.154
 Vibration     4          0.610              1.929              3.034
 Vibration     5          0.614              1.918              2.862
 Vibration     6          0.622              1.889              2.523
 Vibration     7          0.646              1.814              1.978
 Vibration     8          0.650              1.801              1.911
 Vibration     9          0.659              1.774              1.778
 Vibration    10          0.689              1.683              1.446
 Vibration    11          0.719              1.599              1.220
 Vibration    12          0.724              1.583              1.183
 Vibration    13          0.777              1.441              0.915
 Vibration    14          0.802              1.378              0.820
 Vibration    15          0.835              1.298              0.715
 Vibration    16          0.864              1.231              0.637
 Vibration    17          0.901              1.150              0.554
 Vibration    18          0.922              1.105              0.513
 Vibration    19          0.948              1.051              0.465
 Vibration    20          0.966              1.017              0.438
 Vibration    21          0.971              1.007              0.430

 Optimization completed.
    -- Stationary point found.
 Normal termination of Gaussian 16 at Wed Dec  9 23:18:22 2020.

 ----------------------------------------------------------------------
 # B3LYP/6-311++G(d,p) empiricaldispersion=gd3bj scf=xqc pop=npa geom=c
 heck
 ----------------------------------------------------------------------

 ---------------------------------------
 CID_105106113_JID_3595_Energie_neutraal
 ---------------------------------------
 Structure from the checkpoint file:  "JID_3595.chk"
 Charge =  0 Multiplicity = 1

 SCF Done:  E(RB3LYP) =  -541.061430728     A.U. after   15 cycles
 Normal termination of Gaussian 16 at Wed Dec  9 23:21:31 2020.

 ----------------------------------------------------------------------
 # B3LYP/6-311++G(d,p) empiricaldispersion=gd3bj scf=xqc pop=npa geom=c
 heck
 ----------------------------------------------------------------------

 -------------------------------------
 CID_105106113_JID_3595_Energie_kation
 -------------------------------------
 Structure from the checkpoint file:  "JID_3595.chk"
 Charge =  1 Multiplicity = 2

 SCF Done:  E(UB3LYP) =  -540.750689200     A.U. after   27 cycles
 Normal termination of Gaussian 16 at Wed Dec  9 23:29:25 2020.
 Gaussian 16:  ES64L-G16RevA.03 25-Dec-2016

 ----------------------------------------------------------------------
 # B3LYP/6-311++G(d,p) empiricaldispersion=gd3bj scf=xqc pop=npa geom=c
 heck
 ----------------------------------------------------------------------

 ------------------------------------
 CID_105106113_JID_3595_Energie_anion
 ------------------------------------
 Structure from the checkpoint file:  "JID_3595.chk"
 Charge = -1 Multiplicity = 2

                         Standard orientation:
 ---------------------------------------------------------------------
 Center     Atomic      Atomic             Coordinates (Angstroms)
 Number     Number       Type             X           Y           Z
 ---------------------------------------------------------------------
      1          6           0        2.056194   -2.215271   -0.298330
      2          6           0        1.935273   -0.720120   -0.117905
      3          6           0        2.963349   -0.014524    0.517056
      4          6           0        2.899133    1.367083    0.694519
      5          6           0        1.790685    2.068969    0.225923
      6          6           0        0.761439    1.378992   -0.413448
      7          6           0        0.812456   -0.009126   -0.589994
      8          6           0       -0.352284   -0.715298   -1.250534
      9          6           0       -1.371970   -1.285674   -0.245290
     10          6           0       -2.027046   -0.226776    0.659439
     11          6           0       -2.737882    0.793345   -0.127070
     12          6           0       -3.339275    1.598198   -0.798031
     13          8           0       -2.884665   -0.834965    1.626105
     14          1           0        2.032989   -2.499140   -1.358078
     15          1           0        2.997477   -2.582155    0.121225
     16          1           0        1.240905   -2.758496    0.193544
     17          1           0        3.830919   -0.562265    0.877407
     18          1           0        3.711461    1.888933    1.192676
     19          1           0        1.726006    3.145986    0.352864
     20          1           0       -0.107426    1.920739   -0.778455
     21          1           0       -0.872804   -0.015557   -1.913231
     22          1           0        0.004678   -1.537614   -1.880384
     23          1           0       -2.164607   -1.810567   -0.795436
     24          1           0       -0.897611   -2.014783    0.420089
     25          1           0       -1.245350    0.263266    1.248841
     26          1           0       -3.875169    2.320590   -1.370832
     27          1           0       -3.644586   -1.198004    1.142913
 ---------------------------------------------------------------------

 SCF Done:  E(UB3LYP) =  -541.047062321     A.U. after   33 cycles
 SCF Done:  E(UB3LYP) =  -541.047062321     a.u. after    1 cycles

 The electronic state is 2-A.
 Alpha  occ. eigenvalues --  -19.02966 -10.14647 -10.08473 -10.07942 -10.07815
 Alpha  occ. eigenvalues --  -10.07545 -10.07481 -10.07448 -10.07346 -10.07308
 Alpha  occ. eigenvalues --  -10.07100 -10.07065 -10.07024  -0.93286  -0.76523
 Alpha  occ. eigenvalues --   -0.70887  -0.67752  -0.66500  -0.63736  -0.59632
 Alpha  occ. eigenvalues --   -0.58109  -0.52418  -0.49988  -0.47395  -0.45700
 Alpha  occ. eigenvalues --   -0.41440  -0.40680  -0.38150  -0.37729  -0.35425
 Alpha  occ. eigenvalues --   -0.34131  -0.32648  -0.31952  -0.31555  -0.30202
 Alpha  occ. eigenvalues --   -0.29386  -0.28073  -0.26404  -0.26077  -0.24850
 Alpha  occ. eigenvalues --   -0.23898  -0.23011  -0.20137  -0.18297  -0.17668
 Alpha  occ. eigenvalues --   -0.15310  -0.14487   0.04427
 Alpha virt. eigenvalues --    0.06198   0.06697   0.07516   0.07971   0.08354
 Alpha virt. eigenvalues --    0.08455   0.09000   0.09934   0.10508   0.10956
 Alpha virt. eigenvalues --    0.11127   0.12000   0.12191   0.12861   0.13629

  Beta  occ. eigenvalues --  -19.02933 -10.14640 -10.08475 -10.07915 -10.07821
  Beta  occ. eigenvalues --  -10.07542 -10.07455 -10.07414 -10.07324 -10.07297
  Beta  occ. eigenvalues --  -10.07054 -10.07042 -10.06993  -0.93215  -0.76479
  Beta  occ. eigenvalues --   -0.70842  -0.67714  -0.66453  -0.63678  -0.59577
  Beta  occ. eigenvalues --   -0.58054  -0.52338  -0.49935  -0.47346  -0.45628
  Beta  occ. eigenvalues --   -0.41368  -0.40634  -0.38114  -0.37682  -0.35372
  Beta  occ. eigenvalues --   -0.34089  -0.32603  -0.31919  -0.31522  -0.30148
  Beta  occ. eigenvalues --   -0.29348  -0.28018  -0.26341  -0.26039  -0.24795
  Beta  occ. eigenvalues --   -0.23863  -0.22973  -0.20082  -0.18262  -0.17597
  Beta  occ. eigenvalues --   -0.15196  -0.14378
  Beta virt. eigenvalues --    0.06522   0.07205   0.07363   0.08215   0.08238
  Beta virt. eigenvalues --    0.08729   0.08891   0.09439   0.10188   0.10814
  Beta virt. eigenvalues --    0.11336   0.11399   0.12099   0.12475   0.13112

 Mulliken charges and spin densities:
               1          2
     1  C    2.134373  -2.792092
     2  C   -2.128467   2.742825
     3  C    0.453408  -0.920394
     4  C    0.384817  -0.675412
     5  C    0.394648  -0.862183
     6  C   -0.204550  -0.269012
     7  C   -0.217780   1.032110
     8  C   -0.386705   0.087716
     9  C    0.534186  -1.029974
    10  C   -0.048633  -0.305565
    11  C    4.464027  -3.193848
    12  C   -3.602915   2.243626
    13  O   -0.184315  -0.008258
    14  H   -0.099887   0.260992
    15  H   -0.304458   0.454115
    16  H   -0.028938   0.176700
    17  H   -0.253314   0.388244
    18  H   -0.101770   0.244790
    19  H   -0.126734   0.288182
    20  H    0.056758   0.119893
    21  H   -0.091629   0.264058
    22  H   -0.100449   0.260477
    23  H   -0.485981   0.644640
    24  H   -0.078400   0.229686
    25  H    0.262546  -0.040369
    26  H   -1.246876   1.410240
    27  H    0.007039   0.248811
 Sum of Mulliken charges =  -1.00000   1.00000

 Dipole moment (field-independent basis, Debye):
    X=              3.5575    Y=              0.7749    Z=              1.1026  Tot=              3.8042
 Quadrupole moment (field-independent basis, Debye-Ang):
   XX=           -149.2993   YY=           -126.0809   ZZ=           -112.5363
   XY=              8.0296   XZ=             -3.7983   YZ=              2.0430

 Summary of Natural Population Analysis:

                                       Natural Population
                Natural  -----------------------------------------------
    Atom  No    Charge         Core      Valence    Rydberg      Total
 -----------------------------------------------------------------------
      C    1   -0.29456      0.99964     2.28938    0.00554     3.29456
      C    2   -0.01520      0.99947     2.00603    0.00970     3.01520
      C    3   -0.09921      0.99952     2.08993    0.00976     3.09921
      C    4   -0.10034      0.99956     2.09113    0.00965     3.10034
      C    5   -0.10525      0.99956     2.09628    0.00940     3.10525
      C    6   -0.09829      0.99951     2.08914    0.00964     3.09829
      C    7   -0.01192      0.99947     2.00178    0.01068     3.01192
      C    8   -0.20324      0.99960     2.19407    0.00957     3.20324
      C    9   -0.18585      0.99960     2.17664    0.00960     3.18585
      C   10    0.02219      0.99948     1.96436    0.01398     2.97781
      C   11   -0.02028      0.99936     2.01119    0.00973     3.02028
      C   12   -0.10541      0.99928     2.10192    0.00422     3.10541
      O   13   -0.35956      0.99990     3.35350    0.00616     4.35956
      H   14    0.10436      0.00000     0.39452    0.00112     0.39564
      H   15    0.10245      0.00000     0.39647    0.00108     0.39755
      H   16    0.10506      0.00000     0.39368    0.00126     0.39494
      H   17    0.09801      0.00000     0.40100    0.00100     0.40199
      H   18    0.09790      0.00000     0.40127    0.00082     0.40210
      H   19    0.09933      0.00000     0.39980    0.00087     0.40067
      H   20    0.10539      0.00000     0.39303    0.00158     0.39461
      H   21    0.10723      0.00000     0.39097    0.00180     0.39277
      H   22    0.10607      0.00000     0.39256    0.00137     0.39393
      H   23    0.10131      0.00000     0.39583    0.00287     0.39869
      H   24    0.10182      0.00000     0.39663    0.00155     0.39818
      H   25    0.10505      0.00000     0.39257    0.00238     0.39495
      H   26    0.11242      0.00000     0.38502    0.00256     0.38758
      H   27    0.23054      0.00000     0.26561    0.00385     0.26946
 =======================================================================
   * Total *    0.00000     12.99393    33.86430    0.14176    47.00000

 Normal termination of Gaussian 16 at Wed Dec  9 23:39:01 2020.
