 Gaussian 16, Revision A.03,

 -----------------------------------------------------------
 # opt freq B3LYP/6-31G(d) empiricaldispersion=gd3bj scf=xqc
 -----------------------------------------------------------

 -------------------------------
 CID_154466437_JID_6597_neutraal
 -------------------------------
 Symbolic Z-matrix:
 Charge =  0 Multiplicity = 1

 SCF Done:  E(RB3LYP) =  -671.373785764     A.U. after   16 cycles
 SCF Done:  E(RB3LYP) =  -671.380627846     A.U. after   13 cycles
 SCF Done:  E(RB3LYP) =  -671.380894850     A.U. after   13 cycles
 SCF Done:  E(RB3LYP) =  -671.382255977     A.U. after   12 cycles
 SCF Done:  E(RB3LYP) =  -671.382379899     A.U. after   11 cycles
 SCF Done:  E(RB3LYP) =  -671.382385590     A.U. after   11 cycles
 SCF Done:  E(RB3LYP) =  -671.382426168     A.U. after    9 cycles
 SCF Done:  E(RB3LYP) =  -671.382430561     A.U. after    9 cycles
 SCF Done:  E(RB3LYP) =  -671.382431394     A.U. after    8 cycles
 SCF Done:  E(RB3LYP) =  -671.382431523     A.U. after    7 cycles
 Optimization completed.
    -- Stationary point found.
 Normal termination of Gaussian 16 at Thu Dec 10 23:48:32 2020.

 --------------------------------------------------------------------
 #N Geom=AllCheck Guess=TCheck SCRF=Check GenChk RB3LYP/6-31G(d) Freq
 --------------------------------------------------------------------

 Structure from the checkpoint file:  "JID_6597.chk"
 -------------------------------
 CID_154466437_JID_6597_neutraal
 -------------------------------
 Charge =  0 Multiplicity = 1

 SCF Done:  E(RB3LYP) =  -671.382431523     A.U. after    1 cycles

  Exact polarizability: 221.768  -4.020 168.784  -3.468  -6.016  75.038
 Approx polarizability: 344.116   2.747 288.455  -4.680 -12.947 121.756

                      1                      2                      3
                      A                      A                      A
 Frequencies --     61.9840               101.7037               118.6539
 Red. masses --      4.8062                 4.3176                 3.5597
 Frc consts  --      0.0109                 0.0263                 0.0295
 IR Inten    --      1.4742                 2.1476                 0.6322

                      4                      5                      6
                      A                      A                      A
 Frequencies --    152.1572               196.3845               240.9321
 Red. masses --      3.7557                 3.1498                 1.3169
 Frc consts  --      0.0512                 0.0716                 0.0450
 IR Inten    --      1.5086                 2.7248                 0.7230

                      7                      8                      9
                      A                      A                      A
 Frequencies --    278.3717               298.2091               325.3715
 Red. masses --      2.2896                 3.8933                 6.0751
 Frc consts  --      0.1045                 0.2040                 0.3789
 IR Inten    --      0.3384                 1.9733                 1.7601

                     10                     11                     12
                      A                      A                      A
 Frequencies --    342.0228               357.8037               425.9291
 Red. masses --      3.1755                 2.6765                 4.4623
 Frc consts  --      0.2189                 0.2019                 0.4770
 IR Inten    --      0.9547                 0.7830                 1.7176

                     13                     14                     15
                      A                      A                      A
 Frequencies --    437.6842               452.1747               482.6787
 Red. masses --      3.1548                 4.2320                 5.5819
 Frc consts  --      0.3561                 0.5098                 0.7662
 IR Inten    --      2.8359                 1.4368                 3.9926

                     16                     17                     18
                      A                      A                      A
 Frequencies --    512.3772               525.8093               556.9013
 Red. masses --      4.1628                 3.3898                 4.6617
 Frc consts  --      0.6439                 0.5522                 0.8518
 IR Inten    --      3.4200                 0.3617                 0.1299

                     19                     20                     21
                      A                      A                      A
 Frequencies --    600.9452               619.9562               666.4020
 Red. masses --      3.2608                 4.2265                 3.6003
 Frc consts  --      0.6938                 0.9571                 0.9420
 IR Inten    --      4.5226                 2.2800                 4.3376

                     22                     23                     24
                      A                      A                      A
 Frequencies --    679.4874               736.6222               751.6663
 Red. masses --      5.7347                 4.3428                 3.7838
 Frc consts  --      1.5600                 1.3884                 1.2596
 IR Inten    --      2.3120                 5.5718                13.4224

                     25                     26                     27
                      A                      A                      A
 Frequencies --    761.1402               783.5985               806.1764
 Red. masses --      2.7401                 1.7548                 3.4559
 Frc consts  --      0.9353                 0.6348                 1.3233
 IR Inten    --      9.3148                19.3255                 0.2362

                     28                     29                     30
                      A                      A                      A
 Frequencies --    839.8226               861.6163               892.4611
 Red. masses --      1.7297                 2.8911                 1.3608
 Frc consts  --      0.7188                 1.2646                 0.6386
 IR Inten    --     31.3202                 0.7400                 0.5486

                     31                     32                     33
                      A                      A                      A
 Frequencies --    940.5903               958.3220               974.4758
 Red. masses --      3.9966                 1.4012                 2.1753
 Frc consts  --      2.0833                 0.7582                 1.2170
 IR Inten    --      3.0162                 1.4098                 7.2172

                     34                     35                     36
                      A                      A                      A
 Frequencies --    989.1649               992.2933              1002.5668
 Red. masses --      1.2629                 1.2750                 2.0934
 Frc consts  --      0.7280                 0.7397                 1.2397
 IR Inten    --      0.1629                 0.1137                 6.7950

                     37                     38                     39
                      A                      A                      A
 Frequencies --   1052.2580              1074.2471              1080.2811
 Red. masses --      2.0458                 1.5410                 1.9568
 Frc consts  --      1.3346                 1.0478                 1.3455
 IR Inten    --      5.4869                 3.7716                 1.2711

                     40                     41                     42
                      A                      A                      A
 Frequencies --   1088.5842              1106.7970              1157.8476
 Red. masses --      2.1359                 2.8877                 1.5891
 Frc consts  --      1.4912                 2.0842                 1.2552
 IR Inten    --      2.3381                 4.0825                11.2198

                     43                     44                     45
                      A                      A                      A
 Frequencies --   1165.4447              1199.9176              1206.3554
 Red. masses --      1.8977                 1.1090                 1.9024
 Frc consts  --      1.5186                 0.9407                 1.6312
 IR Inten    --      7.6361                 0.6268                21.7703

                     46                     47                     48
                      A                      A                      A
 Frequencies --   1223.3440              1236.3356              1276.2703
 Red. masses --      1.2956                 2.1797                 2.2719
 Frc consts  --      1.1424                 1.9630                 2.1803
 IR Inten    --      1.5393                 0.3087                25.8539

                     49                     50                     51
                      A                      A                      A
 Frequencies --   1291.9977              1301.8389              1309.3516
 Red. masses --      2.8252                 2.0536                 1.7225
 Frc consts  --      2.7785                 2.0506                 1.7398
 IR Inten    --      2.6394                 3.9777                 9.9916

                     52                     53                     54
                      A                      A                      A
 Frequencies --   1356.9136              1368.0334              1388.7100
 Red. masses --      3.0774                 1.7261                 1.8382
 Frc consts  --      3.3384                 1.9034                 2.0886
 IR Inten    --     12.2162                25.9772                 5.1004

                     55                     56                     57
                      A                      A                      A
 Frequencies --   1438.0973              1449.8842              1467.4654
 Red. masses --      2.2128                 1.2963                 2.2191
 Frc consts  --      2.6963                 1.6055                 2.8156
 IR Inten    --     19.3175                 0.6739                 0.3603

                     58                     59                     60
                      A                      A                      A
 Frequencies --   1502.2198              1505.8638              1523.9679
 Red. masses --      1.2226                 2.0914                 1.0981
 Frc consts  --      1.6256                 2.7943                 1.5026
 IR Inten    --      2.8417                11.5048                10.6775

                     61                     62                     63
                      A                      A                      A
 Frequencies --   1524.6039              1532.6972              1540.9682
 Red. masses --      1.3309                 1.7235                 1.1879
 Frc consts  --      1.8226                 2.3855                 1.6620
 IR Inten    --     23.2544                16.4207                22.9156

                     64                     65                     66
                      A                      A                      A
 Frequencies --   1578.3724              1633.3996              1662.9562
 Red. masses --      4.1854                 5.6838                 6.1399
 Frc consts  --      6.1434                 8.9345                10.0039
 IR Inten    --    133.9583                 0.7202                 7.3809

                     67                     68                     69
                      A                      A                      A
 Frequencies --   1669.8235              1760.9543              3035.8283
 Red. masses --      6.5497                10.2656                 1.0468
 Frc consts  --     10.7600                18.7556                 5.6840
 IR Inten    --      8.2917               474.3897                42.3015

                     70                     71                     72
                      A                      A                      A
 Frequencies --   3036.3082              3056.4045              3094.2955
 Red. masses --      1.0681                 1.0704                 1.0920
 Frc consts  --      5.8017                 5.8911                 6.1605
 IR Inten    --     10.5037                30.5149                22.8302

                     73                     74                     75
                      A                      A                      A
 Frequencies --   3103.3908              3138.5738              3168.8911
 Red. masses --      1.0967                 1.0998                 1.0929
 Frc consts  --      6.2232                 6.3832                 6.4663
 IR Inten    --     24.4979                11.8154                 4.1421

                     76                     77                     78
                      A                      A                      A
 Frequencies --   3176.2762              3182.9274              3195.8006
 Red. masses --      1.0895                 1.0871                 1.0895
 Frc consts  --      6.4761                 6.4892                 6.5562
 IR Inten    --     24.1747                 6.0339                12.2988

                     79                     80                     81
                      A                      A                      A
 Frequencies --   3211.0344              3235.5798              3245.5495
 Red. masses --      1.0959                 1.0937                 1.0915
 Frc consts  --      6.6575                 6.7460                 6.7739
 IR Inten    --     30.0639                 4.6436                 7.5133

 - Thermochemistry -
 -------------------
 Temperature   298.150 Kelvin.  Pressure   1.00000 Atm.
 Atom     1 has atomic number  6 and mass  12.00000

 Molecular mass:   211.09971 amu.
 Principal axes and moments of inertia in atomic units:
                           1         2         3
     Eigenvalues --  1845.699603969.091995554.90110
           X            0.99984  -0.01767  -0.00306
           Y            0.01766   0.99984  -0.00321
           Z            0.00311   0.00316   0.99999
 This molecule is an asymmetric top.
 Rotational symmetry number  1.
 Warning -- assumption of classical behavior for rotation
           may cause significant error
 Rotational temperatures (Kelvin)      0.04693     0.02182     0.01559
 Rotational constants (GHZ):           0.97781     0.45470     0.32489
 Zero-point vibrational energy     629720.9 (Joules/Mol)
                                  150.50691 (Kcal/Mol)
 Warning -- explicit consideration of  20 degrees of freedom as
           vibrations may cause significant error
 Vibrational temperatures:     89.18   146.33   170.72   218.92   282.55
          (Kelvin)            346.65   400.51   429.06   468.14   492.09
                              514.80   612.82   629.73   650.58   694.47
                              737.20   756.52   801.26   864.63   891.98
                              958.80   977.63  1059.83  1081.48  1095.11
                             1127.42  1159.91  1208.32  1239.67  1284.05
                             1353.30  1378.81  1402.05  1423.19  1427.69
                             1442.47  1513.96  1545.60  1554.28  1566.23
                             1592.43  1665.88  1676.81  1726.41  1735.68
                             1760.12  1778.81  1836.27  1858.90  1873.06
                             1883.86  1952.30  1968.29  1998.04  2069.10
                             2086.06  2111.36  2161.36  2166.60  2192.65
                             2193.57  2205.21  2217.11  2270.93  2350.10
                             2392.62  2402.50  2533.62  4367.88  4368.57
                             4397.48  4452.00  4465.09  4515.71  4559.33
                             4569.95  4579.52  4598.04  4619.96  4655.28
                             4669.62

 Zero-point correction=                           0.239848 (Hartree/Particle)
 Thermal correction to Energy=                    0.252068
 Thermal correction to Enthalpy=                  0.253012
 Thermal correction to Gibbs Free Energy=         0.201776
 Sum of electronic and zero-point Energies=           -671.142583
 Sum of electronic and thermal Energies=              -671.130364
 Sum of electronic and thermal Enthalpies=            -671.129419
 Sum of electronic and thermal Free Energies=         -671.180656

                     E (Thermal)             CV                S
                      KCal/Mol        Cal/Mol-Kelvin    Cal/Mol-Kelvin
 Total                  158.175             50.466            107.836
 Electronic               0.000              0.000              0.000
 Translational            0.889              2.981             41.945
 Rotational               0.889              2.981             32.076
 Vibrational            156.398             44.504             33.815
 Vibration     1          0.597              1.972              4.393
 Vibration     2          0.604              1.948              3.421
 Vibration     3          0.609              1.934              3.122
 Vibration     4          0.619              1.900              2.645
 Vibration     5          0.636              1.845              2.167
 Vibration     6          0.658              1.778              1.796
 Vibration     7          0.679              1.714              1.544
 Vibration     8          0.691              1.677              1.427
 Vibration     9          0.709              1.625              1.283
 Vibration    10          0.721              1.591              1.203
 Vibration    11          0.733              1.559              1.132
 Vibration    12          0.788              1.414              0.872
 Vibration    13          0.798              1.388              0.834
 Vibration    14          0.811              1.356              0.789
 Vibration    15          0.839              1.288              0.703
 Vibration    16          0.867              1.223              0.628
 Vibration    17          0.881              1.193              0.597
 Vibration    18          0.912              1.125              0.530
 Vibration    19          0.959              1.030              0.448
 Vibration    20          0.980              0.990              0.417

                           ! Non-Optimized Parameters !
 Normal termination of Gaussian 16 at Thu Dec 10 23:58:33 2020.

 ----------------------------------------------------------------------
 # B3LYP/6-311++G(d,p) empiricaldispersion=gd3bj scf=xqc pop=npa geom=c
 heck
 ----------------------------------------------------------------------

 ---------------------------------------
 CID_154466437_JID_6597_Energie_neutraal
 ---------------------------------------
 Structure from the checkpoint file:  "JID_6597.chk"
 Charge =  0 Multiplicity = 1

 SCF Done:  E(RB3LYP) =  -671.554280212     A.U. after   16 cycles
 Normal termination of Gaussian 16 at Fri Dec 11 00:02:33 2020.

 ----------------------------------------------------------------------
 # B3LYP/6-311++G(d,p) empiricaldispersion=gd3bj scf=xqc pop=npa geom=c
 heck
 ----------------------------------------------------------------------

 -------------------------------------
 CID_154466437_JID_6597_Energie_kation
 -------------------------------------
 Structure from the checkpoint file:  "JID_6597.chk"
 Charge =  1 Multiplicity = 2

 SCF Done:  E(UB3LYP) =  -671.280597942     A.U. after   23 cycles
 Normal termination of Gaussian 16 at Fri Dec 11 00:10:18 2020.
 Gaussian 16:  ES64L-G16RevA.03 25-Dec-2016

 ----------------------------------------------------------------------
 # B3LYP/6-311++G(d,p) empiricaldispersion=gd3bj scf=xqc pop=npa geom=c
 heck
 ----------------------------------------------------------------------

 ------------------------------------
 CID_154466437_JID_6597_Energie_anion
 ------------------------------------
 Structure from the checkpoint file:  "JID_6597.chk"
 Charge = -1 Multiplicity = 2

                         Standard orientation:
 ---------------------------------------------------------------------
 Center     Atomic      Atomic             Coordinates (Angstroms)
 Number     Number       Type             X           Y           Z
 ---------------------------------------------------------------------
      1          6           0       -0.321439    2.935920    0.508846
      2          6           0       -1.039393    1.644476    0.192863
      3          6           0       -0.418322    0.425582   -0.022740
      4          6           0        1.049706    0.230067   -0.080053
      5          6           0        1.916275    1.213593   -0.582193
      6          6           0        3.295029    1.015237   -0.588247
      7          6           0        3.832012   -0.176671   -0.102755
      8          6           0        2.977871   -1.181370    0.351753
      9          6           0        1.597025   -0.995183    0.355634
     10          6           0        0.629854   -2.086347    0.728413
     11          6           0       -0.538638   -2.034614   -0.247718
     12          7           0       -1.190578   -0.719117   -0.168803
     13          6           0       -2.607950   -0.736700   -0.223082
     14          8           0       -3.215104   -1.793536   -0.402730
     15          6           0       -3.218800    0.555376   -0.035294
     16          6           0       -2.464228    1.668553    0.174138
     17          1           0       -0.099117    3.530952   -0.387091
     18          1           0        0.621679    2.770142    1.035284
     19          1           0       -0.956984    3.557173    1.148929
     20          1           0        1.512412    2.125731   -1.001696
     21          1           0        3.946719    1.788474   -0.984199
     22          1           0        4.906576   -0.334697   -0.103366
     23          1           0        3.384414   -2.130250    0.692536
     24          1           0        1.113520   -3.067479    0.683062
     25          1           0        0.252373   -1.953895    1.752112
     26          1           0       -0.188241   -2.209404   -1.272934
     27          1           0       -1.313218   -2.767402   -0.026058
     28          1           0       -4.302085    0.581085   -0.050639
     29          1           0       -2.957184    2.624168    0.340123
 ---------------------------------------------------------------------

 SCF Done:  E(UB3LYP) =  -671.566162616     A.U. after   21 cycles

 The electronic state is 2-A.
 Alpha  occ. eigenvalues --  -18.92866 -14.20587 -10.11253 -10.07177 -10.06383
 Alpha  occ. eigenvalues --  -10.05319 -10.04338 -10.04277 -10.04127 -10.04077
 Alpha  occ. eigenvalues --  -10.03751 -10.03478 -10.03222 -10.02939 -10.02887
 Alpha  occ. eigenvalues --  -10.00604  -0.88455  -0.81041  -0.72631  -0.69042
 Alpha  occ. eigenvalues --   -0.65363  -0.63506  -0.60606  -0.59858  -0.54972
 Alpha  occ. eigenvalues --   -0.51741  -0.49386  -0.47700  -0.45003  -0.43188
 Alpha  occ. eigenvalues --   -0.38687  -0.36666  -0.36140  -0.34014  -0.33761
 Alpha  occ. eigenvalues --   -0.31311  -0.30288  -0.30031  -0.29419  -0.28477
 Alpha  occ. eigenvalues --   -0.27533  -0.27328  -0.26721  -0.25784  -0.24414
 Alpha  occ. eigenvalues --   -0.23361  -0.23200  -0.22918  -0.20508  -0.19455
 Alpha  occ. eigenvalues --   -0.18737  -0.14964  -0.12586  -0.11807  -0.10888
 Alpha  occ. eigenvalues --   -0.06493   0.04345
 Alpha virt. eigenvalues --    0.08199   0.08966   0.09453   0.10440   0.10822
 Alpha virt. eigenvalues --    0.11073   0.11480   0.12134   0.12306   0.12519
 Alpha virt. eigenvalues --    0.13165   0.13396   0.14843   0.15638   0.15664

  Beta  occ. eigenvalues --  -18.92857 -14.20322 -10.11282 -10.07182 -10.06105
  Beta  occ. eigenvalues --  -10.05323 -10.04340 -10.04182 -10.04152 -10.04097
  Beta  occ. eigenvalues --  -10.03635 -10.03328 -10.02929 -10.02910 -10.02779
  Beta  occ. eigenvalues --  -10.00332  -0.88336  -0.80661  -0.72328  -0.68764
  Beta  occ. eigenvalues --   -0.65096  -0.63038  -0.60375  -0.59570  -0.54700
  Beta  occ. eigenvalues --   -0.51615  -0.48857  -0.47491  -0.44813  -0.42933
  Beta  occ. eigenvalues --   -0.38544  -0.36418  -0.35926  -0.33804  -0.33533
  Beta  occ. eigenvalues --   -0.31144  -0.30177  -0.29763  -0.29173  -0.28213
  Beta  occ. eigenvalues --   -0.27432  -0.27203  -0.26607  -0.25603  -0.24089
  Beta  occ. eigenvalues --   -0.23179  -0.23077  -0.22343  -0.20325  -0.19233
  Beta  occ. eigenvalues --   -0.17989  -0.13579  -0.11754  -0.10975  -0.10511
  Beta  occ. eigenvalues --   -0.05267
  Beta virt. eigenvalues --    0.08157   0.08930   0.09379   0.09705   0.10421
  Beta virt. eigenvalues --    0.10884   0.11149   0.11701   0.12246   0.12500
  Beta virt. eigenvalues --    0.12834   0.13176   0.13761   0.14988   0.15624

 Mulliken charges and spin densities:
               1          2
     1  C   -0.849639   0.001575
     2  C    0.123693   0.019636
     3  C   -0.364920   0.176355
     4  C    0.309443   0.055954
     5  C   -0.431034   0.121707
     6  C   -0.222035  -0.040865
     7  C   -0.472033   0.242437
     8  C   -0.377458  -0.047850
     9  C    0.721536   0.085064
    10  C   -0.265609   0.015901
    11  C   -0.438593  -0.003450
    12  N    0.232461   0.084999
    13  C    0.128830  -0.006728
    14  O   -0.424959   0.002921
    15  C   -0.517670   0.224574
    16  C    0.148909   0.089932
    17  H    0.134147   0.003527
    18  H    0.147581  -0.002854
    19  H    0.107349   0.001112
    20  H    0.128139  -0.008859
    21  H    0.121099   0.002837
    22  H    0.104730  -0.019124
    23  H    0.098649   0.008847
    24  H    0.116433   0.004529
    25  H    0.146742   0.003944
    26  H    0.133835   0.007757
    27  H    0.203798   0.000618
    28  H    0.130142  -0.016563
    29  H    0.126433  -0.007932
 Sum of Mulliken charges =  -1.00000   1.00000

 Dipole moment (field-independent basis, Debye):
    X=              3.7758    Y=              1.2987    Z=              0.8751  Tot=              4.0876
 Quadrupole moment (field-independent basis, Debye-Ang):
   XX=           -144.9010   YY=           -108.9032   ZZ=           -104.5201
   XY=            -10.2667   XZ=             -2.7632   YZ=             -2.8292

 Summary of Natural Population Analysis:

                                       Natural Population
                Natural  -----------------------------------------------
    Atom  No    Charge         Core      Valence    Rydberg      Total
 -----------------------------------------------------------------------
      C    1   -0.28753      0.99965     2.28341    0.00447     3.28753
      C    2   -0.05949      0.99948     2.05213    0.00788     3.05949
      C    3    0.16001      0.99946     1.83073    0.00980     2.83999
      C    4   -0.01963      0.99946     2.01249    0.00768     3.01963
      C    5   -0.06294      0.99954     2.05497    0.00843     3.06294
      C    6   -0.12746      0.99957     2.11851    0.00938     3.12746
      C    7   -0.05205      0.99958     2.04260    0.00987     3.05205
      C    8   -0.12264      0.99952     2.11396    0.00916     3.12264
      C    9    0.02271      0.99949     1.96938    0.00842     2.97729
      C   10   -0.19924      0.99960     2.19302    0.00662     3.19924
      C   11   -0.08372      0.99962     2.07521    0.00889     3.08372
      N   12   -0.19002      0.99961     2.68043    0.00998     3.69002
      C   13    0.30979      0.99961     1.67002    0.02059     2.69021
      O   14   -0.36002      0.99988     3.35378    0.00636     4.36002
      C   15   -0.10608      0.99952     2.09648    0.01008     3.10608
      C   16   -0.05985      0.99954     2.05153    0.00878     3.05985
      H   17    0.09184      0.00000     0.40693    0.00123     0.40816
      H   18    0.10543      0.00000     0.39367    0.00089     0.39457
      H   19    0.09377      0.00000     0.40523    0.00100     0.40623
      H   20    0.09600      0.00000     0.40266    0.00135     0.40400
      H   21    0.09092      0.00000     0.40803    0.00105     0.40908
      H   22    0.08679      0.00000     0.41213    0.00109     0.41321
      H   23    0.09016      0.00000     0.40827    0.00157     0.40984
      H   24    0.09694      0.00000     0.40194    0.00111     0.40306
      H   25    0.10192      0.00000     0.39687    0.00121     0.39808
      H   26    0.09123      0.00000     0.40760    0.00116     0.40877
      H   27    0.11483      0.00000     0.38372    0.00145     0.38517
      H   28    0.09271      0.00000     0.40535    0.00194     0.40729
      H   29    0.08562      0.00000     0.41283    0.00155     0.41438
 =======================================================================
   * Total *   -0.00000     15.99314    39.84386    0.16300    56.00000

 Normal termination of Gaussian 16 at Fri Dec 11 00:17:30 2020.
