 Gaussian 16, Revision A.03,

 -----------------------------------------------------------
 # opt freq B3LYP/6-31G(d) empiricaldispersion=gd3bj scf=xqc
 -----------------------------------------------------------

 -------------------------------
 CID_121228768_JID_2474_neutraal
 -------------------------------
 Symbolic Z-matrix:
 Charge =  0 Multiplicity = 1

 SCF Done:  E(RB3LYP) =  -533.672155172     A.U. after   16 cycles
 SCF Done:  E(RB3LYP) =  -533.678206102     A.U. after   14 cycles
 SCF Done:  E(RB3LYP) =  -533.680031755     A.U. after   13 cycles
 SCF Done:  E(RB3LYP) =  -533.680147877     A.U. after   14 cycles
 SCF Done:  E(RB3LYP) =  -533.681293002     A.U. after   12 cycles
 SCF Done:  E(RB3LYP) =  -533.681534891     A.U. after   12 cycles
 SCF Done:  E(RB3LYP) =  -533.681621316     A.U. after   11 cycles
 SCF Done:  E(RB3LYP) =  -533.681649144     A.U. after   11 cycles
 SCF Done:  E(RB3LYP) =  -533.681664134     A.U. after   11 cycles
 SCF Done:  E(RB3LYP) =  -533.681669845     A.U. after   10 cycles
 SCF Done:  E(RB3LYP) =  -533.681673922     A.U. after   10 cycles
 SCF Done:  E(RB3LYP) =  -533.681674904     A.U. after    8 cycles
 SCF Done:  E(RB3LYP) =  -533.681675111     A.U. after    8 cycles
 Optimization completed.
    -- Stationary point found.
 Normal termination of Gaussian 16 at Wed Dec  9 17:25:18 2020.

 --------------------------------------------------------------------
 #N Geom=AllCheck Guess=TCheck SCRF=Check GenChk RB3LYP/6-31G(d) Freq
 --------------------------------------------------------------------

 Structure from the checkpoint file:  "JID_2474.chk"
 -------------------------------
 CID_121228768_JID_2474_neutraal
 -------------------------------
 Charge =  0 Multiplicity = 1

 SCF Done:  E(RB3LYP) =  -533.681675111     A.U. after    1 cycles

  Exact polarizability: 149.311   0.181 134.749   0.245  -0.425  53.800
 Approx polarizability: 251.010   0.949 229.835   8.945   1.486  85.334

                      1                      2                      3
                      A                      A                      A
 Frequencies --     64.0273                69.8167               153.5400
 Red. masses --      3.6626                 4.9058                 4.5425
 Frc consts  --      0.0088                 0.0141                 0.0631
 IR Inten    --      0.6223                 3.2712                 3.3724

                      4                      5                      6
                      A                      A                      A
 Frequencies --    191.6804               200.8368               238.2594
 Red. masses --      3.0238                 4.0284                 1.1648
 Frc consts  --      0.0655                 0.0957                 0.0390
 IR Inten    --      0.3112                 1.8403                 1.4089

                      7                      8                      9
                      A                      A                      A
 Frequencies --    324.7702               362.9850               404.5161
 Red. masses --      3.2029                 7.1754                 4.2212
 Frc consts  --      0.1990                 0.5570                 0.4070
 IR Inten    --      5.0462                 1.5495                 4.4583

                     10                     11                     12
                      A                      A                      A
 Frequencies --    456.0617               522.0373               534.9042
 Red. masses --      4.0278                 3.5899                 3.7075
 Frc consts  --      0.4936                 0.5764                 0.6250
 IR Inten    --      9.7602                 9.8550                11.5595

                     13                     14                     15
                      A                      A                      A
 Frequencies --    556.1587               582.9962               598.0228
 Red. masses --      3.4063                 3.3581                 3.5783
 Frc consts  --      0.6208                 0.6725                 0.7540
 IR Inten    --     13.0998                15.5889                 8.5240

                     16                     17                     18
                      A                      A                      A
 Frequencies --    629.4521               675.5083               703.8247
 Red. masses --      3.2219                 1.9279                 1.6283
 Frc consts  --      0.7521                 0.5183                 0.4752
 IR Inten    --      0.7125                88.1020                46.3634

                     19                     20                     21
                      A                      A                      A
 Frequencies --    737.1751               810.5775               817.1722
 Red. masses --      1.2335                 2.6895                 1.3961
 Frc consts  --      0.3950                 1.0412                 0.5493
 IR Inten    --     31.5938                19.7809                21.7193

                     22                     23                     24
                      A                      A                      A
 Frequencies --    870.3520               898.3013               909.3152
 Red. masses --      3.9790                 2.7034                 1.6093
 Frc consts  --      1.7759                 1.2853                 0.7840
 IR Inten    --     17.2641                 4.8123                 6.7470

                     25                     26                     27
                      A                      A                      A
 Frequencies --    930.7509               972.6807               976.6683
 Red. masses --      3.9081                 1.9482                 1.3831
 Frc consts  --      1.9947                 1.0860                 0.7773
 IR Inten    --     14.0190                81.5554                 5.2818

                     28                     29                     30
                      A                      A                      A
 Frequencies --   1052.4194              1055.9837              1087.1339
 Red. masses --      2.5418                 2.0111                 2.0223
 Frc consts  --      1.6587                 1.3213                 1.4082
 IR Inten    --     11.3088                 3.0165                 8.4983

                     31                     32                     33
                      A                      A                      A
 Frequencies --   1091.4132              1115.7001              1143.4692
 Red. masses --      2.2809                 2.0212                 1.4797
 Frc consts  --      1.6008                 1.4823                 1.1399
 IR Inten    --     26.0044                 4.5342                 1.9497

                     34                     35                     36
                      A                      A                      A
 Frequencies --   1171.6885              1237.5493              1282.8505
 Red. masses --      1.2146                 2.4594                 2.0388
 Frc consts  --      0.9824                 2.2192                 1.9769
 IR Inten    --     14.5842                24.8227               226.8319

                     37                     38                     39
                      A                      A                      A
 Frequencies --   1322.9148              1339.0189              1362.9789
 Red. masses --      1.5128                 1.5346                 1.9030
 Frc consts  --      1.5599                 1.6211                 2.0829
 IR Inten    --     45.2880                31.6593                10.3752

                     40                     41                     42
                      A                      A                      A
 Frequencies --   1387.9495              1404.0341              1420.7185
 Red. masses --      1.7433                 1.4045                 1.7568
 Frc consts  --      1.9787                 1.6312                 2.0892
 IR Inten    --     52.4545                30.4195                42.2157

                     43                     44                     45
                      A                      A                      A
 Frequencies --   1452.2762              1513.1200              1514.6367
 Red. masses --      1.6383                 1.0993                 1.0721
 Frc consts  --      2.0358                 1.4828                 1.4491
 IR Inten    --     23.3125                22.8820                14.5393

                     46                     47                     48
                      A                      A                      A
 Frequencies --   1523.0107              1558.7173              1676.1308
 Red. masses --      3.1265                 4.3068                 5.5374
 Frc consts  --      4.2728                 6.1651                 9.1659
 IR Inten    --     16.5023               589.5888                95.5259

                     49                     50                     51
                      A                      A                      A
 Frequencies --   1685.1670              1745.2840              2825.9890
 Red. masses --      5.4516                 9.8074                 1.0813
 Frc consts  --      9.1214                17.6010                 5.0880
 IR Inten    --     21.1270               192.3804               146.7057

                     52                     53                     54
                      A                      A                      A
 Frequencies --   3038.1468              3110.9722              3165.0030
 Red. masses --      1.0434                 1.0947                 1.1002
 Frc consts  --      5.6742                 6.2419                 6.4933
 IR Inten    --     13.1750                11.2400                14.3120

                     55                     56                     57
                      A                      A                      A
 Frequencies --   3204.6708              3211.0464              3243.6937
 Red. masses --      1.0894                 1.0893                 1.0949
 Frc consts  --      6.5919                 6.6174                 6.7874
 IR Inten    --      6.3030                 1.0364                 9.8326

                     58                     59                     60
                      A                      A                      A
 Frequencies --   3271.7278              3293.9563              3580.8962
 Red. masses --      1.0889                 1.1071                 1.0763
 Frc consts  --      6.8672                 7.0775                 8.1312
 IR Inten    --      0.5466                 3.2625                11.1310

 - Thermochemistry -
 -------------------
 Temperature   298.150 Kelvin.  Pressure   1.00000 Atm.
 Atom     1 has atomic number  6 and mass  12.00000

 Molecular mass:   162.07931 amu.
 Principal axes and moments of inertia in atomic units:
                           1         2         3
     Eigenvalues --  1185.496142038.738533116.77638
           X            0.99911   0.04144  -0.00827
           Y           -0.04150   0.99911  -0.00761
           Z            0.00794   0.00794   0.99994
 This molecule is an asymmetric top.
 Rotational symmetry number  1.
 Warning -- assumption of classical behavior for rotation
           may cause significant error
 Rotational temperatures (Kelvin)      0.07306     0.04248     0.02779
 Rotational constants (GHZ):           1.52235     0.88522     0.57904
 Zero-point vibrational energy     468234.3 (Joules/Mol)
                                  111.91068 (Kcal/Mol)
 Warning -- explicit consideration of  15 degrees of freedom as
           vibrations may cause significant error
 Vibrational temperatures:     92.12   100.45   220.91   275.79   288.96
          (Kelvin)            342.80   467.27   522.25   582.01   656.17
                              751.10   769.61   800.19   838.80   860.42
                              905.64   971.91  1012.65  1060.63  1166.24
                             1175.73  1252.24  1292.46  1308.30  1339.14
                             1399.47  1405.21  1514.20  1519.33  1564.14
                             1570.30  1605.24  1645.20  1685.80  1780.56
                             1845.74  1903.38  1926.55  1961.02  1996.95
                             2020.09  2044.10  2089.50  2177.04  2179.22
                             2191.27  2242.65  2411.58  2424.58  2511.07
                             4065.97  4371.22  4476.00  4553.73  4610.81
                             4619.98  4666.95  4707.29  4739.27  5152.11

 Zero-point correction=                           0.178341 (Hartree/Particle)
 Thermal correction to Energy=                    0.188476
 Thermal correction to Enthalpy=                  0.189420
 Thermal correction to Gibbs Free Energy=         0.142502
 Sum of electronic and zero-point Energies=           -533.503334
 Sum of electronic and thermal Energies=              -533.493199
 Sum of electronic and thermal Enthalpies=            -533.492255
 Sum of electronic and thermal Free Energies=         -533.539173

                     E (Thermal)             CV                S
                      KCal/Mol        Cal/Mol-Kelvin    Cal/Mol-Kelvin
 Total                  118.271             39.815             98.747
 Electronic               0.000              0.000              0.000
 Translational            0.889              2.981             41.157
 Rotational               0.889              2.981             30.400
 Vibrational            116.493             33.853             27.190
 Vibration     1          0.597              1.971              4.329
 Vibration     2          0.598              1.969              4.159
 Vibration     3          0.619              1.899              2.628
 Vibration     4          0.634              1.851              2.212
 Vibration     5          0.638              1.839              2.125
 Vibration     6          0.656              1.782              1.816
 Vibration     7          0.709              1.626              1.286
 Vibration     8          0.737              1.548              1.109
 Vibration     9          0.770              1.460              0.946
 Vibration    10          0.814              1.347              0.778
 Vibration    11          0.877              1.201              0.605
 Vibration    12          0.890              1.173              0.576
 Vibration    13          0.912              1.126              0.532
 Vibration    14          0.940              1.068              0.480
 Vibration    15          0.956              1.036              0.453

 Optimization completed.
    -- Stationary point found.
 Normal termination of Gaussian 16 at Wed Dec  9 17:30:42 2020.

 ----------------------------------------------------------------------
 # B3LYP/6-311++G(d,p) empiricaldispersion=gd3bj scf=xqc pop=npa geom=c
 heck
 ----------------------------------------------------------------------

 ---------------------------------------
 CID_121228768_JID_2474_Energie_neutraal
 ---------------------------------------
 Structure from the checkpoint file:  "JID_2474.chk"
 Charge =  0 Multiplicity = 1

 SCF Done:  E(RB3LYP) =  -533.832873645     A.U. after   17 cycles
 Normal termination of Gaussian 16 at Wed Dec  9 17:33:32 2020.

 ----------------------------------------------------------------------
 # B3LYP/6-311++G(d,p) empiricaldispersion=gd3bj scf=xqc pop=npa geom=c
 heck
 ----------------------------------------------------------------------

 -------------------------------------
 CID_121228768_JID_2474_Energie_kation
 -------------------------------------
 Structure from the checkpoint file:  "JID_2474.chk"
 Charge =  1 Multiplicity = 2

 SCF Done:  E(UB3LYP) =  -533.579245761     A.U. after   24 cycles
 Normal termination of Gaussian 16 at Wed Dec  9 17:38:48 2020.
 Gaussian 16:  ES64L-G16RevA.03 25-Dec-2016

 ----------------------------------------------------------------------
 # B3LYP/6-311++G(d,p) empiricaldispersion=gd3bj scf=xqc pop=npa geom=c
 heck
 ----------------------------------------------------------------------

 ------------------------------------
 CID_121228768_JID_2474_Energie_anion
 ------------------------------------
 Structure from the checkpoint file:  "JID_2474.chk"
 Charge = -1 Multiplicity = 2

                         Standard orientation:
 ---------------------------------------------------------------------
 Center     Atomic      Atomic             Coordinates (Angstroms)
 Number     Number       Type             X           Y           Z
 ---------------------------------------------------------------------
      1          6           0       -2.416873   -1.569508    0.270031
      2          6           0       -2.157966   -0.106460   -0.071465
      3          8           0       -3.097547    0.598326   -0.432230
      4          6           0       -0.796153    0.436291    0.074249
      5          6           0       -0.612145    1.786989   -0.057367
      6          6           0        0.659533    2.416112    0.043816
      7          6           0        1.771360    1.614626    0.066347
      8          7           0        1.659263    0.273716    0.178086
      9          6           0        0.380372   -0.405925    0.509448
     10          7           0        0.554473   -1.701643   -0.191255
     11          6           0        1.946708   -1.876026   -0.339847
     12          6           0        2.598456   -0.715833   -0.162383
     13          1           0       -3.494825   -1.719966    0.350404
     14          1           0       -1.940784   -1.861097    1.216023
     15          1           0       -2.026267   -2.217387   -0.522210
     16          1           0       -1.492406    2.378824   -0.290587
     17          1           0        0.765769    3.491034   -0.025058
     18          1           0        2.782789    1.991288   -0.054646
     19          1           0        0.382245   -0.589933    1.607609
     20          1           0        0.084866   -2.463008    0.283723
     21          1           0        2.350890   -2.821915   -0.670806
     22          1           0        3.632197   -0.460551   -0.341404
 ---------------------------------------------------------------------

 SCF Done:  E(UB3LYP) =  -533.841315199     A.U. after   31 cycles

 The electronic state is 2-A.
 Alpha  occ. eigenvalues --  -18.90938 -14.20911 -14.19290 -10.10846 -10.07450
 Alpha  occ. eigenvalues --  -10.07213 -10.06405 -10.04709 -10.02501 -10.00593
 Alpha  occ. eigenvalues --   -9.99464  -9.99169  -0.86648  -0.84786  -0.77038
 Alpha  occ. eigenvalues --   -0.66887  -0.61209  -0.60137  -0.58417  -0.50196
 Alpha  occ. eigenvalues --   -0.47984  -0.46489  -0.42145  -0.37804  -0.36547
 Alpha  occ. eigenvalues --   -0.33759  -0.33134  -0.31978  -0.30099  -0.29828
 Alpha  occ. eigenvalues --   -0.28437  -0.27150  -0.26175  -0.24186  -0.23637
 Alpha  occ. eigenvalues --   -0.21194  -0.21059  -0.19447  -0.18441  -0.14407
 Alpha  occ. eigenvalues --   -0.08497  -0.07538  -0.03199   0.04913
 Alpha virt. eigenvalues --    0.07737   0.09011   0.09805   0.10963   0.11553
 Alpha virt. eigenvalues --    0.12258   0.13194   0.13291   0.14035   0.14905
 Alpha virt. eigenvalues --    0.15122   0.16502   0.17306   0.17808   0.18063

  Beta  occ. eigenvalues --  -18.90596 -14.20793 -14.19260 -10.10852 -10.07479
  Beta  occ. eigenvalues --  -10.07126 -10.06171 -10.04258 -10.02519 -10.00730
  Beta  occ. eigenvalues --   -9.99125  -9.99056  -0.86432  -0.84154  -0.76801
  Beta  occ. eigenvalues --   -0.66599  -0.60837  -0.59760  -0.58205  -0.50036
  Beta  occ. eigenvalues --   -0.47544  -0.46194  -0.41828  -0.37473  -0.36203
  Beta  occ. eigenvalues --   -0.33491  -0.32960  -0.31859  -0.29909  -0.29605
  Beta  occ. eigenvalues --   -0.28105  -0.27071  -0.26018  -0.23743  -0.23189
  Beta  occ. eigenvalues --   -0.20945  -0.20229  -0.18401  -0.17814  -0.13300
  Beta  occ. eigenvalues --   -0.07373  -0.06959  -0.02485
  Beta virt. eigenvalues --    0.07691   0.08999   0.09766   0.10873   0.11011
  Beta virt. eigenvalues --    0.11507   0.12269   0.13294   0.13445   0.14020
  Beta virt. eigenvalues --    0.14892   0.15127   0.16842   0.17614   0.18024

 Mulliken charges and spin densities:
               1          2
     1  C   -0.359226  -0.046168
     2  C   -0.394185   0.109303
     3  O   -0.408821   0.130110
     4  C    1.602273   0.012030
     5  C   -0.095658   0.380112
     6  C   -0.224172  -0.079283
     7  C   -0.164380   0.344869
     8  N    0.244862   0.012552
     9  C   -2.166493  -0.093094
    10  N    0.133457   0.012088
    11  C   -0.173586  -0.037899
    12  C    0.015033  -0.049236
    13  H    0.151977  -0.011656
    14  H    0.112051  -0.002085
    15  H    0.090032   0.048264
    16  H    0.160738  -0.023056
    17  H    0.107118   0.012892
    18  H    0.042387   0.014195
    19  H    0.060700   0.036968
    20  H    0.222445   0.032236
    21  H   -0.004921   0.125096
    22  H    0.048368   0.071761
 Sum of Mulliken charges =  -1.00000   1.00000

 Dipole moment (field-independent basis, Debye):
    X=              4.4833    Y=             -3.3251    Z=              0.9312  Tot=              5.6589
 Quadrupole moment (field-independent basis, Debye-Ang):
   XX=           -107.0999   YY=            -86.9490   ZZ=            -83.4519
   XY=              6.0563   XZ=             -6.3541   YZ=             -1.1592

 Summary of Natural Population Analysis:

                                       Natural Population
                Natural  -----------------------------------------------
    Atom  No    Charge         Core      Valence    Rydberg      Total
 -----------------------------------------------------------------------
      C    1   -0.33204      0.99964     2.32684    0.00555     3.33204
      C    2    0.29155      0.99962     1.68766    0.02117     2.70845
      O    3   -0.29050      0.99988     3.28432    0.00630     4.29050
      C    4   -0.10249      0.99943     2.09243    0.01062     3.10249
      C    5    0.01026      0.99951     1.98126    0.00896     2.98974
      C    6   -0.20580      0.99958     2.19530    0.01092     3.20580
      C    7    0.11720      0.99956     1.87139    0.01185     2.88280
      N    8   -0.21054      0.99965     2.70062    0.01028     3.71054
      C    9    0.10308      0.99959     1.88058    0.01675     2.89692
      N   10   -0.32592      0.99971     2.81299    0.01322     3.82592
      C   11   -0.01631      0.99956     2.00337    0.01338     3.01631
      C   12   -0.04532      0.99953     2.03310    0.01269     3.04532
      H   13    0.10091      0.00000     0.39677    0.00232     0.39909
      H   14    0.09084      0.00000     0.40760    0.00156     0.40916
      H   15    0.10457      0.00000     0.39341    0.00202     0.39543
      H   16    0.10283      0.00000     0.39589    0.00128     0.39717
      H   17    0.09481      0.00000     0.40427    0.00092     0.40519
      H   18    0.08087      0.00000     0.41766    0.00146     0.41913
      H   19    0.05973      0.00000     0.43689    0.00337     0.44027
      H   20    0.17903      0.00000     0.31612    0.00484     0.32097
      H   21    0.09482      0.00000     0.40409    0.00109     0.40518
      H   22    0.09840      0.00000     0.40064    0.00096     0.40160
 =======================================================================
   * Total *   -0.00000     11.99527    30.84320    0.16153    43.00000

 Normal termination of Gaussian 16 at Wed Dec  9 17:46:24 2020.
