 Gaussian 16, Revision A.03,

 -----------------------------------------------------------
 # opt freq B3LYP/6-31G(d) empiricaldispersion=gd3bj scf=xqc
 -----------------------------------------------------------

 -------------------------------
 CID_104579982_JID_7367_neutraal
 -------------------------------
 Symbolic Z-matrix:
 Charge =  0 Multiplicity = 1

 SCF Done:  E(RB3LYP) =  -1106.45532713     A.U. after   14 cycles
 SCF Done:  E(RB3LYP) =  -1106.46239324     A.U. after   13 cycles
 SCF Done:  E(RB3LYP) =  -1106.46496305     A.U. after   13 cycles
 SCF Done:  E(RB3LYP) =  -1106.46802708     A.U. after   14 cycles
 SCF Done:  E(RB3LYP) =  -1106.46936396     A.U. after   13 cycles
 SCF Done:  E(RB3LYP) =  -1106.47006969     A.U. after   12 cycles
 SCF Done:  E(RB3LYP) =  -1106.47043292     A.U. after   12 cycles
 SCF Done:  E(RB3LYP) =  -1106.47069580     A.U. after   11 cycles
 SCF Done:  E(RB3LYP) =  -1106.47117661     A.U. after   12 cycles
 SCF Done:  E(RB3LYP) =  -1106.47157897     A.U. after   11 cycles
 SCF Done:  E(RB3LYP) =  -1106.47182769     A.U. after   10 cycles
 SCF Done:  E(RB3LYP) =  -1106.47182817     A.U. after    9 cycles
 SCF Done:  E(RB3LYP) =  -1106.47182843     A.U. after    7 cycles
 SCF Done:  E(RB3LYP) =  -1106.47182849     A.U. after    7 cycles
 SCF Done:  E(RB3LYP) =  -1106.47182851     A.U. after    6 cycles
 Optimization completed.
    -- Stationary point found.
 Normal termination of Gaussian 16 at Fri Dec 11 12:12:30 2020.

 --------------------------------------------------------------------
 #N Geom=AllCheck Guess=TCheck SCRF=Check GenChk RB3LYP/6-31G(d) Freq
 --------------------------------------------------------------------

 Structure from the checkpoint file:  "JID_7367.chk"
 -------------------------------
 CID_104579982_JID_7367_neutraal
 -------------------------------
 Charge =  0 Multiplicity = 1

 SCF Done:  E(RB3LYP) =  -1106.47182851     A.U. after    1 cycles

  Exact polarizability: 183.396   8.105 175.078  -7.301  -0.318 124.784
 Approx polarizability: 244.766  -1.845 273.673 -14.014  -2.985 197.226

                      1                      2                      3
                      A                      A                      A
 Frequencies --     17.9327                31.3751                38.1636
 Red. masses --      5.0086                 3.9500                 4.3534
 Frc consts  --      0.0009                 0.0023                 0.0037
 IR Inten    --      1.0743                 0.2599                 1.4901

                      4                      5                      6
                      A                      A                      A
 Frequencies --     51.4801                58.7962                86.2928
 Red. masses --      3.2388                 5.1122                 3.4983
 Frc consts  --      0.0051                 0.0104                 0.0153
 IR Inten    --      0.8615                 1.0959                 1.2343

                      7                      8                      9
                      A                      A                      A
 Frequencies --     93.8985               130.4236               174.6222
 Red. masses --      3.1945                 3.2257                 3.8053
 Frc consts  --      0.0166                 0.0323                 0.0684
 IR Inten    --      2.6211                 1.0133                 0.9799

                     10                     11                     12
                      A                      A                      A
 Frequencies --    177.9997               197.8357               228.9561
 Red. masses --      2.2352                 1.8465                 1.5604
 Frc consts  --      0.0417                 0.0426                 0.0482
 IR Inten    --      1.6985                 0.3468                 0.2461

                     13                     14                     15
                      A                      A                      A
 Frequencies --    238.0896               262.0092               292.4911
 Red. masses --      1.4520                 3.0035                 2.4293
 Frc consts  --      0.0485                 0.1215                 0.1224
 IR Inten    --      1.0480                 0.3582                 2.0096

                     16                     17                     18
                      A                      A                      A
 Frequencies --    310.9044               333.2877               372.1306
 Red. masses --      2.9701                 2.8832                 3.9632
 Frc consts  --      0.1692                 0.1887                 0.3234
 IR Inten    --      3.7768                 0.9052                 0.4550

                     19                     20                     21
                      A                      A                      A
 Frequencies --    428.3251               458.2084               484.3328
 Red. masses --      4.8189                 2.9554                 3.4221
 Frc consts  --      0.5209                 0.3656                 0.4730
 IR Inten    --      9.5929                 4.8143                 9.0438

                     22                     23                     24
                      A                      A                      A
 Frequencies --    508.9485               560.3561               572.9947
 Red. masses --      1.4112                 4.5279                 4.2382
 Frc consts  --      0.2154                 0.8377                 0.8198
 IR Inten    --     58.1448                20.2606                 4.0688

                     25                     26                     27
                      A                      A                      A
 Frequencies --    581.6519               620.1561               627.4019
 Red. masses --      2.3229                 3.4152                 3.1970
 Frc consts  --      0.4630                 0.7739                 0.7414
 IR Inten    --     56.8217                12.9429                16.7507

                     28                     29                     30
                      A                      A                      A
 Frequencies --    645.5486               661.8559               685.6992
 Red. masses --      4.1322                 6.2571                 3.2467
 Frc consts  --      1.0146                 1.6149                 0.8994
 IR Inten    --     13.1977                 7.0270                13.8023

                     31                     32                     33
                      A                      A                      A
 Frequencies --    716.2304               766.1976               804.1420
 Red. masses --      3.8127                 3.4562                 1.3310
 Frc consts  --      1.1524                 1.1955                 0.5071
 IR Inten    --      3.3635                10.5856                21.5944

                     34                     35                     36
                      A                      A                      A
 Frequencies --    811.5735               833.8256               861.6790
 Red. masses --      1.6159                 2.0522                 2.5420
 Frc consts  --      0.6271                 0.8407                 1.1120
 IR Inten    --     32.3252                 8.4783                 4.5730

                     37                     38                     39
                      A                      A                      A
 Frequencies --    866.8513               914.7478               922.2539
 Red. masses --      1.3859                 2.1198                 1.9111
 Frc consts  --      0.6136                 1.0451                 0.9577
 IR Inten    --     10.8222                 6.1134                 9.7228

                     40                     41                     42
                      A                      A                      A
 Frequencies --    966.2054               967.5377              1006.7180
 Red. masses --      2.1051                 2.0287                 1.9985
 Frc consts  --      1.1579                 1.1190                 1.1933
 IR Inten    --      5.9708                 6.3091                 5.7228

                     43                     44                     45
                      A                      A                      A
 Frequencies --   1021.2076              1042.3803              1070.5932
 Red. masses --      2.0718                 1.8646                 2.1347
 Frc consts  --      1.2730                 1.1937                 1.4416
 IR Inten    --      7.6171                13.9425                10.2275

                     46                     47                     48
                      A                      A                      A
 Frequencies --   1074.4954              1092.4765              1102.4644
 Red. masses --      2.0726                 1.8943                 1.6073
 Frc consts  --      1.4098                 1.3321                 1.1510
 IR Inten    --     12.4463                 6.8465                 1.5053

                     49                     50                     51
                      A                      A                      A
 Frequencies --   1117.8769              1164.5302              1178.8018
 Red. masses --      2.1719                 2.6767                 2.5025
 Frc consts  --      1.5991                 2.1387                 2.0488
 IR Inten    --     10.1784                26.3311                59.5544

                     52                     53                     54
                      A                      A                      A
 Frequencies --   1180.7854              1191.9130              1201.8111
 Red. masses --      1.9148                 2.0373                 2.7404
 Frc consts  --      1.5730                 1.7053                 2.3321
 IR Inten    --     24.4820                 4.9835                 8.0513

                     55                     56                     57
                      A                      A                      A
 Frequencies --   1226.9655              1243.0261              1267.7949
 Red. masses --      2.0015                 1.4214                 1.3092
 Frc consts  --      1.7753                 1.2940                 1.2398
 IR Inten    --     23.3469                 9.4514                14.4451

                     58                     59                     60
                      A                      A                      A
 Frequencies --   1280.4031              1285.8585              1312.3804
 Red. masses --      2.0045                 1.4533                 1.4008
 Frc consts  --      1.9362                 1.4157                 1.4215
 IR Inten    --     86.2417                 0.9554                10.4417

                     61                     62                     63
                      A                      A                      A
 Frequencies --   1335.7343              1341.7673              1351.0359
 Red. masses --      1.6320                 1.4848                 1.3571
 Frc consts  --      1.7155                 1.5750                 1.4595
 IR Inten    --     57.3356                 8.9843                12.2916

                     64                     65                     66
                      A                      A                      A
 Frequencies --   1356.1218              1371.6395              1377.4929
 Red. masses --      1.4416                 1.4502                 1.5191
 Frc consts  --      1.5621                 1.6075                 1.6983
 IR Inten    --      2.3875                25.8596                 9.6581

                     67                     68                     69
                      A                      A                      A
 Frequencies --   1403.5994              1423.0274              1430.5441
 Red. masses --      1.5983                 1.3661                 1.2767
 Frc consts  --      1.8552                 1.6299                 1.5393
 IR Inten    --     10.5467                13.6982                 2.5232

                     70                     71                     72
                      A                      A                      A
 Frequencies --   1438.3563              1454.1287              1498.6804
 Red. masses --      1.2248                 1.8119                 1.0854
 Frc consts  --      1.4930                 2.2574                 1.4363
 IR Inten    --      1.8948                55.1492                 1.8950

                     73                     74                     75
                      A                      A                      A
 Frequencies --   1507.1056              1510.7901              1517.1862
 Red. masses --      1.2321                 1.0702                 1.0862
 Frc consts  --      1.6489                 1.4393                 1.4732
 IR Inten    --     49.4890                 2.2757                 4.3842

                     76                     77                     78
                      A                      A                      A
 Frequencies --   1526.2727              1528.4205              1531.9888
 Red. masses --      1.0416                 1.1295                 1.1031
 Frc consts  --      1.4296                 1.5546                 1.5254
 IR Inten    --     10.5324                24.2789                 5.6671

                     79                     80                     81
                      A                      A                      A
 Frequencies --   1533.4721              1541.0923              1548.6713
 Red. masses --      1.1110                 1.1073                 4.1536
 Frc consts  --      1.5393                 1.5495                 5.8694
 IR Inten    --      2.6819                15.4790                17.0661

                     82                     83                     84
                      A                      A                      A
 Frequencies --   1600.8647              1839.5035              2948.6724
 Red. masses --      6.5147                10.3838                 1.0727
 Frc consts  --      9.8368                20.7018                 5.4952
 IR Inten    --     15.8079               438.8689                68.2119

                     85                     86                     87
                      A                      A                      A
 Frequencies --   3003.5272              3018.0795              3039.5570
 Red. masses --      1.0852                 1.0827                 1.0625
 Frc consts  --      5.7682                 5.8107                 5.7834
 IR Inten    --     76.5574                14.6142                28.8790

                     88                     89                     90
                      A                      A                      A
 Frequencies --   3053.7337              3058.0880              3063.6807
 Red. masses --      1.0347                 1.0372                 1.0866
 Frc consts  --      5.6851                 5.7148                 6.0090
 IR Inten    --     27.7842                21.3763                30.0999

                     91                     92                     93
                      A                      A                      A
 Frequencies --   3066.2061              3078.5096              3093.2596
 Red. masses --      1.0687                 1.1006                 1.0605
 Frc consts  --      5.9199                 6.1453                 5.9786
 IR Inten    --     19.6068                 9.7524                21.2051

                     94                     95                     96
                      A                      A                      A
 Frequencies --   3123.8059              3125.1863              3128.8756
 Red. masses --      1.1028                 1.1028                 1.0976
 Frc consts  --      6.3402                 6.3460                 6.3312
 IR Inten    --     46.4734                30.1703                 4.8250

                     97                     98                     99
                      A                      A                      A
 Frequencies --   3129.5272              3144.1639              3152.9913
 Red. masses --      1.1036                 1.1050                 1.1009
 Frc consts  --      6.3684                 6.4364                 6.4480
 IR Inten    --     29.5039                17.7436                13.3195

                    100                    101                    102
                      A                      A                      A
 Frequencies --   3217.7203              3490.7687              3605.6922
 Red. masses --      1.0933                 1.0733                 1.0770
 Frc consts  --      6.6695                 7.7056                 8.2500
 IR Inten    --     19.3535                 3.9882                17.5446

 - Thermochemistry -
 -------------------
 Temperature   298.150 Kelvin.  Pressure   1.00000 Atm.
 Atom     1 has atomic number  6 and mass  12.00000

 Molecular mass:   253.12488 amu.
 Principal axes and moments of inertia in atomic units:
                           1         2         3
     Eigenvalues --  2837.207368281.295539894.97332
           X            0.99968   0.02386  -0.00853
           Y           -0.02367   0.99947   0.02229
           Z            0.00906  -0.02208   0.99972
 This molecule is an asymmetric top.
 Rotational symmetry number  1.
 Warning -- assumption of classical behavior for rotation
           may cause significant error
 Rotational temperatures (Kelvin)      0.03053     0.01046     0.00875
 Rotational constants (GHZ):           0.63610     0.21793     0.18239
 Zero-point vibrational energy     807093.1 (Joules/Mol)
                                  192.89989 (Kcal/Mol)
 Warning -- explicit consideration of  26 degrees of freedom as
           vibrations may cause significant error
 Vibrational temperatures:     25.80    45.14    54.91    74.07    84.59
          (Kelvin)            124.16   135.10   187.65   251.24   256.10
                              284.64   329.42   342.56   376.97   420.83
                              447.32   479.53   535.41   616.26   659.26
                              696.85   732.26   806.23   824.41   836.87
                              892.27   902.69   928.80   952.26   986.57
                             1030.50  1102.39  1156.98  1167.67  1199.69
                             1239.76  1247.21  1316.12  1326.92  1390.15
                             1392.07  1448.44  1469.29  1499.75  1540.34
                             1545.96  1571.83  1586.20  1608.38  1675.50
                             1696.03  1698.89  1714.90  1729.14  1765.33
                             1788.44  1824.07  1842.21  1850.06  1888.22
                             1921.82  1930.50  1943.84  1951.16  1973.48
                             1981.91  2019.47  2047.42  2058.23  2069.47
                             2092.17  2156.27  2168.39  2173.69  2182.89
                             2195.97  2199.06  2204.19  2206.32  2217.29
                             2228.19  2303.29  2646.64  4242.48  4321.41
                             4342.34  4373.24  4393.64  4399.91  4407.95
                             4411.59  4429.29  4450.51  4494.46  4496.45
                             4501.75  4502.69  4523.75  4536.45  4629.58
                             5022.44  5187.79

 Zero-point correction=                           0.307406 (Hartree/Particle)
 Thermal correction to Energy=                    0.324973
 Thermal correction to Enthalpy=                  0.325918
 Thermal correction to Gibbs Free Energy=         0.259069
 Sum of electronic and zero-point Energies=          -1106.164423
 Sum of electronic and thermal Energies=             -1106.146855
 Sum of electronic and thermal Enthalpies=           -1106.145911
 Sum of electronic and thermal Free Energies=        -1106.212759

                     E (Thermal)             CV                S
                      KCal/Mol        Cal/Mol-Kelvin    Cal/Mol-Kelvin
 Total                  203.924             65.095            140.694
 Electronic               0.000              0.000              0.000
 Translational            0.889              2.981             42.486
 Rotational               0.889              2.981             33.808
 Vibrational            202.146             59.134             64.400
 Vibration     1          0.593              1.986              6.851
 Vibration     2          0.594              1.983              5.741
 Vibration     3          0.594              1.982              5.352
 Vibration     4          0.596              1.977              4.760
 Vibration     5          0.596              1.974              4.497
 Vibration     6          0.601              1.959              3.742
 Vibration     7          0.603              1.954              3.577
 Vibration     8          0.612              1.923              2.940
 Vibration     9          0.627              1.874              2.385
 Vibration    10          0.628              1.869              2.349
 Vibration    11          0.637              1.843              2.153
 Vibration    12          0.652              1.797              1.887
 Vibration    13          0.656              1.782              1.817
 Vibration    14          0.669              1.742              1.648
 Vibration    15          0.688              1.688              1.460
 Vibration    16          0.700              1.653              1.358
 Vibration    17          0.715              1.609              1.244
 Vibration    18          0.744              1.529              1.071
 Vibration    19          0.790              1.409              0.864
 Vibration    20          0.816              1.343              0.771
 Vibration    21          0.840              1.285              0.698
 Vibration    22          0.864              1.230              0.636
 Vibration    23          0.916              1.117              0.523
 Vibration    24          0.929              1.090              0.499
 Vibration    25          0.938              1.071              0.482
 Vibration    26          0.980              0.989              0.416

 Optimization completed.
    -- Stationary point found.
 Normal termination of Gaussian 16 at Fri Dec 11 12:26:07 2020.

 ----------------------------------------------------------------------
 # B3LYP/6-311++G(d,p) empiricaldispersion=gd3bj scf=xqc pop=npa geom=c
 heck
 ----------------------------------------------------------------------

 ---------------------------------------
 CID_104579982_JID_7367_Energie_neutraal
 ---------------------------------------
 Structure from the checkpoint file:  "JID_7367.chk"
 Charge =  0 Multiplicity = 1

 SCF Done:  E(RB3LYP) =  -1106.69951838     A.U. after   15 cycles
 Normal termination of Gaussian 16 at Fri Dec 11 12:33:32 2020.

 ----------------------------------------------------------------------
 # B3LYP/6-311++G(d,p) empiricaldispersion=gd3bj scf=xqc pop=npa geom=c
 heck
 ----------------------------------------------------------------------

 -------------------------------------
 CID_104579982_JID_7367_Energie_kation
 -------------------------------------
 Structure from the checkpoint file:  "JID_7367.chk"
 Charge =  1 Multiplicity = 2

 SCF Done:  E(UB3LYP) =  -1106.40310978     A.U. after   26 cycles
 Normal termination of Gaussian 16 at Fri Dec 11 12:55:47 2020.
 Gaussian 16:  ES64L-G16RevA.03 25-Dec-2016

 ----------------------------------------------------------------------
 # B3LYP/6-311++G(d,p) empiricaldispersion=gd3bj scf=xqc pop=npa geom=c
 heck
 ----------------------------------------------------------------------

 ------------------------------------
 CID_104579982_JID_7367_Energie_anion
 ------------------------------------
 Structure from the checkpoint file:  "JID_7367.chk"
 Charge = -1 Multiplicity = 2

                         Standard orientation:
 ---------------------------------------------------------------------
 Center     Atomic      Atomic             Coordinates (Angstroms)
 Number     Number       Type             X           Y           Z
 ---------------------------------------------------------------------
      1          6           0       -4.363810   -2.493906   -0.790403
      2          6           0       -4.119582   -1.760376    0.537828
      3          6           0       -3.288267   -0.520852    0.392877
      4          6           0       -3.651236    0.776133    0.625877
      5          7           0       -2.687072    1.737966    0.410414
      6          6           0       -1.575802    1.200352    0.005232
      7         16           0       -1.620496   -0.555384   -0.138965
      8          6           0       -0.323679    1.955704   -0.369465
      9          6           0       -0.177616    3.229652    0.475461
     10          7           0        0.805539    1.029312   -0.305224
     11          6           0        2.010675    1.444691   -1.002799
     12          6           0        3.109972    0.387474   -0.860963
     13          6           0        2.698184   -1.023678   -1.349674
     14          6           0        3.407090   -1.996755   -0.395011
     15          6           0        3.712953   -1.170654    0.855223
     16          8           0        4.136105   -1.568959    1.924470
     17          7           0        3.442721    0.142849    0.540005
     18          1           0       -4.859151   -1.835003   -1.511105
     19          1           0       -4.995109   -3.375765   -0.636448
     20          1           0       -3.419697   -2.826478   -1.235368
     21          1           0       -5.079536   -1.467921    0.980454
     22          1           0       -3.646818   -2.448162    1.251538
     23          1           0       -4.632598    1.082760    0.972635
     24          1           0       -0.419809    2.247695   -1.425842
     25          1           0       -0.042733    2.969295    1.531432
     26          1           0        0.685423    3.816597    0.144807
     27          1           0       -1.077007    3.844966    0.395672
     28          1           0        1.031875    0.815644    0.665339
     29          1           0        1.774075    1.562686   -2.068200
     30          1           0        2.409775    2.416876   -0.658570
     31          1           0        3.995228    0.744768   -1.409455
     32          1           0        2.965601   -1.172514   -2.399009
     33          1           0        1.613459   -1.115172   -1.254045
     34          1           0        4.365292   -2.351979   -0.794150
     35          1           0        2.817990   -2.879346   -0.134066
     36          1           0        3.791232    0.871281    1.150593
 ---------------------------------------------------------------------

 SCF Done:  E(UB3LYP) =  -1106.69348611     A.U. after   33 cycles
 SCF Done:  E(UB3LYP) =  -1106.69348611     a.u. after    1 cycles

 The electronic state is 2-A.
 Alpha  occ. eigenvalues --  -88.76731 -18.99884 -14.24228 -14.20658 -14.20237
 Alpha  occ. eigenvalues --  -10.17982 -10.12124 -10.11934 -10.11569 -10.10059
 Alpha  occ. eigenvalues --  -10.09651 -10.09610 -10.09333 -10.08876 -10.08207
 Alpha  occ. eigenvalues --  -10.07984 -10.06258  -7.85342  -5.81609  -5.81265
 Alpha  occ. eigenvalues --   -5.80967  -0.94798  -0.85820  -0.85065  -0.81533
 Alpha  occ. eigenvalues --   -0.72039  -0.69365  -0.68147  -0.66264  -0.63550
 Alpha  occ. eigenvalues --   -0.61600  -0.56138  -0.54963  -0.52585  -0.50378
 Alpha  occ. eigenvalues --   -0.49691  -0.46044  -0.44396  -0.41923  -0.40240
 Alpha  occ. eigenvalues --   -0.38046  -0.37812  -0.36577  -0.36018  -0.35248
 Alpha  occ. eigenvalues --   -0.34097  -0.33926  -0.32333  -0.31543  -0.31126
 Alpha  occ. eigenvalues --   -0.30579  -0.30298  -0.29781  -0.29156  -0.28679
 Alpha  occ. eigenvalues --   -0.27775  -0.27352  -0.26264  -0.25503  -0.25205
 Alpha  occ. eigenvalues --   -0.24571  -0.24031  -0.17451  -0.17258  -0.16986
 Alpha  occ. eigenvalues --   -0.16236  -0.14211  -0.13282   0.03886
 Alpha virt. eigenvalues --    0.05264   0.06403   0.07151   0.07879   0.07978
 Alpha virt. eigenvalues --    0.08271   0.08726   0.09374   0.09861   0.10079
 Alpha virt. eigenvalues --    0.10434   0.10602   0.11249   0.11956   0.12191

  Beta  occ. eigenvalues --  -88.76716 -18.99882 -14.24207 -14.20655 -14.20212
  Beta  occ. eigenvalues --  -10.17983 -10.12103 -10.11763 -10.11576 -10.10022
  Beta  occ. eigenvalues --  -10.09650 -10.09504 -10.09330 -10.08868 -10.08187
  Beta  occ. eigenvalues --  -10.07971 -10.06229  -7.85329  -5.81605  -5.81261
  Beta  occ. eigenvalues --   -5.80910  -0.94792  -0.85701  -0.85019  -0.81509
  Beta  occ. eigenvalues --   -0.71917  -0.69318  -0.68067  -0.66199  -0.63472
  Beta  occ. eigenvalues --   -0.61513  -0.56076  -0.54891  -0.52531  -0.50330
  Beta  occ. eigenvalues --   -0.49646  -0.45898  -0.44287  -0.41853  -0.40179
  Beta  occ. eigenvalues --   -0.38012  -0.37736  -0.36523  -0.35971  -0.35221
  Beta  occ. eigenvalues --   -0.33969  -0.33875  -0.32288  -0.31492  -0.31021
  Beta  occ. eigenvalues --   -0.30541  -0.30200  -0.29747  -0.29063  -0.28567
  Beta  occ. eigenvalues --   -0.27698  -0.27294  -0.26177  -0.25428  -0.25148
  Beta  occ. eigenvalues --   -0.24514  -0.23985  -0.17246  -0.17099  -0.16932
  Beta  occ. eigenvalues --   -0.16212  -0.14005  -0.12874
  Beta virt. eigenvalues --    0.05682   0.06512   0.07261   0.07649   0.08053
  Beta virt. eigenvalues --    0.08427   0.08721   0.08955   0.09582   0.10037
  Beta virt. eigenvalues --    0.10394   0.10624   0.10878   0.11220   0.12128

 Mulliken charges and spin densities:
               1          2
     1  C   -0.252341  -0.238656
     2  C   -0.573838   0.115726
     3  C    0.660432  -0.122027
     4  C    0.015311  -0.041918
     5  N    0.066000   0.022262
     6  C   -0.431465   0.257252
     7  S   -0.606254   0.087958
     8  C   -0.437421   0.422378
     9  C    0.339293  -0.934287
    10  N    0.026592   0.012250
    11  C   -0.348262  -0.212528
    12  C    1.513310  -1.029695
    13  C    0.013427  -0.738857
    14  C    0.085357  -0.293022
    15  C    0.103579  -0.150507
    16  O   -0.383670   0.011227
    17  N   -0.195366  -0.060642
    18  H    0.135439   0.003399
    19  H   -0.099018   0.226538
    20  H    0.145716  -0.005058
    21  H    0.053359   0.093647
    22  H    0.024280   0.128810
    23  H    0.150447   0.002594
    24  H   -0.102823   0.300655
    25  H    0.078299   0.068704
    26  H   -0.159849   0.306895
    27  H    0.084494   0.075795
    28  H    0.236697  -0.026145
    29  H   -0.154142   0.317889
    30  H   -0.319480   0.478354
    31  H   -0.971232   1.241236
    32  H   -0.131750   0.285067
    33  H    0.067077   0.110480
    34  H    0.068043   0.104479
    35  H    0.171984   0.001242
    36  H    0.127773   0.178505
 Sum of Mulliken charges =  -1.00000   1.00000

 Dipole moment (field-independent basis, Debye):
    X=             -5.6187    Y=             -2.7455    Z=              0.6976  Tot=              6.2924
 Quadrupole moment (field-independent basis, Debye-Ang):
   XX=           -197.2038   YY=           -158.6882   ZZ=           -147.4549
   XY=             -5.9177   XZ=              1.5775   YZ=             10.8043

 Summary of Natural Population Analysis:

                                       Natural Population
                Natural  -----------------------------------------------
    Atom  No    Charge         Core      Valence    Rydberg      Total
 -----------------------------------------------------------------------
      C    1   -0.28201      0.99966     2.27642    0.00592     3.28201
      C    2   -0.20638      0.99959     2.19681    0.00998     3.20638
      C    3   -0.09828      0.99949     2.08698    0.01181     3.09828
      C    4   -0.02845      0.99945     2.01375    0.01525     3.02845
      N    5   -0.24803      0.99964     2.73845    0.00994     3.74803
      C    6    0.07066      0.99959     1.91095    0.01880     2.92934
      S    7    0.19339      4.99939     2.78891    0.01830     7.80661
      C    8   -0.03222      0.99954     2.01975    0.01292     3.03222
      C    9   -0.28950      0.99965     2.28350    0.00635     3.28950
      N   10   -0.34494      0.99973     2.83424    0.01097     3.84494
      C   11   -0.08515      0.99960     2.07398    0.01157     3.08515
      C   12   -0.00818      0.99960     1.99462    0.01396     3.00818
      C   13   -0.19736      0.99962     2.18932    0.00842     3.19736
      C   14   -0.23309      0.99960     2.22635    0.00714     3.23309
      C   15    0.34606      0.99968     1.63010    0.02416     2.65394
      O   16   -0.32029      0.99987     3.31481    0.00561     4.32029
      N   17   -0.32888      0.99966     2.81901    0.01021     3.82888
      H   18    0.09788      0.00000     0.40134    0.00078     0.40212
      H   19    0.09579      0.00000     0.40292    0.00129     0.40421
      H   20    0.09906      0.00000     0.40013    0.00081     0.40094
      H   21    0.10135      0.00000     0.39756    0.00109     0.39865
      H   22    0.10256      0.00000     0.39608    0.00137     0.39744
      H   23    0.09332      0.00000     0.40577    0.00091     0.40668
      H   24    0.10331      0.00000     0.39458    0.00212     0.39669
      H   25    0.09708      0.00000     0.40195    0.00097     0.40292
      H   26    0.10038      0.00000     0.39861    0.00101     0.39962
      H   27    0.10892      0.00000     0.38979    0.00129     0.39108
      H   28    0.17780      0.00000     0.31969    0.00252     0.32220
      H   29    0.09954      0.00000     0.39872    0.00174     0.40046
      H   30    0.08718      0.00000     0.41003    0.00279     0.41282
      H   31    0.09595      0.00000     0.39931    0.00474     0.40405
      H   32    0.10375      0.00000     0.39531    0.00094     0.39625
      H   33    0.11187      0.00000     0.38667    0.00146     0.38813
      H   34    0.10885      0.00000     0.39013    0.00101     0.39115
      H   35    0.10914      0.00000     0.39007    0.00078     0.39086
      H   36    0.19892      0.00000     0.29890    0.00218     0.30108
 =======================================================================
   * Total *    0.00000     20.99337    46.77549    0.23113    68.00000

 Normal termination of Gaussian 16 at Fri Dec 11 13:20:02 2020.
