 Gaussian 16, Revision A.03,

 -----------------------------------------------------------
 # opt freq B3LYP/6-31G(d) empiricaldispersion=gd3bj scf=xqc
 -----------------------------------------------------------

 -------------------------------
 CID_43105772_JID_10308_neutraal
 -------------------------------
 Symbolic Z-matrix:
 Charge =  0 Multiplicity = 1

 SCF Done:  E(RB3LYP) =  -1152.79944924     A.U. after   14 cycles
 SCF Done:  E(RB3LYP) =  -1152.80252992     A.U. after   12 cycles
 SCF Done:  E(RB3LYP) =  -1152.80254691     A.U. after   13 cycles
 SCF Done:  E(RB3LYP) =  -1152.80333875     A.U. after   12 cycles
 SCF Done:  E(RB3LYP) =  -1152.80367221     A.U. after   11 cycles
 SCF Done:  E(RB3LYP) =  -1152.80374791     A.U. after   11 cycles
 SCF Done:  E(RB3LYP) =  -1152.80378905     A.U. after   11 cycles
 SCF Done:  E(RB3LYP) =  -1152.80393296     A.U. after   14 cycles
 SCF Done:  E(RB3LYP) =  -1152.80353894     A.U. after   14 cycles
 SCF Done:  E(RB3LYP) =  -1152.80406263     A.U. after   12 cycles
 SCF Done:  E(RB3LYP) =  -1152.80441717     A.U. after   10 cycles
 SCF Done:  E(RB3LYP) =  -1152.80441739     A.U. after    8 cycles
 SCF Done:  E(RB3LYP) =  -1152.80441740     A.U. after    6 cycles
 SCF Done:  E(RB3LYP) =  -1152.80441740     A.U. after    7 cycles
 Optimization completed.
    -- Stationary point found.
 Normal termination of Gaussian 16 at Sun Dec 13 13:17:55 2020.

 --------------------------------------------------------------------
 #N Geom=AllCheck Guess=TCheck SCRF=Check GenChk RB3LYP/6-31G(d) Freq
 --------------------------------------------------------------------

 Structure from the checkpoint file:  "JID_10308.chk"
 -------------------------------
 CID_43105772_JID_10308_neutraal
 -------------------------------
 Charge =  0 Multiplicity = 1

 SCF Done:  E(RB3LYP) =  -1152.80441740     A.U. after    1 cycles

  Exact polarizability: 269.675  14.973 199.255  -5.591  25.386 159.449
 Approx polarizability: 365.117  25.221 307.852 -11.610  63.981 267.012

                      1                      2                      3
                      A                      A                      A
 Frequencies --     14.7635                19.8928                24.9244
 Red. masses --      3.5215                 3.9769                 4.1083
 Frc consts  --      0.0005                 0.0009                 0.0015
 IR Inten    --      0.6919                 1.5877                 0.5418

                      4                      5                      6
                      A                      A                      A
 Frequencies --     48.7861                59.7685                83.7675
 Red. masses --      3.5489                 3.6439                 3.9375
 Frc consts  --      0.0050                 0.0077                 0.0163
 IR Inten    --      0.1540                 0.1371                 0.1992

                      7                      8                      9
                      A                      A                      A
 Frequencies --    102.4732               143.2404               146.7625
 Red. masses --      4.1935                 2.3367                 1.2557
 Frc consts  --      0.0259                 0.0282                 0.0159
 IR Inten    --      1.0669                 0.4502                 1.1485

                     10                     11                     12
                      A                      A                      A
 Frequencies --    151.0636               162.4703               191.5711
 Red. masses --      1.9578                 1.7821                 2.6455
 Frc consts  --      0.0263                 0.0277                 0.0572
 IR Inten    --      0.4834                 0.3457                 0.6047

                     13                     14                     15
                      A                      A                      A
 Frequencies --    205.0548               241.3910               250.1291
 Red. masses --      2.7152                 1.5264                 2.6153
 Frc consts  --      0.0673                 0.0524                 0.0964
 IR Inten    --      1.0486                 0.0224                 0.2173

                     16                     17                     18
                      A                      A                      A
 Frequencies --    263.8168               278.1803               303.1170
 Red. masses --      1.9328                 2.5578                 1.9599
 Frc consts  --      0.0793                 0.1166                 0.1061
 IR Inten    --      0.9057                 1.0105                 1.1679

                     19                     20                     21
                      A                      A                      A
 Frequencies --    312.5724               319.7154               345.1187
 Red. masses --      2.6218                 2.5644                 3.3726
 Frc consts  --      0.1509                 0.1544                 0.2367
 IR Inten    --      0.1776                 0.7556                 0.2422

                     22                     23                     24
                      A                      A                      A
 Frequencies --    398.5484               419.5731               427.2520
 Red. masses --      3.2695                 3.1764                 3.1961
 Frc consts  --      0.3060                 0.3295                 0.3437
 IR Inten    --      3.8209                 1.8427                 0.1884

                     25                     26                     27
                      A                      A                      A
 Frequencies --    442.3823               467.7960               505.9932
 Red. masses --      4.0795                 3.1039                 3.1620
 Frc consts  --      0.4704                 0.4002                 0.4770
 IR Inten    --      1.3568                 2.0243                 5.8329

                     28                     29                     30
                      A                      A                      A
 Frequencies --    518.1532               540.1276               573.2390
 Red. masses --      3.5315                 4.1315                 2.7908
 Frc consts  --      0.5586                 0.7102                 0.5403
 IR Inten    --      5.6160                 4.6725                 9.6385

                     31                     32                     33
                      A                      A                      A
 Frequencies --    583.7470               629.9908               646.7336
 Red. masses --      3.6210                 3.6550                 3.9857
 Frc consts  --      0.7270                 0.8547                 0.9822
 IR Inten    --      4.9298                15.3398                 2.9017

                     34                     35                     36
                      A                      A                      A
 Frequencies --    656.5922               704.5686               736.4141
 Red. masses --      4.5645                 5.9747                 3.1497
 Frc consts  --      1.1594                 1.7475                 1.0064
 IR Inten    --      8.8019                 1.3366                 6.8461

                     37                     38                     39
                      A                      A                      A
 Frequencies --    745.4635               748.8391               775.6407
 Red. masses --      2.2539                 2.9194                 1.6868
 Frc consts  --      0.7380                 0.9645                 0.5979
 IR Inten    --     28.3847                 7.2308                11.5750

                     40                     41                     42
                      A                      A                      A
 Frequencies --    791.4391               802.7353               835.5903
 Red. masses --      2.5429                 3.3034                 3.4855
 Frc consts  --      0.9384                 1.2542                 1.4339
 IR Inten    --     26.6194                 5.9502                 4.6991

                     43                     44                     45
                      A                      A                      A
 Frequencies --    852.0162               856.2512               882.7371
 Red. masses --      1.5964                 1.2464                 1.3107
 Frc consts  --      0.6828                 0.5384                 0.6018
 IR Inten    --     39.0625                 1.4639                 0.1603

                     46                     47                     48
                      A                      A                      A
 Frequencies --    912.6523               942.8091               967.4395
 Red. masses --      1.6581                 1.3572                 1.3275
 Frc consts  --      0.8137                 0.7108                 0.7320
 IR Inten    --      6.6290                 0.3756                 0.2556

                     49                     50                     51
                      A                      A                      A
 Frequencies --    975.9763               981.7380               986.8438
 Red. masses --      1.3816                 1.2541                 1.7995
 Frc consts  --      0.7754                 0.7121                 1.0325
 IR Inten    --      1.8939                 0.0164                 9.8789

                     52                     53                     54
                      A                      A                      A
 Frequencies --    988.7992              1007.9100              1020.4504
 Red. masses --      1.1838                 1.3078                 1.6446
 Frc consts  --      0.6820                 0.7828                 1.0090
 IR Inten    --      3.4605                25.5114                 4.7298

                     55                     56                     57
                      A                      A                      A
 Frequencies --   1025.1025              1039.3874              1055.4185
 Red. masses --      1.7828                 3.4355                 1.7249
 Frc consts  --      1.1038                 2.1868                 1.1320
 IR Inten    --      4.2230                10.3166                11.0540

                     58                     59                     60
                      A                      A                      A
 Frequencies --   1073.4158              1079.5529              1098.1554
 Red. masses --      2.5796                 1.6028                 1.9061
 Frc consts  --      1.7512                 1.1006                 1.3544
 IR Inten    --      5.1797                 6.7412                 3.9168

                     61                     62                     63
                      A                      A                      A
 Frequencies --   1110.5922              1118.5737              1135.0400
 Red. masses --      2.1513                 3.3376                 1.6328
 Frc consts  --      1.5633                 2.4604                 1.2394
 IR Inten    --      3.8630                 4.8570                10.1496

                     64                     65                     66
                      A                      A                      A
 Frequencies --   1153.3723              1162.4084              1167.5192
 Red. masses --      2.1908                 1.8907                 3.0048
 Frc consts  --      1.7171                 1.5052                 2.4132
 IR Inten    --      8.5923                 4.0178                60.3229

                     67                     68                     69
                      A                      A                      A
 Frequencies --   1199.0921              1213.0027              1216.6767
 Red. masses --      1.1194                 1.1367                 1.8147
 Frc consts  --      0.9483                 0.9854                 1.5827
 IR Inten    --      0.8471                 0.4503                 3.4361

                     70                     71                     72
                      A                      A                      A
 Frequencies --   1246.8842              1258.9334              1310.9537
 Red. masses --      2.3077                 2.4910                 1.8148
 Frc consts  --      2.1139                 2.3262                 1.8376
 IR Inten    --      3.2929                 3.0551                 0.8778

                     73                     74                     75
                      A                      A                      A
 Frequencies --   1327.8243              1331.3189              1342.0629
 Red. masses --      1.6477                 1.9685                 2.5828
 Frc consts  --      1.7116                 2.0557                 2.7409
 IR Inten    --     16.7019                 0.3731                 2.7028

                     76                     77                     78
                      A                      A                      A
 Frequencies --   1357.5862              1377.8688              1385.7200
 Red. masses --      1.9569                 1.3324                 1.1621
 Frc consts  --      2.1250                 1.4904                 1.3148
 IR Inten    --      3.1968                16.5929                 7.3060

                     79                     80                     81
                      A                      A                      A
 Frequencies --   1399.1034              1405.3319              1430.5093
 Red. masses --      1.6837                 1.4416                 1.2431
 Frc consts  --      1.9418                 1.6774                 1.4988
 IR Inten    --     19.2605                 7.1737                 7.0699

                     82                     83                     84
                      A                      A                      A
 Frequencies --   1432.4470              1439.7028              1455.4264
 Red. masses --      1.2592                 1.2335                 2.2036
 Frc consts  --      1.5223                 1.5064                 2.7502
 IR Inten    --     11.5769                 2.1734                19.0252

                     85                     86                     87
                      A                      A                      A
 Frequencies --   1495.1686              1497.4432              1499.8934
 Red. masses --      1.9470                 1.0565                 1.1431
 Frc consts  --      2.5645                 1.3958                 1.5152
 IR Inten    --      4.0130                10.7015                19.8016

                     88                     89                     90
                      A                      A                      A
 Frequencies --   1509.7700              1513.3818              1524.2419
 Red. masses --      1.0566                 1.0545                 1.0724
 Frc consts  --      1.4190                 1.4230                 1.4679
 IR Inten    --      8.1634                11.7899                 0.1345

                     91                     92                     93
                      A                      A                      A
 Frequencies --   1526.1463              1529.7212              1531.8700
 Red. masses --      1.0734                 1.3070                 1.1742
 Frc consts  --      1.4730                 1.8019                 1.6234
 IR Inten    --      4.0438                13.3861                14.0248

                     94                     95                     96
                      A                      A                      A
 Frequencies --   1536.3131              1544.3056              1545.9126
 Red. masses --      1.0992                 1.9256                 1.9443
 Frc consts  --      1.5285                 2.7057                 2.7377
 IR Inten    --     12.7178                 3.6139                27.4434

                     97                     98                     99
                      A                      A                      A
 Frequencies --   1624.0832              1639.9509              1659.7366
 Red. masses --      6.2510                 5.6053                 5.7031
 Frc consts  --      9.7144                 8.8820                 9.2563
 IR Inten    --      0.4375                 0.0879                 0.8894

                    100                    101                    102
                      A                      A                      A
 Frequencies --   1668.8924              2961.0138              3049.2676
 Red. masses --      5.6513                 1.0817                 1.0399
 Frc consts  --      9.2737                 5.5875                 5.6967
 IR Inten    --      1.0965                50.1639                31.3205

                    103                    104                    105
                      A                      A                      A
 Frequencies --   3049.6593              3051.3303              3056.6522
 Red. masses --      1.0524                 1.0395                 1.0656
 Frc consts  --      5.7668                 5.7023                 5.8661
 IR Inten    --     12.0804                13.3349                32.4086

                    106                    107                    108
                      A                      A                      A
 Frequencies --   3066.1304              3110.9915              3117.6048
 Red. masses --      1.0291                 1.0958                 1.0985
 Frc consts  --      5.7000                 6.2484                 6.2908
 IR Inten    --     25.7410                20.2143                33.3096

                    109                    110                    111
                      A                      A                      A
 Frequencies --   3119.6523              3134.2392              3137.8891
 Red. masses --      1.1002                 1.1011                 1.1023
 Frc consts  --      6.3084                 6.3730                 6.3949
 IR Inten    --     29.1837                32.6810                17.6700

                    112                    113                    114
                      A                      A                      A
 Frequencies --   3140.4358              3153.7491              3158.1218
 Red. masses --      1.1034                 1.1077                 1.1054
 Frc consts  --      6.4115                 6.4915                 6.4958
 IR Inten    --     22.6384                10.9898                10.6059

                    115                    116                    117
                      A                      A                      A
 Frequencies --   3175.3002              3177.9202              3187.0847
 Red. masses --      1.0862                 1.0885                 1.0886
 Frc consts  --      6.4524                 6.4769                 6.5147
 IR Inten    --      7.2118                14.9459                14.0674

                    118                    119                    120
                      A                      A                      A
 Frequencies --   3196.5460              3201.9748              3211.2200
 Red. masses --      1.0886                 1.0935                 1.0930
 Frc consts  --      6.5539                 6.6057                 6.6404
 IR Inten    --      5.5595                37.6151                 8.8643

                    121                    122                    123
                      A                      A                      A
 Frequencies --   3214.3444              3222.2362              3485.2923
 Red. masses --      1.0940                 1.0922                 1.0741
 Frc consts  --      6.6598                 6.6812                 7.6870
 IR Inten    --     21.4297                 6.9292                 0.8089

 - Thermochemistry -
 -------------------
 Temperature   298.150 Kelvin.  Pressure   1.00000 Atm.
 Atom     1 has atomic number  6 and mass  12.00000

 Molecular mass:   285.15512 amu.
 Principal axes and moments of inertia in atomic units:
                           1         2         3
     Eigenvalues --  3343.85736********************
           X            0.99998   0.00610  -0.00064
           Y           -0.00609   0.99992   0.01110
           Z            0.00071  -0.01110   0.99994
 This molecule is an asymmetric top.
 Rotational symmetry number  1.
 Warning -- assumption of classical behavior for rotation
           may cause significant error
 Rotational temperatures (Kelvin)      0.02590     0.00735     0.00652
 Rotational constants (GHZ):           0.53972     0.15311     0.13590
 Zero-point vibrational energy     972381.5 (Joules/Mol)
                                  232.40476 (Kcal/Mol)
 Warning -- explicit consideration of  31 degrees of freedom as
           vibrations may cause significant error
 Vibrational temperatures:     21.24    28.62    35.86    70.19    85.99
          (Kelvin)            120.52   147.44   206.09   211.16   217.35
                              233.76   275.63   295.03   347.31   359.88
                              379.57   400.24   436.12   449.72   460.00
                              496.55   573.42   603.67   614.72   636.49
                              673.05   728.01   745.51   777.12   824.76
                              839.88   906.42   930.51   944.69  1013.72
                             1059.54  1072.56  1077.41  1115.97  1138.70
                             1154.96  1202.23  1225.86  1231.95  1270.06
                             1313.10  1356.49  1391.93  1404.21  1412.50
                             1419.85  1422.66  1450.16  1468.20  1474.89
                             1495.45  1518.51  1544.41  1553.24  1580.00
                             1597.89  1609.38  1633.07  1659.45  1672.45
                             1679.80  1725.23  1745.24  1750.53  1793.99
                             1811.32  1886.17  1910.44  1915.47  1930.93
                             1953.26  1982.45  1993.74  2013.00  2021.96
                             2058.18  2060.97  2071.41  2094.03  2151.21
                             2154.49  2158.01  2172.22  2177.42  2193.04
                             2195.78  2200.93  2204.02  2210.41  2221.91
                             2224.22  2336.69  2359.52  2387.99  2401.16
                             4260.24  4387.22  4387.78  4390.18  4397.84
                             4411.48  4476.02  4485.54  4488.48  4509.47
                             4514.72  4518.39  4537.54  4543.83  4568.55
                             4572.32  4585.50  4599.12  4606.93  4620.23
                             4624.72  4636.08  5014.56

 Zero-point correction=                           0.370361 (Hartree/Particle)
 Thermal correction to Energy=                    0.390819
 Thermal correction to Enthalpy=                  0.391763
 Thermal correction to Gibbs Free Energy=         0.318649
 Sum of electronic and zero-point Energies=          -1152.434057
 Sum of electronic and thermal Energies=             -1152.413599
 Sum of electronic and thermal Enthalpies=           -1152.412655
 Sum of electronic and thermal Free Energies=        -1152.485768

                     E (Thermal)             CV                S
                      KCal/Mol        Cal/Mol-Kelvin    Cal/Mol-Kelvin
 Total                  245.242             77.954            153.881
 Electronic               0.000              0.000              0.000
 Translational            0.889              2.981             42.841
 Rotational               0.889              2.981             34.614
 Vibrational            243.465             71.993             76.425
 Vibration     1          0.593              1.986              7.237
 Vibration     2          0.593              1.986              6.645
 Vibration     3          0.593              1.985              6.197
 Vibration     4          0.595              1.978              4.866
 Vibration     5          0.597              1.973              4.465
 Vibration     6          0.601              1.960              3.801
 Vibration     7          0.605              1.947              3.407
 Vibration     8          0.616              1.910              2.760
 Vibration     9          0.617              1.906              2.714
 Vibration    10          0.618              1.901              2.659
 Vibration    11          0.623              1.888              2.521
 Vibration    12          0.634              1.852              2.213
 Vibration    13          0.640              1.833              2.087
 Vibration    14          0.658              1.777              1.793
 Vibration    15          0.663              1.763              1.730
 Vibration    16          0.670              1.739              1.636
 Vibration    17          0.679              1.714              1.545
 Vibration    18          0.695              1.668              1.400
 Vibration    19          0.701              1.650              1.349
 Vibration    20          0.706              1.636              1.312
 Vibration    21          0.723              1.585              1.188
 Vibration    22          0.765              1.473              0.968
 Vibration    23          0.782              1.428              0.893
 Vibration    24          0.789              1.411              0.868
 Vibration    25          0.802              1.378              0.819
 Vibration    26          0.825              1.321              0.744
 Vibration    27          0.861              1.237              0.643
 Vibration    28          0.873              1.210              0.614
 Vibration    29          0.895              1.161              0.565
 Vibration    30          0.929              1.089              0.498
 Vibration    31          0.941              1.066              0.478

 Optimization completed.
    -- Stationary point found.
 Normal termination of Gaussian 16 at Sun Dec 13 13:40:48 2020.

 ----------------------------------------------------------------------
 # B3LYP/6-311++G(d,p) empiricaldispersion=gd3bj scf=xqc pop=npa geom=c
 heck
 ----------------------------------------------------------------------

 ---------------------------------------
 CID_43105772_JID_10308_Energie_neutraal
 ---------------------------------------
 Structure from the checkpoint file:  "JID_10308.chk"
 Charge =  0 Multiplicity = 1

 SCF Done:  E(RB3LYP) =  -1153.02864750     A.U. after   15 cycles
 Normal termination of Gaussian 16 at Sun Dec 13 13:50:27 2020.

 ----------------------------------------------------------------------
 # B3LYP/6-311++G(d,p) empiricaldispersion=gd3bj scf=xqc pop=npa geom=c
 heck
 ----------------------------------------------------------------------

 -------------------------------------
 CID_43105772_JID_10308_Energie_kation
 -------------------------------------
 Structure from the checkpoint file:  "JID_10308.chk"
 Charge =  1 Multiplicity = 2

 SCF Done:  E(UB3LYP) =  -1152.74693095     A.U. after   33 cycles
 SCF Done:  E(UB3LYP) =  -1152.74693095     a.u. after    1 cycles
 Normal termination of Gaussian 16 at Sun Dec 13 14:19:07 2020.
 Gaussian 16:  ES64L-G16RevA.03 25-Dec-2016

 ----------------------------------------------------------------------
 # B3LYP/6-311++G(d,p) empiricaldispersion=gd3bj scf=xqc pop=npa geom=c
 heck
 ----------------------------------------------------------------------

 ------------------------------------
 CID_43105772_JID_10308_Energie_anion
 ------------------------------------
 Structure from the checkpoint file:  "JID_10308.chk"
 Charge = -1 Multiplicity = 2

                         Standard orientation:
 ---------------------------------------------------------------------
 Center     Atomic      Atomic             Coordinates (Angstroms)
 Number     Number       Type             X           Y           Z
 ---------------------------------------------------------------------
      1          6           0        1.578718   -1.751508   -1.235462
      2          6           0        2.826306   -1.327213   -0.501740
      3          6           0        4.028331   -1.999709   -0.742423
      4          6           0        5.214681   -1.628927   -0.109298
      5          6           0        5.207511   -0.564282    0.786447
      6          6           0        4.013497    0.112251    1.040875
      7          6           0        2.817321   -0.251512    0.414265
      8          6           0        1.529528    0.520344    0.676600
      9          6           0        1.521903    1.282898    2.011308
     10          7           0        1.262051    1.359301   -0.509733
     11          6           0        0.083687    2.231547   -0.443378
     12          6           0        0.032531    3.074962   -1.723697
     13          6           0       -1.178259    1.404033   -0.278363
     14          6           0       -2.090377    1.686173    0.740340
     15          6           0       -3.253610    0.929834    0.895890
     16          6           0       -3.527534   -0.122140    0.018047
     17          6           0       -2.625294   -0.399851   -1.018948
     18          6           0       -1.461937    0.349208   -1.156417
     19         16           0       -5.037579   -1.069208    0.203619
     20          6           0       -4.338508   -2.700351    0.662421
     21          1           0        1.218405   -0.937591   -1.871074
     22          1           0        1.772286   -2.629621   -1.858658
     23          1           0        0.760442   -2.000033   -0.548731
     24          1           0        4.031319   -2.831315   -1.443048
     25          1           0        6.133882   -2.170210   -0.315908
     26          1           0        6.121015   -0.259480    1.289463
     27          1           0        4.020155    0.935330    1.747682
     28          1           0        0.706509   -0.202887    0.722333
     29          1           0        2.202819    2.142121    1.995869
     30          1           0        0.518108    1.657405    2.230148
     31          1           0        1.818135    0.625626    2.835360
     32          1           0        2.086814    1.927683   -0.697267
     33          1           0        0.128489    2.929841    0.410103
     34          1           0       -0.840339    3.734905   -1.714794
     35          1           0        0.931471    3.697583   -1.812037
     36          1           0       -0.024470    2.429723   -2.605615
     37          1           0       -1.884639    2.501018    1.430677
     38          1           0       -3.946068    1.146856    1.703078
     39          1           0       -2.842939   -1.200993   -1.719266
     40          1           0       -0.761187    0.121858   -1.952386
     41          1           0       -3.694316   -3.089482   -0.129919
     42          1           0       -3.775622   -2.631157    1.596486
     43          1           0       -5.184331   -3.379498    0.798948
 ---------------------------------------------------------------------

 SCF Done:  E(UB3LYP) =  -1153.01634814     A.U. after   33 cycles
 SCF Done:  E(UB3LYP) =  -1153.01785458     a.u. after    9 cycles

 The electronic state is 2-A.
 Alpha  occ. eigenvalues --  -88.74623 -14.20874 -10.11499 -10.11346 -10.10260
 Alpha  occ. eigenvalues --  -10.09606 -10.09364 -10.08984 -10.08535 -10.08358
 Alpha  occ. eigenvalues --  -10.08342 -10.08297 -10.08279 -10.08199 -10.08143
 Alpha  occ. eigenvalues --  -10.08087 -10.07892 -10.07673 -10.07304 -10.07054
 Alpha  occ. eigenvalues --   -7.83193  -5.79596  -5.79235  -5.78558  -0.82774
 Alpha  occ. eigenvalues --   -0.77359  -0.76617  -0.71066  -0.69033  -0.68175
 Alpha  occ. eigenvalues --   -0.65606  -0.65592  -0.63551  -0.62227  -0.59544
 Alpha  occ. eigenvalues --   -0.56272  -0.54965  -0.52190  -0.51145  -0.49895
 Alpha  occ. eigenvalues --   -0.48609  -0.47332  -0.42338  -0.40550  -0.40244
 Alpha  occ. eigenvalues --   -0.38478  -0.37591  -0.36652  -0.35734  -0.35238
 Alpha  occ. eigenvalues --   -0.34727  -0.33562  -0.33290  -0.32949  -0.32684
 Alpha  occ. eigenvalues --   -0.32259  -0.31965  -0.31635  -0.30236  -0.29941
 Alpha  occ. eigenvalues --   -0.29746  -0.28497  -0.27952  -0.27266  -0.26828
 Alpha  occ. eigenvalues --   -0.26078  -0.25442  -0.25056  -0.24556  -0.23734
 Alpha  occ. eigenvalues --   -0.22295  -0.16744  -0.16623  -0.16202  -0.15420
 Alpha  occ. eigenvalues --   -0.14206  -0.12854   0.03958
 Alpha virt. eigenvalues --    0.05213   0.05969   0.06426   0.06740   0.07322
 Alpha virt. eigenvalues --    0.07429   0.07503   0.07739   0.07877   0.08077
 Alpha virt. eigenvalues --    0.08976   0.09338   0.09600   0.09699   0.10533

  Beta  occ. eigenvalues --  -88.74619 -14.20852 -10.11501 -10.11342 -10.10186
  Beta  occ. eigenvalues --  -10.09516 -10.09353 -10.08979 -10.08519 -10.08346
  Beta  occ. eigenvalues --  -10.08337 -10.08285 -10.08251 -10.08156 -10.08128
  Beta  occ. eigenvalues --  -10.07979 -10.07897 -10.07657 -10.07300 -10.07037
  Beta  occ. eigenvalues --   -7.83189  -5.79586  -5.79230  -5.78555  -0.82728
  Beta  occ. eigenvalues --   -0.77293  -0.76536  -0.70954  -0.68961  -0.68145
  Beta  occ. eigenvalues --   -0.65530  -0.65504  -0.63474  -0.62166  -0.59521
  Beta  occ. eigenvalues --   -0.56152  -0.54909  -0.52144  -0.51098  -0.49859
  Beta  occ. eigenvalues --   -0.48568  -0.47238  -0.42300  -0.40502  -0.40191
  Beta  occ. eigenvalues --   -0.38450  -0.37554  -0.36576  -0.35667  -0.35206
  Beta  occ. eigenvalues --   -0.34669  -0.33520  -0.33229  -0.32903  -0.32648
  Beta  occ. eigenvalues --   -0.32199  -0.31937  -0.31601  -0.30121  -0.29910
  Beta  occ. eigenvalues --   -0.29676  -0.28460  -0.27890  -0.27228  -0.26720
  Beta  occ. eigenvalues --   -0.25983  -0.25338  -0.25008  -0.24520  -0.23711
  Beta  occ. eigenvalues --   -0.22187  -0.16576  -0.16394  -0.16003  -0.15330
  Beta  occ. eigenvalues --   -0.14175  -0.12696
  Beta virt. eigenvalues --    0.05715   0.06233   0.06368   0.06897   0.07019
  Beta virt. eigenvalues --    0.07394   0.07547   0.07799   0.07816   0.08181
  Beta virt. eigenvalues --    0.08361   0.09162   0.09482   0.09773   0.09829

 Mulliken charges and spin densities:
               1          2
     1  C   -0.316656  -0.366885
     2  C    0.018720   0.579898
     3  C   -0.590464   0.198964
     4  C    0.234858  -0.641349
     5  C    0.095144  -0.501796
     6  C   -0.300894   0.028858
     7  C    0.545428  -0.103445
     8  C   -0.255967   0.109341
     9  C    0.296516  -0.925826
    10  N    0.170784  -0.082035
    11  C   -1.061209   0.804539
    12  C   -0.209692  -0.484323
    13  C    1.625294  -0.587970
    14  C   -0.188611  -0.172161
    15  C   -0.931517   0.257914
    16  C    1.413338  -0.432871
    17  C   -0.627930   0.124360
    18  C   -0.453138   0.198383
    19  S   -0.259307  -0.092481
    20  C    0.249076  -0.911016
    21  H    0.195832  -0.026600
    22  H   -0.049043   0.199681
    23  H    0.138726   0.023959
    24  H   -0.004931   0.135250
    25  H   -0.158035   0.307776
    26  H   -0.412559   0.576413
    27  H   -0.157325   0.304418
    28  H    0.218741  -0.132423
    29  H   -0.216563   0.382524
    30  H    0.216503  -0.089476
    31  H    0.002682   0.144345
    32  H    0.208571  -0.011233
    33  H   -0.008713   0.195448
    34  H    0.098967   0.039452
    35  H   -0.124185   0.252418
    36  H    0.114077   0.049208
    37  H   -0.071441   0.212268
    38  H    0.078792   0.103231
    39  H   -0.066660   0.270439
    40  H    0.010805   0.104033
    41  H   -0.060034   0.215531
    42  H   -0.087949   0.265990
    43  H   -0.320033   0.477252
 Sum of Mulliken charges =  -1.00000   1.00000

 Dipole moment (field-independent basis, Debye):
    X=              0.5192    Y=              2.3935    Z=             -1.4304  Tot=              2.8363
 Quadrupole moment (field-independent basis, Debye-Ang):
   XX=           -249.7821   YY=           -178.5777   ZZ=           -160.8060
   XY=            -15.0185   XZ=             -5.8059   YZ=              1.4549

 Summary of Natural Population Analysis:

                                       Natural Population
                Natural  -----------------------------------------------
    Atom  No    Charge         Core      Valence    Rydberg      Total
 -----------------------------------------------------------------------
      C    1   -0.29677      0.99963     2.29251    0.00463     3.29677
      C    2   -0.00332      0.99947     1.99540    0.00844     3.00332
      C    3   -0.10281      0.99951     2.09421    0.00909     3.10281
      C    4   -0.10000      0.99956     2.09073    0.00971     3.10000
      C    5   -0.10347      0.99956     2.09359    0.01031     3.10347
      C    6   -0.10093      0.99951     2.09149    0.00993     3.10093
      C    7   -0.01437      0.99946     2.00404    0.01087     3.01437
      C    8   -0.02137      0.99957     2.01000    0.01181     3.02137
      C    9   -0.29654      0.99965     2.29071    0.00618     3.29654
      N   10   -0.33902      0.99973     2.82832    0.01096     3.83902
      C   11   -0.01725      0.99956     2.00487    0.01282     3.01725
      C   12   -0.27761      0.99964     2.27322    0.00474     3.27761
      C   13    0.00114      0.99948     1.98813    0.01125     2.99886
      C   14   -0.10294      0.99951     2.09425    0.00918     3.10294
      C   15   -0.09624      0.99949     2.08661    0.01014     3.09624
      C   16   -0.08153      0.99940     2.07021    0.01192     3.08153
      C   17   -0.09510      0.99949     2.08437    0.01124     3.09510
      C   18   -0.10122      0.99950     2.09309    0.00863     3.10122
      S   19    0.09567      4.99956     2.88234    0.02242     7.90433
      C   20   -0.34044      0.99962     2.33458    0.00623     3.34044
      H   21    0.11348      0.00000     0.38514    0.00138     0.38652
      H   22    0.09857      0.00000     0.40058    0.00085     0.40143
      H   23    0.10536      0.00000     0.39351    0.00113     0.39464
      H   24    0.09745      0.00000     0.40159    0.00096     0.40255
      H   25    0.09925      0.00000     0.39986    0.00089     0.40075
      H   26    0.10051      0.00000     0.39836    0.00113     0.39949
      H   27    0.10321      0.00000     0.39543    0.00136     0.39679
      H   28    0.10126      0.00000     0.39635    0.00238     0.39874
      H   29    0.09722      0.00000     0.40154    0.00124     0.40278
      H   30    0.10304      0.00000     0.39593    0.00103     0.39696
      H   31    0.10394      0.00000     0.39525    0.00081     0.39606
      H   32    0.17430      0.00000     0.32335    0.00235     0.32570
      H   33    0.08299      0.00000     0.41466    0.00235     0.41701
      H   34    0.10135      0.00000     0.39789    0.00076     0.39865
      H   35    0.09574      0.00000     0.40339    0.00087     0.40426
      H   36    0.10080      0.00000     0.39821    0.00099     0.39920
      H   37    0.09824      0.00000     0.40029    0.00147     0.40176
      H   38    0.10281      0.00000     0.39590    0.00129     0.39719
      H   39    0.10210      0.00000     0.39677    0.00113     0.39790
      H   40    0.10399      0.00000     0.39412    0.00189     0.39601
      H   41    0.10066      0.00000     0.39762    0.00171     0.39934
      H   42    0.10160      0.00000     0.39682    0.00158     0.39840
      H   43    0.10624      0.00000     0.39194    0.00182     0.39376
 =======================================================================
   * Total *   -0.00000     23.99092    52.77720    0.23188    77.00000

 Normal termination of Gaussian 16 at Sun Dec 13 18:39:58 2020.
