 Gaussian 16, Revision A.03,

 -----------------------------------------------------------
 # opt freq B3LYP/6-31G(d) empiricaldispersion=gd3bj scf=xqc
 -----------------------------------------------------------

 ------------------------------
 CID_80648363_JID_4042_neutraal
 ------------------------------
 Symbolic Z-matrix:
 Charge =  0 Multiplicity = 1

 SCF Done:  E(RB3LYP) =  -968.623086871     A.U. after   14 cycles
 SCF Done:  E(RB3LYP) =  -968.630223483     A.U. after   12 cycles
 SCF Done:  E(RB3LYP) =  -968.630954547     A.U. after   13 cycles
 SCF Done:  E(RB3LYP) =  -968.633246493     A.U. after   12 cycles
 SCF Done:  E(RB3LYP) =  -968.633893153     A.U. after   12 cycles
 SCF Done:  E(RB3LYP) =  -968.634996835     A.U. after   12 cycles
 SCF Done:  E(RB3LYP) =  -968.635350374     A.U. after   12 cycles
 SCF Done:  E(RB3LYP) =  -968.635528492     A.U. after   11 cycles
 SCF Done:  E(RB3LYP) =  -968.635600833     A.U. after   11 cycles
 SCF Done:  E(RB3LYP) =  -968.635646027     A.U. after   11 cycles
 SCF Done:  E(RB3LYP) =  -968.635740166     A.U. after   10 cycles
 SCF Done:  E(RB3LYP) =  -968.635741748     A.U. after    9 cycles
 SCF Done:  E(RB3LYP) =  -968.635742208     A.U. after    8 cycles
 SCF Done:  E(RB3LYP) =  -968.635742301     A.U. after    7 cycles
 SCF Done:  E(RB3LYP) =  -968.635742317     A.U. after    6 cycles
 Optimization completed.
    -- Stationary point found.
 Normal termination of Gaussian 16 at Thu Dec 10 09:20:25 2020.

 --------------------------------------------------------------------
 #N Geom=AllCheck Guess=TCheck SCRF=Check GenChk RB3LYP/6-31G(d) Freq
 --------------------------------------------------------------------

 Structure from the checkpoint file:  "JID_4042.chk"
 ------------------------------
 CID_80648363_JID_4042_neutraal
 ------------------------------
 Charge =  0 Multiplicity = 1

 SCF Done:  E(RB3LYP) =  -968.635742317     A.U. after    1 cycles

  Exact polarizability: 162.188  -5.888 156.407  -1.005  -1.627  87.900
 Approx polarizability: 236.415 -11.499 256.450  -1.887  -4.945 135.828

                      1                      2                      3
                      A                      A                      A
 Frequencies --     27.1795                47.9069                73.2656
 Red. masses --      4.6375                 6.2325                 2.8443
 Frc consts  --      0.0020                 0.0084                 0.0090
 IR Inten    --      0.8793                 1.6512                 2.1052

                      4                      5                      6
                      A                      A                      A
 Frequencies --     97.2003               144.3426               157.7138
 Red. masses --      3.2530                 1.6514                 2.8544
 Frc consts  --      0.0181                 0.0203                 0.0418
 IR Inten    --      1.1943                 0.2862                 0.3250

                      7                      8                      9
                      A                      A                      A
 Frequencies --    200.6750               225.3345               266.6254
 Red. masses --      2.3470                 1.9356                 4.0736
 Frc consts  --      0.0557                 0.0579                 0.1706
 IR Inten    --      2.4662                 2.2946                 4.5007

                     10                     11                     12
                      A                      A                      A
 Frequencies --    275.8656               341.7723               373.8352
 Red. masses --      4.5146                 2.9738                 1.2774
 Frc consts  --      0.2024                 0.2047                 0.1052
 IR Inten    --      2.7804                 1.0248                27.1446

                     13                     14                     15
                      A                      A                      A
 Frequencies --    376.3549               407.2747               446.5859
 Red. masses --      3.2313                 3.0789                 3.0514
 Frc consts  --      0.2697                 0.3009                 0.3586
 IR Inten    --      7.4299                 0.6519                 3.0801

                     16                     17                     18
                      A                      A                      A
 Frequencies --    490.0218               515.2486               547.9597
 Red. masses --      4.8615                 4.4763                 2.5682
 Frc consts  --      0.6878                 0.7002                 0.4543
 IR Inten    --     28.6207                 3.2274               189.5222

                     19                     20                     21
                      A                      A                      A
 Frequencies --    566.7172               603.5844               626.5661
 Red. masses --      2.1452                 4.4163                 3.4780
 Frc consts  --      0.4059                 0.9480                 0.8045
 IR Inten    --    111.2192                22.0334                 1.9916

                     22                     23                     24
                      A                      A                      A
 Frequencies --    689.8830               692.2334               707.5055
 Red. masses --      5.0007                 3.1467                 5.8838
 Frc consts  --      1.4023                 0.8884                 1.7353
 IR Inten    --      8.0405                 5.7000                 7.4044

                     25                     26                     27
                      A                      A                      A
 Frequencies --    759.7285               765.3868               818.4128
 Red. masses --      4.4253                 2.1495                 1.9260
 Frc consts  --      1.5049                 0.7419                 0.7601
 IR Inten    --      3.8883                 0.5147                28.9783

                     28                     29                     30
                      A                      A                      A
 Frequencies --    820.8171               861.8852               866.5871
 Red. masses --      2.1687                 1.4575                 2.0023
 Frc consts  --      0.8609                 0.6379                 0.8859
 IR Inten    --     13.5037                 0.3201                 2.2067

                     31                     32                     33
                      A                      A                      A
 Frequencies --    944.2739               956.2198              1005.1540
 Red. masses --      1.7458                 3.6370                 1.8838
 Frc consts  --      0.9172                 1.9594                 1.1214
 IR Inten    --      8.8150                11.4096                 5.2981

                     34                     35                     36
                      A                      A                      A
 Frequencies --   1007.6755              1018.3403              1060.7369
 Red. masses --      2.3715                 3.7737                 1.9477
 Frc consts  --      1.4188                 2.3057                 1.2912
 IR Inten    --      4.8152                 6.3972                32.5472

                     37                     38                     39
                      A                      A                      A
 Frequencies --   1088.6530              1116.1217              1156.9785
 Red. masses --      4.4073                 1.8043                 1.2693
 Frc consts  --      3.0775                 1.3243                 1.0011
 IR Inten    --      4.4026                12.5463                 0.2950

                     40                     41                     42
                      A                      A                      A
 Frequencies --   1164.7047              1177.4216              1205.2981
 Red. masses --      1.0779                 1.5637                 1.7326
 Frc consts  --      0.8615                 1.2772                 1.4830
 IR Inten    --      5.2722                 5.6293                19.1075

                     43                     44                     45
                      A                      A                      A
 Frequencies --   1225.9350              1250.5634              1259.9469
 Red. masses --      1.5499                 1.7361                 2.4703
 Frc consts  --      1.3724                 1.5997                 2.3105
 IR Inten    --      5.2258                22.5152                91.1787

                     46                     47                     48
                      A                      A                      A
 Frequencies --   1276.4468              1308.4454              1321.2361
 Red. masses --      1.3175                 4.2997                 1.3120
 Frc consts  --      1.2648                 4.3371                 1.3494
 IR Inten    --     21.4931                21.2800                26.1207

                     49                     50                     51
                      A                      A                      A
 Frequencies --   1345.4968              1350.5446              1365.3240
 Red. masses --      1.2125                 1.6437                 1.2997
 Frc consts  --      1.2933                 1.7664                 1.4274
 IR Inten    --      4.1879                75.1846                 0.7875

                     52                     53                     54
                      A                      A                      A
 Frequencies --   1402.4703              1443.5660              1483.0787
 Red. masses --      1.9069                 1.6861                 1.8139
 Frc consts  --      2.2098                 2.0701                 2.3507
 IR Inten    --    105.5305                21.3129               170.9158

                     55                     56                     57
                      A                      A                      A
 Frequencies --   1494.0505              1499.7444              1503.2916
 Red. masses --      1.1464                 1.6733                 1.1295
 Frc consts  --      1.5078                 2.2175                 1.5040
 IR Inten    --      5.5519                10.3872                 7.8471

                     58                     59                     60
                      A                      A                      A
 Frequencies --   1515.3393              1521.2276              1547.7229
 Red. masses --      1.0434                 1.1229                 1.7145
 Frc consts  --      1.4117                 1.5310                 2.4198
 IR Inten    --      3.8993                11.6602                14.6053

                     61                     62                     63
                      A                      A                      A
 Frequencies --   1557.9425              1606.5327              1624.2551
 Red. masses --      1.4240                 5.4271                 4.6826
 Frc consts  --      2.0364                 8.2527                 7.2786
 IR Inten    --    144.3342               139.7939               213.6509

                     64                     65                     66
                      A                      A                      A
 Frequencies --   1676.4205              3024.0724              3069.0020
 Red. masses --      1.3261                 1.0391                 1.1048
 Frc consts  --      2.1958                 5.5989                 6.1311
 IR Inten    --    159.5563                64.7870                30.5571

                     67                     68                     69
                      A                      A                      A
 Frequencies --   3075.6143              3096.7786              3101.2471
 Red. masses --      1.0686                 1.0575                 1.0653
 Frc consts  --      5.9558                 5.9754                 6.0368
 IR Inten    --     22.0314                26.6606                20.7561

                     70                     71                     72
                      A                      A                      A
 Frequencies --   3108.6620              3138.8434              3153.2592
 Red. masses --      1.0788                 1.0999                 1.1088
 Frc consts  --      6.1425                 6.3850                 6.4957
 IR Inten    --     16.7711                 6.9251                24.5172

                     73                     74                     75
                      A                      A                      A
 Frequencies --   3158.9688              3166.6862              3174.1766
 Red. masses --      1.0964                 1.1053                 1.0905
 Frc consts  --      6.4461                 6.5307                 6.4737
 IR Inten    --     20.6480                19.8799                26.1389

                     76                     77                     78
                      A                      A                      A
 Frequencies --   3219.4801              3566.4494              3676.3111
 Red. masses --      1.0902                 1.0471                 1.0999
 Frc consts  --      6.6577                 7.8469                 8.7585
 IR Inten    --     15.4715                24.2619                21.1692

 - Thermochemistry -
 -------------------
 Temperature   298.150 Kelvin.  Pressure   1.00000 Atm.
 Atom     1 has atomic number  6 and mass  12.00000

 Molecular mass:   210.09392 amu.
 Principal axes and moments of inertia in atomic units:
                           1         2         3
     Eigenvalues --  1877.109313863.207515156.41389
           X            0.99986  -0.01344  -0.00969
           Y            0.01339   0.99990  -0.00447
           Z            0.00975   0.00434   0.99994
 This molecule is an asymmetric top.
 Rotational symmetry number  1.
 Warning -- assumption of classical behavior for rotation
           may cause significant error
 Rotational temperatures (Kelvin)      0.04614     0.02242     0.01680
 Rotational constants (GHZ):           0.96145     0.46716     0.35000
 Zero-point vibrational energy     616107.8 (Joules/Mol)
                                  147.25330 (Kcal/Mol)
 Warning -- explicit consideration of  20 degrees of freedom as
           vibrations may cause significant error
 Vibrational temperatures:     39.11    68.93   105.41   139.85   207.68
          (Kelvin)            226.91   288.73   324.21   383.61   396.91
                              491.73   537.87   541.49   585.98   642.54
                              705.03   741.33   788.39   815.38   868.42
                              901.49   992.59   995.97  1017.94  1093.08
                             1101.22  1177.51  1180.97  1240.06  1246.83
                             1358.60  1375.79  1446.19  1449.82  1465.16
                             1526.16  1566.33  1605.85  1664.63  1675.75
                             1694.05  1734.16  1763.85  1799.28  1812.78
                             1836.52  1882.56  1900.96  1935.87  1943.13
                             1964.40  2017.84  2076.97  2133.82  2149.61
                             2157.80  2162.90  2180.24  2188.71  2226.83
                             2241.53  2311.44  2336.94  2412.00  4350.97
                             4415.61  4425.12  4455.57  4462.00  4472.67
                             4516.10  4536.84  4545.05  4556.16  4566.93
                             4632.11  5131.33  5289.39

 Zero-point correction=                           0.234663 (Hartree/Particle)
 Thermal correction to Energy=                    0.248053
 Thermal correction to Enthalpy=                  0.248998
 Thermal correction to Gibbs Free Energy=         0.193583
 Sum of electronic and zero-point Energies=           -968.401079
 Sum of electronic and thermal Energies=              -968.387689
 Sum of electronic and thermal Enthalpies=            -968.386745
 Sum of electronic and thermal Free Energies=         -968.442159

                     E (Thermal)             CV                S
                      KCal/Mol        Cal/Mol-Kelvin    Cal/Mol-Kelvin
 Total                  155.656             51.188            116.629
 Electronic               0.000              0.000              0.000
 Translational            0.889              2.981             41.931
 Rotational               0.889              2.981             31.992
 Vibrational            153.878             45.227             42.706
 Vibration     1          0.593              1.984              6.025
 Vibration     2          0.595              1.978              4.902
 Vibration     3          0.599              1.967              4.064
 Vibration     4          0.603              1.951              3.510
 Vibration     5          0.616              1.909              2.745
 Vibration     6          0.621              1.894              2.577
 Vibration     7          0.638              1.839              2.127
 Vibration     8          0.650              1.802              1.916
 Vibration     9          0.672              1.734              1.618
 Vibration    10          0.678              1.718              1.559
 Vibration    11          0.721              1.592              1.204
 Vibration    12          0.745              1.526              1.064
 Vibration    13          0.747              1.520              1.054
 Vibration    14          0.772              1.454              0.936
 Vibration    15          0.806              1.368              0.806
 Vibration    16          0.846              1.272              0.684
 Vibration    17          0.870              1.216              0.621
 Vibration    18          0.903              1.144              0.548
 Vibration    19          0.923              1.103              0.511
 Vibration    20          0.962              1.024              0.444

 Optimization completed.
    -- Stationary point found.
 Normal termination of Gaussian 16 at Thu Dec 10 09:28:41 2020.

 ----------------------------------------------------------------------
 # B3LYP/6-311++G(d,p) empiricaldispersion=gd3bj scf=xqc pop=npa geom=c
 heck
 ----------------------------------------------------------------------

 --------------------------------------
 CID_80648363_JID_4042_Energie_neutraal
 --------------------------------------
 Structure from the checkpoint file:  "JID_4042.chk"
 Charge =  0 Multiplicity = 1

 SCF Done:  E(RB3LYP) =  -968.820089084     A.U. after   15 cycles
 Normal termination of Gaussian 16 at Thu Dec 10 09:31:55 2020.

 ----------------------------------------------------------------------
 # B3LYP/6-311++G(d,p) empiricaldispersion=gd3bj scf=xqc pop=npa geom=c
 heck
 ----------------------------------------------------------------------

 ------------------------------------
 CID_80648363_JID_4042_Energie_kation
 ------------------------------------
 Structure from the checkpoint file:  "JID_4042.chk"
 Charge =  1 Multiplicity = 2

 SCF Done:  E(UB3LYP) =  -968.551988918     A.U. after   24 cycles
 Normal termination of Gaussian 16 at Thu Dec 10 09:40:06 2020.
 Gaussian 16:  ES64L-G16RevA.03 25-Dec-2016

 ----------------------------------------------------------------------
 # B3LYP/6-311++G(d,p) empiricaldispersion=gd3bj scf=xqc pop=npa geom=c
 heck
 ----------------------------------------------------------------------

 -----------------------------------
 CID_80648363_JID_4042_Energie_anion
 -----------------------------------
 Structure from the checkpoint file:  "JID_4042.chk"
 Charge = -1 Multiplicity = 2

                         Standard orientation:
 ---------------------------------------------------------------------
 Center     Atomic      Atomic             Coordinates (Angstroms)
 Number     Number       Type             X           Y           Z
 ---------------------------------------------------------------------
      1          6           0        0.257628    3.014081    0.003776
      2          7           0        0.023909    1.581031    0.074502
      3          6           0       -1.349174    1.074073    0.169808
      4          6           0       -1.630547    0.167377    1.410608
      5          6           0       -2.259877   -1.152198    0.951849
      6         16           0       -3.163248   -0.777529   -0.608814
      7          6           0       -1.814000    0.349782   -1.118305
      8          6           0        1.100215    0.729898    0.010519
      9          7           0        0.847933   -0.592644    0.017186
     10          6           0        1.889470   -1.427646   -0.036490
     11          6           0        3.212307   -0.949268   -0.105448
     12          7           0        3.461995    0.357424   -0.120618
     13          6           0        2.434195    1.202828   -0.063505
     14          7           0        1.607802   -2.779380    0.021025
     15          1           0       -0.701213    3.532806    0.032882
     16          1           0        0.770465    3.297189   -0.925033
     17          1           0        0.863304    3.369365    0.848343
     18          1           0       -1.971783    1.963751    0.275908
     19          1           0       -2.322914    0.692009    2.076312
     20          1           0       -0.709008   -0.021658    1.964274
     21          1           0       -1.486090   -1.895643    0.749952
     22          1           0       -2.969190   -1.560500    1.675477
     23          1           0       -2.193471    1.054184   -1.862793
     24          1           0       -0.993349   -0.223272   -1.549558
     25          1           0        4.059918   -1.629898   -0.146889
     26          1           0        2.671337    2.260250   -0.076997
     27          1           0        0.657231   -3.016709   -0.233121
     28          1           0        2.303958   -3.399983   -0.369277
 ---------------------------------------------------------------------

 SCF Done:  E(UB3LYP) =  -968.809286854     A.U. after   33 cycles
 SCF Done:  E(UB3LYP) =  -968.809286854     a.u. after    2 cycles

 The electronic state is 2-A.
 Alpha  occ. eigenvalues --  -88.74122 -14.24643 -14.22656 -14.22298 -14.20925
 Alpha  occ. eigenvalues --  -10.15308 -10.15294 -10.12538 -10.10760 -10.10107
 Alpha  occ. eigenvalues --  -10.09826 -10.09654 -10.09535 -10.07936  -7.82746
 Alpha  occ. eigenvalues --   -5.79125  -5.78800  -5.78113  -0.90146  -0.85660
 Alpha  occ. eigenvalues --   -0.82567  -0.77971  -0.74299  -0.65978  -0.63875
 Alpha  occ. eigenvalues --   -0.63387  -0.60131  -0.55285  -0.53267  -0.49436
 Alpha  occ. eigenvalues --   -0.48905  -0.44994  -0.42906  -0.40164  -0.39585
 Alpha  occ. eigenvalues --   -0.39224  -0.37545  -0.36744  -0.35797  -0.34178
 Alpha  occ. eigenvalues --   -0.32920  -0.31729  -0.31073  -0.30372  -0.28034
 Alpha  occ. eigenvalues --   -0.27359  -0.26574  -0.24957  -0.24450  -0.23301
 Alpha  occ. eigenvalues --   -0.21565  -0.20630  -0.15522  -0.15281  -0.12950
 Alpha  occ. eigenvalues --   -0.10791   0.04071
 Alpha virt. eigenvalues --    0.05433   0.05765   0.07085   0.07872   0.08359
 Alpha virt. eigenvalues --    0.08834   0.09478   0.09811   0.10571   0.10723
 Alpha virt. eigenvalues --    0.11251   0.11698   0.12652   0.12842   0.12979

  Beta  occ. eigenvalues --  -88.74121 -14.24641 -14.22594 -14.22294 -14.20916
  Beta  occ. eigenvalues --  -10.15306 -10.15289 -10.12524 -10.10711 -10.10096
  Beta  occ. eigenvalues --  -10.09814 -10.09648 -10.09518 -10.07925  -7.82745
  Beta  occ. eigenvalues --   -5.79124  -5.78797  -5.78110  -0.90132  -0.85636
  Beta  occ. eigenvalues --   -0.82526  -0.77926  -0.74279  -0.65941  -0.63831
  Beta  occ. eigenvalues --   -0.63359  -0.60087  -0.55254  -0.53205  -0.49401
  Beta  occ. eigenvalues --   -0.48868  -0.44962  -0.42846  -0.40119  -0.39545
  Beta  occ. eigenvalues --   -0.39167  -0.37506  -0.36713  -0.35755  -0.34153
  Beta  occ. eigenvalues --   -0.32893  -0.31685  -0.31034  -0.30345  -0.28007
  Beta  occ. eigenvalues --   -0.27332  -0.26554  -0.24924  -0.24418  -0.23278
  Beta  occ. eigenvalues --   -0.21549  -0.20614  -0.15508  -0.15244  -0.12936
  Beta  occ. eigenvalues --   -0.10766
  Beta virt. eigenvalues --    0.05791   0.06453   0.07050   0.07501   0.08293
  Beta virt. eigenvalues --    0.08901   0.09362   0.09778   0.09935   0.10719
  Beta virt. eigenvalues --    0.11143   0.11768   0.11960   0.12783   0.13003

 Mulliken charges and spin densities:
               1          2
     1  C    1.530868  -1.781748
     2  N    0.171432   0.081985
     3  C    0.038265   0.102896
     4  C   -0.152200  -0.114863
     5  C   -0.028249  -0.540734
     6  S   -0.126757   0.004940
     7  C   -0.219296  -0.255778
     8  C    0.110448  -0.529062
     9  N   -0.031809   0.008761
    10  C    0.071191   0.065294
    11  C    0.358954  -0.594170
    12  N   -0.075098  -0.009411
    13  C   -0.487398  -0.007763
    14  N   -0.353664   0.079192
    15  H   -0.631594   0.776148
    16  H   -0.232442   0.396630
    17  H   -0.212973   0.374966
    18  H   -0.022737   0.202777
    19  H   -0.247311   0.405192
    20  H    0.099995   0.087419
    21  H    0.079763   0.089696
    22  H    0.109536   0.086608
    23  H   -0.112005   0.315081
    24  H    0.067071   0.176764
    25  H   -0.223171   0.395639
    26  H    0.028442   0.148710
    27  H    0.044199   0.214728
    28  H   -0.553462   0.820104
 Sum of Mulliken charges =  -1.00000   1.00000

 Dipole moment (field-independent basis, Debye):
    X=             -2.3351    Y=             -0.3359    Z=              1.2162  Tot=              2.6542
 Quadrupole moment (field-independent basis, Debye-Ang):
   XX=           -154.9515   YY=           -162.3127   ZZ=           -118.6751
   XY=             14.3172   XZ=              1.1208   YZ=             -3.8570

 Summary of Natural Population Analysis:

                                       Natural Population
                Natural  -----------------------------------------------
    Atom  No    Charge         Core      Valence    Rydberg      Total
 -----------------------------------------------------------------------
      C    1   -0.17345      0.99963     2.16537    0.00844     3.17345
      N    2   -0.24586      0.99964     2.73323    0.01299     3.74586
      C    3   -0.00396      0.99956     1.98800    0.01639     3.00396
      C    4   -0.19958      0.99960     2.19007    0.00991     3.19958
      C    5   -0.24210      0.99960     2.23408    0.00843     3.24210
      S    6    0.07346      4.99965     2.91037    0.01652     7.92654
      C    7   -0.25004      0.99957     2.23997    0.01050     3.25004
      C    8    0.20055      0.99952     1.78554    0.01438     2.79945
      N    9   -0.28303      0.99964     2.77170    0.01169     3.78303
      C   10    0.19091      0.99955     1.79426    0.01528     2.80909
      C   11   -0.03804      0.99955     2.02386    0.01464     3.03804
      N   12   -0.20350      0.99971     2.69270    0.01108     3.70350
      C   13   -0.03934      0.99956     2.02726    0.01251     3.03934
      N   14   -0.39020      0.99971     2.88013    0.01036     3.89020
      H   15    0.10424      0.00000     0.39353    0.00223     0.39576
      H   16    0.09553      0.00000     0.40261    0.00186     0.40447
      H   17    0.09425      0.00000     0.40410    0.00165     0.40575
      H   18    0.10355      0.00000     0.39408    0.00237     0.39645
      H   19    0.09945      0.00000     0.39914    0.00141     0.40055
      H   20    0.11125      0.00000     0.38750    0.00125     0.38875
      H   21    0.10346      0.00000     0.39436    0.00219     0.39654
      H   22    0.10254      0.00000     0.39635    0.00111     0.39746
      H   23    0.10628      0.00000     0.39252    0.00119     0.39372
      H   24    0.11028      0.00000     0.38760    0.00212     0.38972
      H   25    0.09264      0.00000     0.40599    0.00137     0.40736
      H   26    0.09532      0.00000     0.40294    0.00174     0.40468
      H   27    0.19174      0.00000     0.30556    0.00270     0.30826
      H   28    0.19366      0.00000     0.29672    0.00962     0.30634
 =======================================================================
   * Total *    0.00000     17.99450    37.79956    0.20595    56.00000

 Normal termination of Gaussian 16 at Thu Dec 10 10:11:05 2020.
