 Gaussian 16, Revision A.03,

 -----------------------------------------------------------
 # opt freq B3LYP/6-31G(d) empiricaldispersion=gd3bj scf=xqc
 -----------------------------------------------------------

 -------------------------------
 CID_108099516_JID_5785_neutraal
 -------------------------------
 Symbolic Z-matrix:
 Charge =  0 Multiplicity = 1

 SCF Done:  E(RB3LYP) =  -744.568377971     A.U. after   16 cycles
 SCF Done:  E(RB3LYP) =  -744.576018382     A.U. after   13 cycles
 SCF Done:  E(RB3LYP) =  -744.576632712     A.U. after   12 cycles
 SCF Done:  E(RB3LYP) =  -744.576376857     A.U. after   13 cycles
 SCF Done:  E(RB3LYP) =  -744.576821956     A.U. after   12 cycles
 SCF Done:  E(RB3LYP) =  -744.576841457     A.U. after   11 cycles
 SCF Done:  E(RB3LYP) =  -744.576851771     A.U. after   10 cycles
 SCF Done:  E(RB3LYP) =  -744.576855618     A.U. after    9 cycles
 SCF Done:  E(RB3LYP) =  -744.576859851     A.U. after   10 cycles
 SCF Done:  E(RB3LYP) =  -744.576862163     A.U. after   10 cycles
 SCF Done:  E(RB3LYP) =  -744.576866601     A.U. after   10 cycles
 SCF Done:  E(RB3LYP) =  -744.576867597     A.U. after   10 cycles
 SCF Done:  E(RB3LYP) =  -744.576867971     A.U. after    9 cycles
 SCF Done:  E(RB3LYP) =  -744.576868072     A.U. after    8 cycles
 Optimization completed.
    -- Stationary point found.
 Normal termination of Gaussian 16 at Thu Dec 10 16:58:59 2020.

 --------------------------------------------------------------------
 #N Geom=AllCheck Guess=TCheck SCRF=Check GenChk RB3LYP/6-31G(d) Freq
 --------------------------------------------------------------------

 Structure from the checkpoint file:  "JID_5785.chk"
 -------------------------------
 CID_108099516_JID_5785_neutraal
 -------------------------------
 Charge =  0 Multiplicity = 1

 SCF Done:  E(RB3LYP) =  -744.576868072     A.U. after    1 cycles

  Exact polarizability: 159.985  -6.694 132.256  17.207  -1.866  76.819
 Approx polarizability: 234.868 -37.963 214.091  42.827 -13.780 119.842

                      1                      2                      3
                      A                      A                      A
 Frequencies --     18.7692                23.1553                44.4916
 Red. masses --      4.7862                11.3580                 5.0084
 Frc consts  --      0.0010                 0.0036                 0.0058
 IR Inten    --      1.3279                 0.0147                 2.0982

                      4                      5                      6
                      A                      A                      A
 Frequencies --     71.9318               105.6073               121.0050
 Red. masses --      4.0169                 3.1512                 4.3237
 Frc consts  --      0.0122                 0.0207                 0.0373
 IR Inten    --      2.0175                 2.4657                 1.7328

                      7                      8                      9
                      A                      A                      A
 Frequencies --    134.0592               187.0985               207.5455
 Red. masses --      2.7535                 2.9073                 5.3912
 Frc consts  --      0.0292                 0.0600                 0.1368
 IR Inten    --      8.7283                 0.1484                 1.9352

                     10                     11                     12
                      A                      A                      A
 Frequencies --    241.1078               278.1999               311.0170
 Red. masses --      1.7722                 2.1227                 3.3872
 Frc consts  --      0.0607                 0.0968                 0.1930
 IR Inten    --      5.8783                 1.9349                 1.8306

                     13                     14                     15
                      A                      A                      A
 Frequencies --    337.1639               395.7644               398.5594
 Red. masses --      4.4591                 3.0494                 3.3063
 Frc consts  --      0.2987                 0.2814                 0.3094
 IR Inten    --      1.4570                 5.2940                 0.5061

                     16                     17                     18
                      A                      A                      A
 Frequencies --    413.5875               418.9218               480.4980
 Red. masses --      9.8433                 3.1065                 4.1237
 Frc consts  --      0.9920                 0.3212                 0.5609
 IR Inten    --      2.3869                 3.2904                 7.9643

                     19                     20                     21
                      A                      A                      A
 Frequencies --    502.5170               560.8110               580.8342
 Red. masses --      2.9206                 4.5984                 1.7115
 Frc consts  --      0.4345                 0.8521                 0.3402
 IR Inten    --      8.4787                34.6616                29.8253

                     22                     23                     24
                      A                      A                      A
 Frequencies --    594.8531               658.6269               708.3331
 Red. masses --      1.7435                 5.0003                 3.7449
 Frc consts  --      0.3635                 1.2780                 1.1070
 IR Inten    --     79.2696                29.0816                11.8535

                     25                     26                     27
                      A                      A                      A
 Frequencies --    721.6849               782.3088               787.6882
 Red. masses --      4.1914                 2.6018                 2.3931
 Frc consts  --      1.2862                 0.9382                 0.8748
 IR Inten    --     14.0826                 5.8471                 1.0419

                     28                     29                     30
                      A                      A                      A
 Frequencies --    823.3986               851.7508               890.3168
 Red. masses --      2.5397                 2.3638                 3.1511
 Frc consts  --      1.0145                 1.0104                 1.4717
 IR Inten    --      2.2465                60.1351                 0.8736

                     31                     32                     33
                      A                      A                      A
 Frequencies --    923.7309               944.2002               949.2041
 Red. masses --      3.2009                 1.4813                 2.4655
 Frc consts  --      1.6092                 0.7781                 1.3088
 IR Inten    --      2.6544                 4.2732                16.0240

                     34                     35                     36
                      A                      A                      A
 Frequencies --    971.5031              1052.8606              1056.7374
 Red. masses --      1.2968                 1.8955                 3.6131
 Frc consts  --      0.7211                 1.2380                 2.3772
 IR Inten    --      3.0163                17.7930               109.2492

                     37                     38                     39
                      A                      A                      A
 Frequencies --   1082.0926              1119.7162              1157.8354
 Red. masses --      2.3544                 2.2083                 2.9146
 Frc consts  --      1.6243                 1.6312                 2.3021
 IR Inten    --      7.2374                 7.6615                80.9199

                     40                     41                     42
                      A                      A                      A
 Frequencies --   1167.7763              1176.2317              1194.0407
 Red. masses --      4.8727                 1.8821                 1.2889
 Frc consts  --      3.9151                 1.5342                 1.0827
 IR Inten    --     73.0011               236.9290                 0.4234

                     43                     44                     45
                      A                      A                      A
 Frequencies --   1219.0184              1232.4599              1262.6363
 Red. masses --      1.3034                 1.7133                 1.5398
 Frc consts  --      1.1412                 1.5333                 1.4464
 IR Inten    --     15.3442                97.4914                29.5779

                     46                     47                     48
                      A                      A                      A
 Frequencies --   1268.2398              1272.6300              1325.1762
 Red. masses --      1.2866                 1.6854                 1.1455
 Frc consts  --      1.2193                 1.6083                 1.1852
 IR Inten    --     25.5004                65.1694                 9.2014

                     49                     50                     51
                      A                      A                      A
 Frequencies --   1378.9565              1400.6647              1402.1639
 Red. masses --      1.9944                 1.3956                 1.6174
 Frc consts  --      2.2344                 1.6131                 1.8735
 IR Inten    --     80.3336                14.1402                18.2146

                     52                     53                     54
                      A                      A                      A
 Frequencies --   1415.1788              1443.5501              1447.7627
 Red. masses --      2.1180                 1.7226                 1.3667
 Frc consts  --      2.4991                 2.1150                 1.6877
 IR Inten    --      9.2895                 0.8532                28.3356

                     55                     56                     57
                      A                      A                      A
 Frequencies --   1498.7379              1504.0696              1505.4339
 Red. masses --      1.7741                 1.2659                 1.4913
 Frc consts  --      2.3479                 1.6873                 1.9914
 IR Inten    --    104.1799                21.9760                31.0251

                     58                     59                     60
                      A                      A                      A
 Frequencies --   1516.7133              1527.2445              1533.5297
 Red. masses --      1.0471                 1.1422                 1.0635
 Frc consts  --      1.4192                 1.5696                 1.4736
 IR Inten    --      5.6564                 9.8350                 9.9457

                     61                     62                     63
                      A                      A                      A
 Frequencies --   1558.3953              1599.7766              1698.5089
 Red. masses --      1.0859                 5.3359                 5.6779
 Frc consts  --      1.5538                 8.0460                 9.6510
 IR Inten    --      5.3381                60.8002                41.5388

                     64                     65                     66
                      A                      A                      A
 Frequencies --   1745.3524              1847.3569              2993.2687
 Red. masses --     10.0702                 9.9878                 1.0500
 Frc consts  --     18.0740                20.0826                 5.5426
 IR Inten    --    229.0055               486.8817                24.0860

                     67                     68                     69
                      A                      A                      A
 Frequencies --   3005.4198              3024.5514              3051.7665
 Red. masses --      1.0414                 1.1061                 1.1056
 Frc consts  --      5.5420                 5.9617                 6.0667
 IR Inten    --     62.9791                60.9452                57.1188

                     70                     71                     72
                      A                      A                      A
 Frequencies --   3060.1320              3092.9076              3103.3343
 Red. masses --      1.0620                 1.0674                 1.1012
 Frc consts  --      5.8592                 6.0160                 6.2485
 IR Inten    --     23.7759                17.7520                40.0217

                     73                     74                     75
                      A                      A                      A
 Frequencies --   3144.3051              3156.2905              3227.8908
 Red. masses --      1.0981                 1.1026                 1.0885
 Frc consts  --      6.3965                 6.4720                 6.6820
 IR Inten    --     27.2600                 8.4918                 0.6109

                     76                     77                     78
                      A                      A                      A
 Frequencies --   3242.3931              3247.7159              3705.2795
 Red. masses --      1.0917                 1.0973                 1.0643
 Frc consts  --      6.7620                 6.8194                 8.6092
 IR Inten    --      0.4241                 3.3141                65.9813

 - Thermochemistry -
 -------------------
 Temperature   298.150 Kelvin.  Pressure   1.00000 Atm.
 Atom     1 has atomic number  6 and mass  12.00000

 Molecular mass:   211.08446 amu.
 Principal axes and moments of inertia in atomic units:
                           1         2         3
     Eigenvalues --  1649.943575368.264736377.47601
           X            0.99989   0.01203  -0.00862
           Y           -0.01207   0.99991  -0.00535
           Z            0.00855   0.00545   0.99995
 This molecule is an asymmetric top.
 Rotational symmetry number  1.
 Warning -- assumption of classical behavior for rotation
           may cause significant error
 Rotational temperatures (Kelvin)      0.05250     0.01613     0.01358
 Rotational constants (GHZ):           1.09382     0.33619     0.28299
 Zero-point vibrational energy     598768.9 (Joules/Mol)
                                  143.10921 (Kcal/Mol)
 Warning -- explicit consideration of  22 degrees of freedom as
           vibrations may cause significant error
 Vibrational temperatures:     27.00    33.32    64.01   103.49   151.95
          (Kelvin)            174.10   192.88   269.19   298.61   346.90
                              400.27   447.48   485.10   569.42   573.44
                              595.06   602.74   691.33   723.01   806.88
                              835.69   855.86   947.62  1019.13  1038.34
                             1125.57  1133.31  1184.69  1225.48  1280.97
                             1329.04  1358.49  1365.69  1397.78  1514.83
                             1520.41  1556.89  1611.02  1665.87  1680.17
                             1692.34  1717.96  1753.90  1773.23  1816.65
                             1824.71  1831.03  1906.63  1984.01  2015.24
                             2017.40  2036.13  2076.95  2083.01  2156.35
                             2164.02  2165.98  2182.21  2197.36  2206.41
                             2242.18  2301.72  2443.78  2511.17  2657.93
                             4306.65  4324.13  4351.65  4390.81  4402.85
                             4450.00  4465.01  4523.95  4541.20  4644.21
                             4665.08  4672.74  5331.07

 Zero-point correction=                           0.228059 (Hartree/Particle)
 Thermal correction to Energy=                    0.242690
 Thermal correction to Enthalpy=                  0.243634
 Thermal correction to Gibbs Free Energy=         0.183799
 Sum of electronic and zero-point Energies=           -744.348809
 Sum of electronic and thermal Energies=              -744.334178
 Sum of electronic and thermal Enthalpies=            -744.333234
 Sum of electronic and thermal Free Energies=         -744.393069

                     E (Thermal)             CV                S
                      KCal/Mol        Cal/Mol-Kelvin    Cal/Mol-Kelvin
 Total                  152.290             53.352            125.935
 Electronic               0.000              0.000              0.000
 Translational            0.889              2.981             41.945
 Rotational               0.889              2.981             32.402
 Vibrational            150.513             47.390             51.588
 Vibration     1          0.593              1.986              6.760
 Vibration     2          0.593              1.985              6.343
 Vibration     3          0.595              1.980              5.048
 Vibration     4          0.598              1.967              4.100
 Vibration     5          0.605              1.945              3.348
 Vibration     6          0.609              1.932              3.084
 Vibration     7          0.613              1.919              2.887
 Vibration     8          0.632              1.858              2.256
 Vibration     9          0.641              1.829              2.065
 Vibration    10          0.658              1.777              1.795
 Vibration    11          0.679              1.714              1.545
 Vibration    12          0.700              1.653              1.357
 Vibration    13          0.718              1.601              1.226
 Vibration    14          0.762              1.479              0.978
 Vibration    15          0.765              1.473              0.968
 Vibration    16          0.777              1.441              0.914
 Vibration    17          0.782              1.429              0.896
 Vibration    18          0.837              1.293              0.709
 Vibration    19          0.858              1.244              0.652
 Vibration    20          0.916              1.116              0.522
 Vibration    21          0.938              1.073              0.484
 Vibration    22          0.953              1.043              0.459

 Optimization completed.
    -- Stationary point found.
 Normal termination of Gaussian 16 at Thu Dec 10 17:07:14 2020.

 ----------------------------------------------------------------------
 # B3LYP/6-311++G(d,p) empiricaldispersion=gd3bj scf=xqc pop=npa geom=c
 heck
 ----------------------------------------------------------------------

 ---------------------------------------
 CID_108099516_JID_5785_Energie_neutraal
 ---------------------------------------
 Structure from the checkpoint file:  "JID_5785.chk"
 Charge =  0 Multiplicity = 1

 SCF Done:  E(RB3LYP) =  -744.800272040     A.U. after   18 cycles
 Normal termination of Gaussian 16 at Thu Dec 10 17:12:43 2020.

 ----------------------------------------------------------------------
 # B3LYP/6-311++G(d,p) empiricaldispersion=gd3bj scf=xqc pop=npa geom=c
 heck
 ----------------------------------------------------------------------

 -------------------------------------
 CID_108099516_JID_5785_Energie_kation
 -------------------------------------
 Structure from the checkpoint file:  "JID_5785.chk"
 Charge =  1 Multiplicity = 2

 SCF Done:  E(UB3LYP) =  -744.496037840     A.U. after   33 cycles
 SCF Done:  E(UB3LYP) =  -744.496673413     a.u. after    9 cycles
 Normal termination of Gaussian 16 at Thu Dec 10 18:11:02 2020.
 Gaussian 16:  ES64L-G16RevA.03 25-Dec-2016

 ----------------------------------------------------------------------
 # B3LYP/6-311++G(d,p) empiricaldispersion=gd3bj scf=xqc pop=npa geom=c
 heck
 ----------------------------------------------------------------------

 ------------------------------------
 CID_108099516_JID_5785_Energie_anion
 ------------------------------------
 Structure from the checkpoint file:  "JID_5785.chk"
 Charge = -1 Multiplicity = 2

                         Standard orientation:
 ---------------------------------------------------------------------
 Center     Atomic      Atomic             Coordinates (Angstroms)
 Number     Number       Type             X           Y           Z
 ---------------------------------------------------------------------
      1          6           0        4.122152    1.271416   -0.749236
      2          8           0        3.607808    0.115701   -0.115293
      3          6           0        2.773715   -0.644537   -0.972471
      4          6           0        2.211335   -1.816943   -0.179724
      5          6           0        1.497382   -1.379586    1.105035
      6          7           0        0.426033   -0.406557    0.856606
      7          6           0        0.685550    0.950274    0.921957
      8          6           0       -0.252276    1.863581    0.587014
      9          6           0       -1.597573    1.493397    0.124470
     10          8           0       -2.432076    2.338885   -0.185336
     11          6           0       -1.806995    0.026430    0.080397
     12          6           0       -0.796544   -0.827480    0.437562
     13          6           0       -3.101814   -0.545778   -0.345384
     14          8           0       -4.090770    0.063340   -0.682510
     15          8           0       -3.090153   -1.921622   -0.327993
     16          1           0        4.751038    1.786719   -0.019428
     17          1           0        3.313303    1.945164   -1.071443
     18          1           0        4.731104    1.010826   -1.628163
     19          1           0        1.955244   -0.016719   -1.359851
     20          1           0        3.344604   -1.011611   -1.840250
     21          1           0        1.519869   -2.375835   -0.822110
     22          1           0        3.023382   -2.498631    0.099717
     23          1           0        1.059575   -2.243686    1.612968
     24          1           0        2.211018   -0.915154    1.786988
     25          1           0        1.689382    1.205275    1.238922
     26          1           0       -0.030145    2.922638    0.653017
     27          1           0       -0.934877   -1.901261    0.404934
     28          1           0       -3.983790   -2.176913   -0.620214
 ---------------------------------------------------------------------

 SCF Done:  E(UB3LYP) =  -744.804787743     A.U. after   33 cycles
 SCF Done:  E(UB3LYP) =  -744.804787743     a.u. after    1 cycles

 The electronic state is 2-A.
 Alpha  occ. eigenvalues --  -19.04310 -19.03291 -18.96042 -18.94250 -14.26054
 Alpha  occ. eigenvalues --  -10.15216 -10.13051 -10.12761 -10.11627 -10.11061
 Alpha  occ. eigenvalues --  -10.09971 -10.08382 -10.08256 -10.04219 -10.04201
 Alpha  occ. eigenvalues --   -0.96733  -0.95552  -0.88298  -0.87573  -0.86993
 Alpha  occ. eigenvalues --   -0.71136  -0.66792  -0.66334  -0.61488  -0.57464
 Alpha  occ. eigenvalues --   -0.55158  -0.50985  -0.49747  -0.46264  -0.42156
 Alpha  occ. eigenvalues --   -0.40909  -0.39956  -0.39557  -0.37395  -0.36066
 Alpha  occ. eigenvalues --   -0.35618  -0.34796  -0.32991  -0.32771  -0.31864
 Alpha  occ. eigenvalues --   -0.31516  -0.30355  -0.28051  -0.27652  -0.27019
 Alpha  occ. eigenvalues --   -0.26527  -0.25720  -0.25437  -0.24185  -0.22846
 Alpha  occ. eigenvalues --   -0.19134  -0.18077  -0.16066  -0.14513  -0.10261
 Alpha  occ. eigenvalues --   -0.09788   0.03941
 Alpha virt. eigenvalues --    0.05664   0.06724   0.07530   0.08715   0.09506
 Alpha virt. eigenvalues --    0.09750   0.09994   0.10299   0.10869   0.12206
 Alpha virt. eigenvalues --    0.12892   0.13133   0.13636   0.14633   0.14654

  Beta  occ. eigenvalues --  -19.04300 -19.03278 -18.95816 -18.94268 -14.26098
  Beta  occ. eigenvalues --  -10.15068 -10.13034 -10.12745 -10.11610 -10.11080
  Beta  occ. eigenvalues --  -10.09925 -10.08370 -10.07883 -10.04098 -10.04068
  Beta  occ. eigenvalues --   -0.96564  -0.95539  -0.88239  -0.87379  -0.86827
  Beta  occ. eigenvalues --   -0.71036  -0.66568  -0.65963  -0.61393  -0.57349
  Beta  occ. eigenvalues --   -0.54768  -0.50908  -0.49546  -0.46050  -0.42085
  Beta  occ. eigenvalues --   -0.40816  -0.39866  -0.39420  -0.37334  -0.35934
  Beta  occ. eigenvalues --   -0.35488  -0.34665  -0.32896  -0.32574  -0.31408
  Beta  occ. eigenvalues --   -0.31234  -0.30048  -0.27951  -0.27604  -0.26800
  Beta  occ. eigenvalues --   -0.26436  -0.25580  -0.25364  -0.24128  -0.22679
  Beta  occ. eigenvalues --   -0.18393  -0.18048  -0.14692  -0.14305  -0.09738
  Beta  occ. eigenvalues --   -0.09730
  Beta virt. eigenvalues --    0.06105   0.07234   0.07854   0.08705   0.08752
  Beta virt. eigenvalues --    0.09836   0.09890   0.10215   0.10701   0.11011
  Beta virt. eigenvalues --    0.12258   0.13065   0.13194   0.13580   0.14644

 Mulliken charges and spin densities:
               1          2
     1  C    0.098409  -0.369773
     2  O   -0.138566   0.013521
     3  C   -0.325227  -0.081994
     4  C    0.704977  -0.871461
     5  C   -0.436068   0.185703
     6  N    0.263556   0.007218
     7  C   -0.215568   0.044596
     8  C    0.284599  -0.078876
     9  C   -0.661577   0.072506
    10  O   -0.343456  -0.004740
    11  C    1.023553  -0.086941
    12  C   -0.933399   0.145911
    13  C   -0.019996   0.065925
    14  O   -0.348534   0.077361
    15  O   -0.240300   0.000678
    16  H    0.003013   0.133810
    17  H    0.116272   0.022891
    18  H   -0.112526   0.237536
    19  H    0.214888  -0.054149
    20  H   -0.344958   0.506591
    21  H    0.168592  -0.024051
    22  H   -0.342724   0.524524
    23  H   -0.277508   0.461852
    24  H    0.153505   0.016469
    25  H    0.168121  -0.012530
    26  H    0.157281   0.003390
    27  H    0.127861   0.055011
    28  H    0.255782   0.009022
 Sum of Mulliken charges =  -1.00000   1.00000

 Dipole moment (field-independent basis, Debye):
    X=              4.6408    Y=             -1.2668    Z=              0.9824  Tot=              4.9099
 Quadrupole moment (field-independent basis, Debye-Ang):
   XX=           -160.7456   YY=           -121.0277   ZZ=           -105.3004
   XY=             25.9347   XZ=              1.2343   YZ=              3.8917

 Summary of Natural Population Analysis:

                                       Natural Population
                Natural  -----------------------------------------------
    Atom  No    Charge         Core      Valence    Rydberg      Total
 -----------------------------------------------------------------------
      C    1   -0.09869      0.99962     2.08998    0.00909     3.09869
      O    2   -0.30294      0.99988     3.29322    0.00984     4.30294
      C    3   -0.01263      0.99958     2.00034    0.01270     3.01263
      C    4   -0.20422      0.99962     2.19518    0.00942     3.20422
      C    5   -0.07702      0.99960     2.06585    0.01157     3.07702
      N    6   -0.21627      0.99963     2.70719    0.00944     3.71627
      C    7    0.02085      0.99954     1.96952    0.01008     2.97915
      C    8   -0.13056      0.99954     2.12109    0.00994     3.13056
      C    9    0.23188      0.99958     1.74756    0.02098     2.76812
      O   10   -0.31686      0.99988     3.31054    0.00644     4.31686
      C   11   -0.12505      0.99943     2.11438    0.01124     3.12505
      C   12    0.11347      0.99953     1.87445    0.01254     2.88653
      C   13    0.40814      0.99967     1.56741    0.02478     2.59186
      O   14   -0.28308      0.99987     3.27709    0.00613     4.28308
      O   15   -0.36701      0.99988     3.36046    0.00667     4.36701
      H   16    0.08853      0.00000     0.41064    0.00084     0.41147
      H   17    0.08137      0.00000     0.41762    0.00100     0.41863
      H   18    0.07941      0.00000     0.41919    0.00140     0.42059
      H   19    0.08550      0.00000     0.41311    0.00139     0.41450
      H   20    0.08369      0.00000     0.41475    0.00156     0.41631
      H   21    0.10283      0.00000     0.39622    0.00095     0.39717
      H   22    0.10272      0.00000     0.39529    0.00199     0.39728
      H   23    0.10282      0.00000     0.39579    0.00139     0.39718
      H   24    0.10147      0.00000     0.39698    0.00154     0.39853
      H   25    0.09848      0.00000     0.39948    0.00204     0.40152
      H   26    0.10019      0.00000     0.39804    0.00176     0.39981
      H   27    0.10114      0.00000     0.39717    0.00169     0.39886
      H   28    0.23183      0.00000     0.26365    0.00452     0.26817
 =======================================================================
   * Total *    0.00000     14.99487    40.81221    0.19292    56.00000

 Normal termination of Gaussian 16 at Thu Dec 10 18:19:18 2020.
