 Gaussian 16, Revision A.03,

 -----------------------------------------------------------
 # opt freq B3LYP/6-31G(d) empiricaldispersion=gd3bj scf=xqc
 -----------------------------------------------------------

 -------------------------------
 CID_141273122_JID_4335_neutraal
 -------------------------------
 Symbolic Z-matrix:
 Charge =  0 Multiplicity = 1

 SCF Done:  E(RB3LYP) =  -1003.17344324     A.U. after   15 cycles
 SCF Done:  E(RB3LYP) =  -1003.18435911     A.U. after   13 cycles
 SCF Done:  E(RB3LYP) =  -1003.18739020     A.U. after   13 cycles
 SCF Done:  E(RB3LYP) =  -1003.18847190     A.U. after   12 cycles
 SCF Done:  E(RB3LYP) =  -1003.18894964     A.U. after   12 cycles
 SCF Done:  E(RB3LYP) =  -1003.18921318     A.U. after   12 cycles
 SCF Done:  E(RB3LYP) =  -1003.18921384     A.U. after   12 cycles
 SCF Done:  E(RB3LYP) =  -1003.18924912     A.U. after   12 cycles
 SCF Done:  E(RB3LYP) =  -1003.18931669     A.U. after   11 cycles
 SCF Done:  E(RB3LYP) =  -1003.18932897     A.U. after   10 cycles
 SCF Done:  E(RB3LYP) =  -1003.18983613     A.U. after   11 cycles
 SCF Done:  E(RB3LYP) =  -1003.18983878     A.U. after   11 cycles
 SCF Done:  E(RB3LYP) =  -1003.18983947     A.U. after   10 cycles
 SCF Done:  E(RB3LYP) =  -1003.18983978     A.U. after    8 cycles
 SCF Done:  E(RB3LYP) =  -1003.18983989     A.U. after    7 cycles
 Optimization completed.
    -- Stationary point found.
 Normal termination of Gaussian 16 at Thu Dec 10 09:42:45 2020.

 --------------------------------------------------------------------
 #N Geom=AllCheck Guess=TCheck SCRF=Check GenChk RB3LYP/6-31G(d) Freq
 --------------------------------------------------------------------

 Structure from the checkpoint file:  "JID_4335.chk"
 -------------------------------
 CID_141273122_JID_4335_neutraal
 -------------------------------
 Charge =  0 Multiplicity = 1

 SCF Done:  E(RB3LYP) =  -1003.18983989     A.U. after    1 cycles

  Exact polarizability: 156.604   7.415 133.211   0.975  -2.777  83.316
 Approx polarizability: 225.927  17.921 227.409  -1.555 -17.886 146.228

                      1                      2                      3
                      A                      A                      A
 Frequencies --     14.0919                67.1853                80.2302
 Red. masses --      7.2398                 3.6558                 3.4953
 Frc consts  --      0.0008                 0.0097                 0.0133
 IR Inten    --      2.0590                 3.6004                 1.3036

                      4                      5                      6
                      A                      A                      A
 Frequencies --    103.7703               120.0166               192.5006
 Red. masses --      5.9487                 5.2094                 3.1004
 Frc consts  --      0.0377                 0.0442                 0.0677
 IR Inten    --      2.9419                 1.8098                 1.7866

                      7                      8                      9
                      A                      A                      A
 Frequencies --    224.4819               268.1935               287.4075
 Red. masses --      4.6459                 3.8676                 3.6580
 Frc consts  --      0.1379                 0.1639                 0.1780
 IR Inten    --      0.9864                 4.1643                 2.8170

                     10                     11                     12
                      A                      A                      A
 Frequencies --    344.2978               374.6660               425.8832
 Red. masses --      5.3119                 5.4489                 5.2723
 Frc consts  --      0.3710                 0.4507                 0.5634
 IR Inten    --      1.5118                 0.9967                 0.2564

                     13                     14                     15
                      A                      A                      A
 Frequencies --    447.5479               462.5153               540.0227
 Red. masses --      5.0375                 4.9471                 4.3179
 Frc consts  --      0.5945                 0.6235                 0.7419
 IR Inten    --      2.9142                 2.3167                 0.3268

                     16                     17                     18
                      A                      A                      A
 Frequencies --    558.5851               642.5089               683.9004
 Red. masses --      6.9212                 3.6118                 5.7553
 Frc consts  --      1.2724                 0.8785                 1.5860
 IR Inten    --      2.7959                 1.6551                 3.1020

                     19                     20                     21
                      A                      A                      A
 Frequencies --    690.1171               701.7995               708.9202
 Red. masses --      4.9614                 3.8191                 5.5334
 Frc consts  --      1.3922                 1.1083                 1.6385
 IR Inten    --      0.2884                 6.7232                 2.3561

                     22                     23                     24
                      A                      A                      A
 Frequencies --    802.8483               822.9046               839.9986
 Red. masses --      1.0719                 1.2940                 1.6334
 Frc consts  --      0.4071                 0.5163                 0.6790
 IR Inten    --      2.7358                12.9115                10.8329

                     25                     26                     27
                      A                      A                      A
 Frequencies --    873.9396               894.9799               917.2200
 Red. masses --      3.7273                 3.3614                 3.0229
 Frc consts  --      1.6773                 1.5863                 1.4984
 IR Inten    --     21.7415                68.2302                 3.5859

                     28                     29                     30
                      A                      A                      A
 Frequencies --    927.8907               988.3730               994.3005
 Red. masses --      3.1042                 3.7946                 3.3367
 Frc consts  --      1.5747                 2.1840                 1.9436
 IR Inten    --      3.3291                30.3814                41.0440

                     31                     32                     33
                      A                      A                      A
 Frequencies --   1008.8267              1037.1832              1052.9806
 Red. masses --      4.1539                 3.1942                 4.0457
 Frc consts  --      2.4908                 2.0245                 2.6429
 IR Inten    --     55.0574                30.3939                45.5147

                     34                     35                     36
                      A                      A                      A
 Frequencies --   1068.4904              1072.3799              1099.1514
 Red. masses --      2.0206                 1.2988                 1.3390
 Frc consts  --      1.3592                 0.8800                 0.9531
 IR Inten    --      4.5878                 3.4759                 4.6818

                     37                     38                     39
                      A                      A                      A
 Frequencies --   1113.1238              1140.8955              1160.4833
 Red. masses --      2.0471                 1.0948                 1.8760
 Frc consts  --      1.4944                 0.8396                 1.4886
 IR Inten    --     29.9600                 2.3708                 9.8912

                     40                     41                     42
                      A                      A                      A
 Frequencies --   1213.5402              1216.2827              1222.0829
 Red. masses --      1.3322                 1.3806                 2.7248
 Frc consts  --      1.1559                 1.2034                 2.3976
 IR Inten    --      8.0985                 1.0299                 5.2558

                     43                     44                     45
                      A                      A                      A
 Frequencies --   1276.1795              1305.6612              1324.2662
 Red. masses --      1.3062                 2.2526                 4.9704
 Frc consts  --      1.2534                 2.2625                 5.1356
 IR Inten    --      3.7780                 3.8049                24.9952

                     46                     47                     48
                      A                      A                      A
 Frequencies --   1338.7665              1341.3078              1406.4083
 Red. masses --      1.2109                 5.3094                 1.2726
 Frc consts  --      1.2787                 5.6279                 1.4831
 IR Inten    --     17.4327                74.7575                 6.4979

                     49                     50                     51
                      A                      A                      A
 Frequencies --   1430.9708              1472.6116              1489.7870
 Red. masses --      2.2244                 3.8163                 1.1206
 Frc consts  --      2.6837                 4.8761                 1.4653
 IR Inten    --     11.1251                70.2592                13.5127

                     52                     53                     54
                      A                      A                      A
 Frequencies --   1498.7380              1511.6571              1528.7157
 Red. masses --      1.0916                 1.0909                 1.3611
 Frc consts  --      1.4447                 1.4687                 1.8740
 IR Inten    --      4.4341                 3.2339                 9.6731

                     55                     56                     57
                      A                      A                      A
 Frequencies --   1598.4909              1641.9861              3053.7698
 Red. masses --      6.5740                11.6673                 1.0653
 Frc consts  --      9.8969                18.5336                 5.8532
 IR Inten    --     24.2160                32.5422                29.2679

                     58                     59                     60
                      A                      A                      A
 Frequencies --   3093.9264              3132.1593              3151.4454
 Red. masses --      1.0582                 1.1008                 1.1095
 Frc consts  --      5.9682                 6.3627                 6.4925
 IR Inten    --     11.2931                15.7304                 5.0255

                     61                     62                     63
                      A                      A                      A
 Frequencies --   3162.1213              3163.7016              3171.9218
 Red. masses --      1.0547                 1.0613                 1.0858
 Frc consts  --      6.2133                 6.2585                 6.4364
 IR Inten    --     16.3913                13.6896                13.1895

                     64                     65                     66
                      A                      A                      A
 Frequencies --   3244.8811              3266.4538              3280.5686
 Red. masses --      1.1161                 1.1147                 1.0979
 Frc consts  --      6.9241                 7.0073                 6.9619
 IR Inten    --     10.6136                 1.8020                 3.0992

 - Thermochemistry -
 -------------------
 Temperature   298.150 Kelvin.  Pressure   1.00000 Atm.
 Atom     1 has atomic number  6 and mass  12.00000

 Molecular mass:   210.05753 amu.
 Principal axes and moments of inertia in atomic units:
                           1         2         3
     Eigenvalues --  1906.933833259.879014550.55393
           X            0.99945  -0.03302  -0.00044
           Y            0.03302   0.99934   0.01502
           Z           -0.00006  -0.01503   0.99989
 This molecule is an asymmetric top.
 Rotational symmetry number  1.
 Warning -- assumption of classical behavior for rotation
           may cause significant error
 Rotational temperatures (Kelvin)      0.04542     0.02657     0.01903
 Rotational constants (GHZ):           0.94641     0.55362     0.39660
 Zero-point vibrational energy     486240.2 (Joules/Mol)
                                  116.21420 (Kcal/Mol)
 Warning -- explicit consideration of  16 degrees of freedom as
           vibrations may cause significant error
 Vibrational temperatures:     20.28    96.66   115.43   149.30   172.68
          (Kelvin)            276.97   322.98   385.87   413.52   495.37
                              539.06   612.75   643.92   665.46   776.97
                              803.68   924.43   983.98   992.92  1009.73
                             1019.98  1155.12  1183.98  1208.57  1257.40
                             1287.68  1319.68  1335.03  1422.05  1430.58
                             1451.48  1492.28  1515.00  1537.32  1542.92
                             1581.43  1601.54  1641.49  1669.68  1746.01
                             1749.96  1758.30  1836.14  1878.56  1905.32
                             1926.19  1929.84  2023.51  2058.85  2118.76
                             2143.47  2156.35  2174.94  2199.48  2299.87
                             2362.45  4393.69  4451.47  4506.48  4534.23
                             4549.59  4551.86  4563.69  4668.66  4699.70
                             4720.01

 Zero-point correction=                           0.185199 (Hartree/Particle)
 Thermal correction to Energy=                    0.197311
 Thermal correction to Enthalpy=                  0.198255
 Thermal correction to Gibbs Free Energy=         0.144811
 Sum of electronic and zero-point Energies=          -1003.004641
 Sum of electronic and thermal Energies=             -1002.992529
 Sum of electronic and thermal Enthalpies=           -1002.991585
 Sum of electronic and thermal Free Energies=        -1003.045029

                     E (Thermal)             CV                S
                      KCal/Mol        Cal/Mol-Kelvin    Cal/Mol-Kelvin
 Total                  123.814             45.868            112.482
 Electronic               0.000              0.000              0.000
 Translational            0.889              2.981             41.930
 Rotational               0.889              2.981             31.715
 Vibrational            122.037             39.906             38.837
 Vibration     1          0.593              1.986              7.330
 Vibration     2          0.598              1.970              4.234
 Vibration     3          0.600              1.963              3.885
 Vibration     4          0.605              1.946              3.382
 Vibration     5          0.609              1.933              3.100
 Vibration     6          0.634              1.850              2.204
 Vibration     7          0.649              1.804              1.923
 Vibration     8          0.673              1.732              1.608
 Vibration     9          0.685              1.697              1.489
 Vibration    10          0.723              1.587              1.192
 Vibration    11          0.746              1.524              1.061
 Vibration    12          0.788              1.414              0.872
 Vibration    13          0.807              1.366              0.803
 Vibration    14          0.820              1.333              0.759
 Vibration    15          0.895              1.162              0.565
 Vibration    16          0.914              1.121              0.527

 Optimization completed.
    -- Stationary point found.
 Normal termination of Gaussian 16 at Thu Dec 10 09:49:56 2020.

 ----------------------------------------------------------------------
 # B3LYP/6-311++G(d,p) empiricaldispersion=gd3bj scf=xqc pop=npa geom=c
 heck
 ----------------------------------------------------------------------

 ---------------------------------------
 CID_141273122_JID_4335_Energie_neutraal
 ---------------------------------------
 Structure from the checkpoint file:  "JID_4335.chk"
 Charge =  0 Multiplicity = 1

 SCF Done:  E(RB3LYP) =  -1003.37526726     A.U. after   15 cycles
 Normal termination of Gaussian 16 at Thu Dec 10 09:53:07 2020.

 ----------------------------------------------------------------------
 # B3LYP/6-311++G(d,p) empiricaldispersion=gd3bj scf=xqc pop=npa geom=c
 heck
 ----------------------------------------------------------------------

 -------------------------------------
 CID_141273122_JID_4335_Energie_kation
 -------------------------------------
 Structure from the checkpoint file:  "JID_4335.chk"
 Charge =  1 Multiplicity = 2

 SCF Done:  E(UB3LYP) =  -1003.06400007     A.U. after   27 cycles
 Normal termination of Gaussian 16 at Thu Dec 10 10:01:19 2020.
 Gaussian 16:  ES64L-G16RevA.03 25-Dec-2016

 ----------------------------------------------------------------------
 # B3LYP/6-311++G(d,p) empiricaldispersion=gd3bj scf=xqc pop=npa geom=c
 heck
 ----------------------------------------------------------------------

 ------------------------------------
 CID_141273122_JID_4335_Energie_anion
 ------------------------------------
 Structure from the checkpoint file:  "JID_4335.chk"
 Charge = -1 Multiplicity = 2

                         Standard orientation:
 ---------------------------------------------------------------------
 Center     Atomic      Atomic             Coordinates (Angstroms)
 Number     Number       Type             X           Y           Z
 ---------------------------------------------------------------------
      1          6           0       -1.113985    2.242424    1.086318
      2          6           0       -1.544267    2.563158   -0.315154
      3          6           0       -2.162959    1.380402    0.411053
      4          6           0       -1.981771   -0.035209    0.044747
      5          6           0       -2.959944   -1.005214   -0.043217
      6          7           0       -2.397135   -2.213784   -0.328043
      7          7           0       -1.116033   -2.078535   -0.429202
      8          7           0       -0.831436   -0.744088   -0.206696
      9          6           0        0.523783   -0.343270   -0.265411
     10          7           0        0.789495    0.639244   -1.045982
     11          8           0        2.086427    1.143391   -1.106106
     12          6           0        2.930936    0.919301    0.025619
     13          6           0        3.160253   -0.559151    0.288437
     14         16           0        1.569597   -1.345451    0.745800
     15          1           0       -1.452582    2.873890    1.902394
     16          1           0       -0.124530    1.822244    1.229325
     17          1           0       -2.188389    3.422675   -0.476467
     18          1           0       -0.847554    2.341641   -1.114298
     19          1           0       -3.179214    1.545280    0.758535
     20          1           0       -4.025483   -0.892468    0.095004
     21          1           0        2.507845    1.411250    0.910739
     22          1           0        3.863504    1.417469   -0.251372
     23          1           0        3.577018   -1.046653   -0.595949
     24          1           0        3.837911   -0.709740    1.133244
 ---------------------------------------------------------------------

 SCF Done:  E(UB3LYP) =  -1003.37489731     A.U. after   33 cycles
 SCF Done:  E(UB3LYP) =  -1003.37489731     a.u. after    1 cycles

 The electronic state is 2-A.
 Alpha  occ. eigenvalues --  -88.74832 -19.05185 -14.27878 -14.23423 -14.22883
 Alpha  occ. eigenvalues --  -14.20796 -10.13889 -10.11801 -10.10296 -10.09865
 Alpha  occ. eigenvalues --  -10.09302 -10.07360 -10.07141 -10.06934  -7.83434
 Alpha  occ. eigenvalues --   -5.79808  -5.79456  -5.78826  -0.97924  -0.96677
 Alpha  occ. eigenvalues --   -0.81975  -0.76503  -0.73451  -0.70927  -0.68182
 Alpha  occ. eigenvalues --   -0.59229  -0.57348  -0.53907  -0.50350  -0.49910
 Alpha  occ. eigenvalues --   -0.49277  -0.42879  -0.42072  -0.39628  -0.38159
 Alpha  occ. eigenvalues --   -0.36851  -0.35908  -0.34921  -0.33875  -0.31418
 Alpha  occ. eigenvalues --   -0.30222  -0.29136  -0.27000  -0.26657  -0.25450
 Alpha  occ. eigenvalues --   -0.22913  -0.22593  -0.21705  -0.20561  -0.20046
 Alpha  occ. eigenvalues --   -0.17088  -0.15201  -0.15117  -0.13045  -0.11213
 Alpha  occ. eigenvalues --    0.04428
 Alpha virt. eigenvalues --    0.07016   0.07073   0.08944   0.09480   0.09666
 Alpha virt. eigenvalues --    0.10156   0.10929   0.11783   0.12758   0.12825
 Alpha virt. eigenvalues --    0.13321   0.13866   0.14241   0.15146   0.15554

  Beta  occ. eigenvalues --  -88.74831 -19.05166 -14.27889 -14.23162 -14.22543
  Beta  occ. eigenvalues --  -14.20713 -10.13662 -10.11743 -10.10154 -10.09830
  Beta  occ. eigenvalues --  -10.09315 -10.07333 -10.07170 -10.06912  -7.83433
  Beta  occ. eigenvalues --   -5.79815  -5.79447  -5.78823  -0.97681  -0.96448
  Beta  occ. eigenvalues --   -0.81666  -0.76413  -0.73137  -0.70808  -0.67945
  Beta  occ. eigenvalues --   -0.59119  -0.56977  -0.53772  -0.50266  -0.49819
  Beta  occ. eigenvalues --   -0.49132  -0.42733  -0.41966  -0.39563  -0.37937
  Beta  occ. eigenvalues --   -0.36731  -0.35828  -0.34477  -0.33681  -0.31226
  Beta  occ. eigenvalues --   -0.29983  -0.28912  -0.26838  -0.26368  -0.25109
  Beta  occ. eigenvalues --   -0.22725  -0.22317  -0.21516  -0.20439  -0.19613
  Beta  occ. eigenvalues --   -0.16654  -0.14982  -0.14844  -0.12375  -0.10518
  Beta virt. eigenvalues --    0.06967   0.07892   0.08812   0.09210   0.09726
  Beta virt. eigenvalues --    0.10315   0.10643   0.11250   0.12582   0.12812
  Beta virt. eigenvalues --    0.13365   0.13546   0.14080   0.14336   0.15222

 Mulliken charges and spin densities:
               1          2
     1  C   -0.033512  -0.312400
     2  C   -0.633027   0.117286
     3  C   -0.014928   0.144067
     4  C    0.125338   0.030436
     5  C   -0.600552  -0.015885
     6  N   -0.113463   0.034120
     7  N   -0.078566   0.118276
     8  N    0.465586  -0.003459
     9  C   -0.048723  -0.054807
    10  N   -0.636575   0.186178
    11  O    0.208215   0.033577
    12  C    0.638930  -0.979510
    13  C   -0.138871  -0.400441
    14  S    0.058739   0.119940
    15  H   -0.014773   0.169922
    16  H    0.220628  -0.076241
    17  H    0.111648   0.010310
    18  H    0.217400   0.004184
    19  H    0.223242   0.015038
    20  H    0.125160   0.000981
    21  H   -0.121297   0.304536
    22  H   -0.677054   0.853487
    23  H    0.261161  -0.038225
    24  H   -0.544706   0.738629
 Sum of Mulliken charges =  -1.00000   1.00000

 Dipole moment (field-independent basis, Debye):
    X=             -4.7322    Y=              2.0521    Z=              0.1396  Tot=              5.1599
 Quadrupole moment (field-independent basis, Debye-Ang):
   XX=           -138.2032   YY=           -123.2021   ZZ=           -112.1232
   XY=            -18.7174   XZ=             -8.0530   YZ=             -2.2191

 Summary of Natural Population Analysis:

                                       Natural Population
                Natural  -----------------------------------------------
    Atom  No    Charge         Core      Valence    Rydberg      Total
 -----------------------------------------------------------------------
      C    1   -0.19169      0.99963     2.18383    0.00822     3.19169
      C    2   -0.19157      0.99962     2.18443    0.00751     3.19157
      C    3   -0.13138      0.99958     2.12114    0.01066     3.13138
      C    4    0.10190      0.99949     1.88806    0.01055     2.89810
      C    5   -0.06094      0.99955     2.04842    0.01298     3.06094
      N    6   -0.13016      0.99975     2.61385    0.01655     3.63016
      N    7   -0.00755      0.99979     2.49352    0.01424     3.50755
      N    8   -0.13298      0.99958     2.61756    0.01584     3.63298
      C    9    0.13073      0.99958     1.84855    0.02115     2.86927
      N   10   -0.04887      0.99956     2.53377    0.01555     3.54887
      O   11   -0.21112      0.99989     3.20137    0.00987     4.21112
      C   12   -0.02563      0.99958     2.01093    0.01512     3.02563
      C   13   -0.26353      0.99959     2.25352    0.01041     3.26353
      S   14    0.13291      4.99955     2.84784    0.01970     7.86709
      H   15    0.09806      0.00000     0.40112    0.00082     0.40194
      H   16    0.11054      0.00000     0.38825    0.00121     0.38946
      H   17    0.09368      0.00000     0.40548    0.00083     0.40632
      H   18    0.12184      0.00000     0.37711    0.00105     0.37816
      H   19    0.10468      0.00000     0.39436    0.00096     0.39532
      H   20    0.09456      0.00000     0.40447    0.00096     0.40544
      H   21    0.08934      0.00000     0.40809    0.00257     0.41066
      H   22    0.10046      0.00000     0.39705    0.00249     0.39954
      H   23    0.10397      0.00000     0.39478    0.00125     0.39603
      H   24    0.11274      0.00000     0.38480    0.00246     0.38726
 =======================================================================
   * Total *    0.00000     17.99474    36.80230    0.20296    55.00000

 Normal termination of Gaussian 16 at Thu Dec 10 10:11:45 2020.
