 Gaussian 16, Revision A.03,

 -----------------------------------------------------------
 # opt freq B3LYP/6-31G(d) empiricaldispersion=gd3bj scf=xqc
 -----------------------------------------------------------

 ------------------------------
 CID_153698690_JID_348_neutraal
 ------------------------------
 Symbolic Z-matrix:
 Charge =  0 Multiplicity = 1

 SCF Done:  E(RB3LYP) =  -468.454294392     A.U. after   15 cycles
 SCF Done:  E(RB3LYP) =  -468.455406829     A.U. after   15 cycles
 SCF Done:  E(RB3LYP) =  -468.457418685     A.U. after   13 cycles
 SCF Done:  E(RB3LYP) =  -468.457697261     A.U. after   13 cycles
 SCF Done:  E(RB3LYP) =  -468.457787336     A.U. after   13 cycles
 SCF Done:  E(RB3LYP) =  -468.457917212     A.U. after   11 cycles
 SCF Done:  E(RB3LYP) =  -468.457938475     A.U. after   10 cycles
 SCF Done:  E(RB3LYP) =  -468.457945901     A.U. after   11 cycles
 SCF Done:  E(RB3LYP) =  -468.457948363     A.U. after    9 cycles
 SCF Done:  E(RB3LYP) =  -468.457950177     A.U. after    9 cycles
 SCF Done:  E(RB3LYP) =  -468.457950726     A.U. after    8 cycles
 SCF Done:  E(RB3LYP) =  -468.457951187     A.U. after    8 cycles
 SCF Done:  E(RB3LYP) =  -468.457951366     A.U. after    8 cycles
 SCF Done:  E(RB3LYP) =  -468.457951414     A.U. after    7 cycles
 Optimization completed.
    -- Stationary point found.
 Normal termination of Gaussian 16 at Tue Dec  8 10:25:49 2020.

 --------------------------------------------------------------------
 #N Geom=AllCheck Guess=TCheck SCRF=Check GenChk RB3LYP/6-31G(d) Freq
 --------------------------------------------------------------------

 Structure from the checkpoint file:  "JID_348.chk"
 ------------------------------
 CID_153698690_JID_348_neutraal
 ------------------------------
 Charge =  0 Multiplicity = 1

 SCF Done:  E(RB3LYP) =  -468.457951414     A.U. after    1 cycles

  Exact polarizability:  80.237  -6.291  84.972  -5.538  -6.293  67.082
 Approx polarizability: 116.835  -9.775 150.939  -8.317 -35.197 124.757

                      1                      2                      3
                      A                      A                      A
 Frequencies --     36.5171                65.5377               120.4200
 Red. masses --      7.4137                 5.3544                 3.6088
 Frc consts  --      0.0058                 0.0136                 0.0308
 IR Inten    --      0.2893                 1.9319                 2.1190

                      4                      5                      6
                      A                      A                      A
 Frequencies --    147.1469               187.4751               250.8844
 Red. masses --      1.2513                 5.7421                 3.1533
 Frc consts  --      0.0160                 0.1189                 0.1169
 IR Inten    --      0.9020                 3.9865                 3.9689

                      7                      8                      9
                      A                      A                      A
 Frequencies --    300.4629               392.9613               440.4735
 Red. masses --      2.2843                 3.6458                 3.7096
 Frc consts  --      0.1215                 0.3317                 0.4241
 IR Inten    --      3.4717                 4.8982                 0.5111

                     10                     11                     12
                      A                      A                      A
 Frequencies --    576.8770               631.3723               645.7757
 Red. masses --     13.2651                 4.1936                 6.2181
 Frc consts  --      2.6009                 0.9849                 1.5278
 IR Inten    --     14.4052                 0.2278                19.2223

                     13                     14                     15
                      A                      A                      A
 Frequencies --    677.0970               697.5311               722.2604
 Red. masses --      3.8993                 3.9988                 1.3942
 Frc consts  --      1.0533                 1.1463                 0.4285
 IR Inten    --      8.5388                16.1880                19.9195

                     16                     17                     18
                      A                      A                      A
 Frequencies --    788.4111               853.3870               903.4232
 Red. masses --      4.9761                 1.3063                 6.4419
 Frc consts  --      1.8224                 0.5605                 3.0978
 IR Inten    --     17.2119                 4.2578                66.2541

                     19                     20                     21
                      A                      A                      A
 Frequencies --    931.0924              1007.6494              1026.3909
 Red. masses --      5.2805                 1.6151                 2.0137
 Frc consts  --      2.6972                 0.9662                 1.2499
 IR Inten    --      6.6589                16.3686                 2.6336

                     22                     23                     24
                      A                      A                      A
 Frequencies --   1077.4680              1108.7990              1171.0928
 Red. masses --      1.4577                 1.3488                 2.1728
 Frc consts  --      0.9970                 0.9770                 1.7557
 IR Inten    --      1.3134                14.6190                 3.9849

                     25                     26                     27
                      A                      A                      A
 Frequencies --   1199.2870              1272.6597              1298.2176
 Red. masses --      2.6534                 2.0138                 3.6029
 Frc consts  --      2.2485                 1.9217                 3.5776
 IR Inten    --     19.5553                39.6407               164.0404

                     28                     29                     30
                      A                      A                      A
 Frequencies --   1321.6083              1414.7369              1416.7941
 Red. masses --      2.7321                 2.0103                 1.9047
 Frc consts  --      2.8116                 2.3706                 2.2526
 IR Inten    --     87.6130                21.2251                19.7462

                     31                     32                     33
                      A                      A                      A
 Frequencies --   1437.9453              1461.7590              1511.3074
 Red. masses --      1.2377                 2.4138                 1.2286
 Frc consts  --      1.5078                 3.0388                 1.6533
 IR Inten    --      1.8565                59.0281                 2.4077

                     34                     35                     36
                      A                      A                      A
 Frequencies --   1517.4342              1524.1416              1548.1076
 Red. masses --      1.0597                 1.3243                 2.4409
 Frc consts  --      1.4376                 1.8126                 3.4467
 IR Inten    --     12.3326                 1.4310                17.2389

                     37                     38                     39
                      A                      A                      A
 Frequencies --   1594.4782              2265.5668              3046.4431
 Red. masses --      5.4718                13.6342                 1.0412
 Frc consts  --      8.1963                41.2320                 5.6932
 IR Inten    --     23.6024               357.5014                22.6442

                     40                     41                     42
                      A                      A                      A
 Frequencies --   3090.7399              3097.2001              3164.5917
 Red. masses --      1.0648                 1.1005                 1.1019
 Frc consts  --      5.9932                 6.2199                 6.5015
 IR Inten    --     33.3039                12.4465                10.0939

                     43                     44                     45
                      A                      A                      A
 Frequencies --   3166.4250              3263.7664              3291.9279
 Red. masses --      1.0982                 1.0916                 1.1045
 Frc consts  --      6.4874                 6.8511                 7.0520
 IR Inten    --      1.5583                 6.7258                 3.0084

 - Thermochemistry -
 -------------------
 Temperature   298.150 Kelvin.  Pressure   1.00000 Atm.
 Atom     1 has atomic number  6 and mass  12.00000

 Molecular mass:   137.07015 amu.
 Principal axes and moments of inertia in atomic units:
                           1         2         3
     Eigenvalues --   821.283601653.525081914.13099
           X            0.99978  -0.00636  -0.01987
           Y            0.00747   0.99838   0.05634
           Z            0.01948  -0.05648   0.99821
 This molecule is an asymmetric top.
 Rotational symmetry number  1.
 Warning -- assumption of classical behavior for rotation
           may cause significant error
 Rotational temperatures (Kelvin)      0.10546     0.05238     0.04525
 Rotational constants (GHZ):           2.19746     1.09145     0.94285
 Zero-point vibrational energy     344917.1 (Joules/Mol)
                                   82.43718 (Kcal/Mol)
 Warning -- explicit consideration of  10 degrees of freedom as
           vibrations may cause significant error
 Vibrational temperatures:     52.54    94.29   173.26   211.71   269.73
          (Kelvin)            360.97   432.30   565.38   633.74   830.00
                              908.40   929.13   974.19  1003.59  1039.17
                             1134.35  1227.83  1299.82  1339.63  1449.78
                             1476.75  1550.24  1595.31  1684.94  1725.51
                             1831.07  1867.85  1901.50  2035.49  2038.45
                             2068.88  2103.15  2174.43  2183.25  2192.90
                             2227.38  2294.10  3259.65  4383.15  4446.89
                             4456.18  4553.14  4555.78  4695.83  4736.35

 Zero-point correction=                           0.131372 (Hartree/Particle)
 Thermal correction to Energy=                    0.140567
 Thermal correction to Enthalpy=                  0.141511
 Thermal correction to Gibbs Free Energy=         0.095824
 Sum of electronic and zero-point Energies=           -468.326579
 Sum of electronic and thermal Energies=              -468.317385
 Sum of electronic and thermal Enthalpies=            -468.316441
 Sum of electronic and thermal Free Energies=         -468.362128

                     E (Thermal)             CV                S
                      KCal/Mol        Cal/Mol-Kelvin    Cal/Mol-Kelvin
 Total                   88.207             32.462             96.156
 Electronic               0.000              0.000              0.000
 Translational            0.889              2.981             40.658
 Rotational               0.889              2.981             29.343
 Vibrational             86.429             26.500             26.156
 Vibration     1          0.594              1.982              5.440
 Vibration     2          0.597              1.971              4.283
 Vibration     3          0.609              1.932              3.094
 Vibration     4          0.617              1.906              2.709
 Vibration     5          0.632              1.857              2.253
 Vibration     6          0.663              1.761              1.724
 Vibration     7          0.693              1.673              1.414
 Vibration     8          0.760              1.485              0.989
 Vibration     9          0.800              1.382              0.825
 Vibration    10          0.933              1.081              0.491

 Optimization completed.
    -- Stationary point found.
 Normal termination of Gaussian 16 at Tue Dec  8 10:28:28 2020.

 ----------------------------------------------------------------------
 # B3LYP/6-311++G(d,p) empiricaldispersion=gd3bj scf=xqc pop=npa geom=c
 heck
 ----------------------------------------------------------------------

 --------------------------------------
 CID_153698690_JID_348_Energie_neutraal
 --------------------------------------
 Structure from the checkpoint file:  "JID_348.chk"
 Charge =  0 Multiplicity = 1

 SCF Done:  E(RB3LYP) =  -468.585961658     A.U. after   15 cycles
 Normal termination of Gaussian 16 at Tue Dec  8 10:29:10 2020.

 ----------------------------------------------------------------------
 # B3LYP/6-311++G(d,p) empiricaldispersion=gd3bj scf=xqc pop=npa geom=c
 heck
 ----------------------------------------------------------------------

 ------------------------------------
 CID_153698690_JID_348_Energie_kation
 ------------------------------------
 Structure from the checkpoint file:  "JID_348.chk"
 Charge =  1 Multiplicity = 2

 SCF Done:  E(UB3LYP) =  -468.267439945     A.U. after   28 cycles
 Normal termination of Gaussian 16 at Tue Dec  8 10:31:10 2020.
 Gaussian 16:  ES64L-G16RevA.03 25-Dec-2016

 ----------------------------------------------------------------------
 # B3LYP/6-311++G(d,p) empiricaldispersion=gd3bj scf=xqc pop=npa geom=c
 heck
 ----------------------------------------------------------------------

 -----------------------------------
 CID_153698690_JID_348_Energie_anion
 -----------------------------------
 Structure from the checkpoint file:  "JID_348.chk"
 Charge = -1 Multiplicity = 2

                         Standard orientation:
 ---------------------------------------------------------------------
 Center     Atomic      Atomic             Coordinates (Angstroms)
 Number     Number       Type             X           Y           Z
 ---------------------------------------------------------------------
      1          6           0        0.516005    2.077041    0.603753
      2          6           0        1.034240    0.746980    0.162118
      3          7           0        2.109301    0.555383   -0.571999
      4          6           0        2.216570   -0.811592   -0.743635
      5          6           0        1.198433   -1.459705   -0.102346
      6          7           0        0.440280   -0.458811    0.492039
      7          6           0       -0.795136   -0.656689    1.205861
      8          7           0       -1.959918   -0.934151    0.333657
      9          7           0       -2.182442   -0.060983   -0.516078
     10          7           0       -2.473543    0.667301   -1.343514
     11          1           0        0.462300    2.161463    1.696463
     12          1           0       -0.480539    2.292830    0.200389
     13          1           0        1.203772    2.840206    0.235733
     14          1           0        3.026554   -1.242034   -1.316071
     15          1           0        0.928342   -2.500656   -0.007865
     16          1           0       -0.714379   -1.532440    1.849440
     17          1           0       -0.982466    0.223256    1.828679
 ---------------------------------------------------------------------

 SCF Done:  E(UB3LYP) =  -468.582366878     A.U. after   27 cycles

 The electronic state is 2-A.
 Alpha  occ. eigenvalues --  -14.31387 -14.25462 -14.22049 -14.21412 -14.18046
 Alpha  occ. eigenvalues --  -10.12652 -10.11960 -10.08538 -10.07361 -10.06745
 Alpha  occ. eigenvalues --   -0.98949  -0.90719  -0.83526  -0.76985  -0.66848
 Alpha  occ. eigenvalues --   -0.61969  -0.58126  -0.49353  -0.46716  -0.42539
 Alpha  occ. eigenvalues --   -0.40240  -0.38011  -0.35442  -0.33998  -0.33541
 Alpha  occ. eigenvalues --   -0.32130  -0.30571  -0.29715  -0.29133  -0.28229
 Alpha  occ. eigenvalues --   -0.27389  -0.18872  -0.16404  -0.15798  -0.12047
 Alpha  occ. eigenvalues --   -0.11735   0.05086
 Alpha virt. eigenvalues --    0.08181   0.08455   0.09364   0.10883   0.11488
 Alpha virt. eigenvalues --    0.11812   0.13168   0.13607   0.14555   0.14946
 Alpha virt. eigenvalues --    0.15376   0.15783   0.17260   0.17836   0.18746

  Beta  occ. eigenvalues --  -14.31044 -14.25464 -14.21550 -14.21485 -14.18042
  Beta  occ. eigenvalues --  -10.12484 -10.11952 -10.08520 -10.07362 -10.06723
  Beta  occ. eigenvalues --   -0.98268  -0.90687  -0.83207  -0.76920  -0.66816
  Beta  occ. eigenvalues --   -0.61726  -0.58048  -0.49319  -0.46522  -0.42456
  Beta  occ. eigenvalues --   -0.39974  -0.37192  -0.35199  -0.33864  -0.33110
  Beta  occ. eigenvalues --   -0.31674  -0.29828  -0.29506  -0.28989  -0.28191
  Beta  occ. eigenvalues --   -0.27115  -0.18411  -0.16389  -0.15300  -0.11952
  Beta  occ. eigenvalues --   -0.11658
  Beta virt. eigenvalues --    0.08319   0.08829   0.09788   0.10935   0.11536
  Beta virt. eigenvalues --    0.12260   0.12332   0.13852   0.13982   0.14718
  Beta virt. eigenvalues --    0.15132   0.15437   0.16002   0.17243   0.17883

 Mulliken charges and spin densities:
               1          2
     1  C    1.019880  -1.748780
     2  C   -0.814573   0.793515
     3  N   -0.167486   0.040310
     4  C    0.193405  -0.231164
     5  C   -0.177250   0.086642
     6  N   -0.104297   0.232478
     7  C    1.465329  -1.894728
     8  N   -1.159369   0.779623
     9  N    0.741632  -0.153134
    10  N    0.058389  -0.126702
    11  H   -0.257965   0.426797
    12  H    0.142508   0.014511
    13  H    0.155760   0.000327
    14  H    0.087652   0.052001
    15  H   -0.394463   0.543281
    16  H   -1.206900   1.451284
    17  H   -0.582253   0.733739
 Sum of Mulliken charges =  -1.00000   1.00000

 Dipole moment (field-independent basis, Debye):
    X=              3.0782    Y=              1.5418    Z=             -3.0576  Tot=              4.6045
 Quadrupole moment (field-independent basis, Debye-Ang):
   XX=            -94.1080   YY=            -84.1837   ZZ=            -94.4012
   XY=             -4.9739   XZ=              0.1838   YZ=              7.7786

 Summary of Natural Population Analysis:

                                       Natural Population
                Natural  -----------------------------------------------
    Atom  No    Charge         Core      Valence    Rydberg      Total
 -----------------------------------------------------------------------
      C    1   -0.31078      0.99962     2.30581    0.00535     3.31078
      C    2    0.20023      0.99961     1.78278    0.01738     2.79977
      N    3   -0.26662      0.99969     2.75749    0.00944     3.76662
      C    4   -0.04026      0.99958     2.02702    0.01366     3.04026
      C    5   -0.02882      0.99954     2.01744    0.01184     3.02882
      N    6   -0.22001      0.99962     2.70718    0.01321     3.72001
      C    7    0.01211      0.99958     1.97292    0.01539     2.98789
      N    8   -0.22225      0.99972     2.70763    0.01491     3.72225
      N    9    0.13963      0.99970     2.34450    0.01617     3.36037
      N   10    0.00575      0.99982     2.48154    0.01289     3.49425
      H   11    0.10792      0.00000     0.39075    0.00133     0.39208
      H   12    0.11091      0.00000     0.38815    0.00094     0.38909
      H   13    0.11156      0.00000     0.38752    0.00091     0.38844
      H   14    0.09265      0.00000     0.40652    0.00083     0.40735
      H   15    0.10606      0.00000     0.39291    0.00103     0.39394
      H   16    0.10508      0.00000     0.38650    0.00842     0.39492
      H   17    0.09682      0.00000     0.39920    0.00398     0.40318
 =======================================================================
   * Total *   -0.00000      9.99648    25.85585    0.14767    36.00000

 Normal termination of Gaussian 16 at Tue Dec  8 10:33:51 2020.
