 Gaussian 16, Revision A.03,

 -----------------------------------------------------------
 # opt freq B3LYP/6-31G(d) empiricaldispersion=gd3bj scf=xqc
 -----------------------------------------------------------

 -------------------------------
 CID_104681422_JID_4115_neutraal
 -------------------------------
 Symbolic Z-matrix:
 Charge =  0 Multiplicity = 1

 SCF Done:  E(RB3LYP) =  -635.783944868     A.U. after   15 cycles
 SCF Done:  E(RB3LYP) =  -635.802362619     A.U. after   12 cycles
 SCF Done:  E(RB3LYP) =  -635.802865140     A.U. after   13 cycles
 SCF Done:  E(RB3LYP) =  -635.798318985     A.U. after   14 cycles
 SCF Done:  E(RB3LYP) =  -635.802322763     A.U. after   12 cycles
 SCF Done:  E(RB3LYP) =  -635.803659053     A.U. after   10 cycles
 SCF Done:  E(RB3LYP) =  -635.803534574     A.U. after   12 cycles
 SCF Done:  E(RB3LYP) =  -635.803886016     A.U. after   12 cycles
 SCF Done:  E(RB3LYP) =  -635.804015475     A.U. after   12 cycles
 SCF Done:  E(RB3LYP) =  -635.804070572     A.U. after   11 cycles
 SCF Done:  E(RB3LYP) =  -635.804117954     A.U. after    8 cycles
 SCF Done:  E(RB3LYP) =  -635.804117802     A.U. after    8 cycles
 SCF Done:  E(RB3LYP) =  -635.804118172     A.U. after    7 cycles
 SCF Done:  E(RB3LYP) =  -635.804118210     A.U. after    6 cycles
 Optimization completed.
    -- Stationary point found.
 Normal termination of Gaussian 16 at Thu Dec 10 09:20:39 2020.

 --------------------------------------------------------------------
 #N Geom=AllCheck Guess=TCheck SCRF=Check GenChk RB3LYP/6-31G(d) Freq
 --------------------------------------------------------------------

 Structure from the checkpoint file:  "JID_4115.chk"
 -------------------------------
 CID_104681422_JID_4115_neutraal
 -------------------------------
 Charge =  0 Multiplicity = 1

 SCF Done:  E(RB3LYP) =  -635.804118210     A.U. after    1 cycles

  Exact polarizability: 141.326   7.876 121.528   2.216   1.881  99.369
 Approx polarizability: 173.049  18.595 184.737   8.050   2.693 156.536

                      1                      2                      3
                      A                      A                      A
 Frequencies --     30.5157                42.6150                54.2329
 Red. masses --      4.5504                 4.5198                 6.7089
 Frc consts  --      0.0025                 0.0048                 0.0116
 IR Inten    --      0.1704                 0.1749                 1.2318

                      4                      5                      6
                      A                      A                      A
 Frequencies --     62.3308                75.1891                97.9222
 Red. masses --      3.5907                 3.6737                 5.3230
 Frc consts  --      0.0082                 0.0122                 0.0301
 IR Inten    --      0.6826                 2.1422                 1.6377

                      7                      8                      9
                      A                      A                      A
 Frequencies --    134.3033               145.8588               176.2615
 Red. masses --      4.3682                 2.9881                 2.3848
 Frc consts  --      0.0464                 0.0375                 0.0437
 IR Inten    --      0.6821                 1.2750                14.3503

                     10                     11                     12
                      A                      A                      A
 Frequencies --    189.8946               226.5009               257.9249
 Red. masses --      3.7343                 2.7558                 1.4199
 Frc consts  --      0.0793                 0.0833                 0.0557
 IR Inten    --      1.2884                 5.5391                41.9485

                     13                     14                     15
                      A                      A                      A
 Frequencies --    280.8691               325.1759               348.1420
 Red. masses --      2.7204                 2.0037                 2.3674
 Frc consts  --      0.1264                 0.1248                 0.1691
 IR Inten    --      2.6703                 5.7334                 2.3929

                     16                     17                     18
                      A                      A                      A
 Frequencies --    360.7662               393.0893               425.4156
 Red. masses --      2.7880                 2.0020                 3.1366
 Frc consts  --      0.2138                 0.1823                 0.3345
 IR Inten    --      3.0731                 3.2080                 4.1571

                     19                     20                     21
                      A                      A                      A
 Frequencies --    470.1129               492.7601               531.5992
 Red. masses --      2.4951                 3.0544                 2.4520
 Frc consts  --      0.3249                 0.4370                 0.4083
 IR Inten    --      4.2724                 2.5865                22.8793

                     22                     23                     24
                      A                      A                      A
 Frequencies --    553.5859               605.9678               610.1554
 Red. masses --      3.4269                 1.2655                 1.9322
 Frc consts  --      0.6188                 0.2738                 0.4238
 IR Inten    --      5.3599                49.4185                 8.5393

                     25                     26                     27
                      A                      A                      A
 Frequencies --    617.6993               656.2306               720.2784
 Red. masses --      1.5063                 1.4069                 2.0284
 Frc consts  --      0.3386                 0.3570                 0.6200
 IR Inten    --     65.7493                33.1774                24.5347

                     28                     29                     30
                      A                      A                      A
 Frequencies --    745.9378               779.4907               785.1459
 Red. masses --      1.7943                 1.7908                 1.8902
 Frc consts  --      0.5882                 0.6411                 0.6865
 IR Inten    --     77.2367                 6.0508                 0.2999

                     31                     32                     33
                      A                      A                      A
 Frequencies --    845.7516               856.7245               886.6407
 Red. masses --      2.8580                 2.8098                 1.3708
 Frc consts  --      1.2045                 1.2151                 0.6349
 IR Inten    --      6.5814                 4.2115                94.5777

                     34                     35                     36
                      A                      A                      A
 Frequencies --    900.1974               926.0923               941.9480
 Red. masses --      2.1212                 1.9711                 2.2564
 Frc consts  --      1.0128                 0.9960                 1.1796
 IR Inten    --     22.0991                13.1471                 2.4397

                     37                     38                     39
                      A                      A                      A
 Frequencies --    969.9254              1006.1618              1021.2649
 Red. masses --      1.9866                 1.7922                 1.7271
 Frc consts  --      1.1011                 1.0690                 1.0613
 IR Inten    --      2.6906                 7.4743                 0.6369

                     40                     41                     42
                      A                      A                      A
 Frequencies --   1053.8589              1082.0828              1088.7223
 Red. masses --      1.7552                 2.2097                 2.1664
 Frc consts  --      1.1486                 1.5244                 1.5129
 IR Inten    --      1.9487                 3.8739                 9.7145

                     43                     44                     45
                      A                      A                      A
 Frequencies --   1106.0592              1125.4066              1144.1305
 Red. masses --      1.9580                 2.0939                 1.8909
 Frc consts  --      1.4113                 1.5626                 1.4584
 IR Inten    --      0.6871                26.3376                10.2406

                     46                     47                     48
                      A                      A                      A
 Frequencies --   1168.0197              1193.0777              1214.3891
 Red. masses --      1.4983                 1.8246                 1.3075
 Frc consts  --      1.2043                 1.5302                 1.1361
 IR Inten    --     11.0132               166.1881                 2.9321

                     49                     50                     51
                      A                      A                      A
 Frequencies --   1232.6812              1239.0102              1275.0103
 Red. masses --      1.3383                 1.2932                 1.2019
 Frc consts  --      1.1981                 1.1697                 1.1512
 IR Inten    --     35.8907                 5.5390                 4.1736

                     52                     53                     54
                      A                      A                      A
 Frequencies --   1305.0737              1312.3571              1342.9224
 Red. masses --      1.3363                 1.3120                 1.2456
 Frc consts  --      1.3410                 1.3314                 1.3236
 IR Inten    --      2.7310                 0.5727                 0.5985

                     55                     56                     57
                      A                      A                      A
 Frequencies --   1360.4684              1369.5006              1375.9787
 Red. masses --      1.2351                 1.6094                 1.1615
 Frc consts  --      1.3469                 1.7784                 1.2956
 IR Inten    --      3.6694                24.4696                 1.6881

                     58                     59                     60
                      A                      A                      A
 Frequencies --   1383.1829              1393.1743              1406.7343
 Red. masses --      1.5126                 1.4998                 1.3680
 Frc consts  --      1.7051                 1.7151                 1.5950
 IR Inten    --      2.9740                18.4837                 3.9540

                     61                     62                     63
                      A                      A                      A
 Frequencies --   1409.3282              1420.3617              1431.0478
 Red. masses --      1.4640                 1.4276                 1.5258
 Frc consts  --      1.7133                 1.6969                 1.8410
 IR Inten    --      2.0954                 3.1266                 1.4866

                     64                     65                     66
                      A                      A                      A
 Frequencies --   1454.0818              1508.4755              1512.5695
 Red. masses --      1.4050                 1.0816                 1.0841
 Frc consts  --      1.7503                 1.4501                 1.4613
 IR Inten    --      8.8669                 4.3374                 7.3456

                     67                     68                     69
                      A                      A                      A
 Frequencies --   1517.2307              1520.4738              1528.3674
 Red. masses --      1.0872                 1.0936                 1.0825
 Frc consts  --      1.4746                 1.4896                 1.4898
 IR Inten    --      9.3158                 3.2639                 7.0720

                     70                     71                     72
                      A                      A                      A
 Frequencies --   1538.4343              1551.4917              1703.0677
 Red. masses --      1.0876                 1.0819                 1.0861
 Frc consts  --      1.5167                 1.5344                 1.8560
 IR Inten    --      5.6851                 8.0774                30.8154

                     73                     74                     75
                      A                      A                      A
 Frequencies --   1826.8112              2240.7089              3020.7623
 Red. masses --      9.5701                 5.9751                 1.0664
 Frc consts  --     18.8171                17.6752                 5.7335
 IR Inten    --    244.7984                 1.3182                29.1333

                     76                     77                     78
                      A                      A                      A
 Frequencies --   3032.3410              3039.6972              3044.6924
 Red. masses --      1.0779                 1.0622                 1.0616
 Frc consts  --      5.8399                 5.7828                 5.7983
 IR Inten    --      8.5955                11.6164                 7.4528

                     79                     80                     81
                      A                      A                      A
 Frequencies --   3046.5492              3054.5897              3059.9407
 Red. masses --      1.0651                 1.0661                 1.0670
 Frc consts  --      5.8247                 5.8608                 5.8862
 IR Inten    --     21.3308                15.2808                30.8838

                     82                     83                     84
                      A                      A                      A
 Frequencies --   3070.5238              3072.1806              3076.0151
 Red. masses --      1.0933                 1.0956                 1.0835
 Frc consts  --      6.0732                 6.0923                 6.0400
 IR Inten    --     29.5436                31.3028                18.6380

                     85                     86                     87
                      A                      A                      A
 Frequencies --   3079.9955              3090.1209              3096.8412
 Red. masses --      1.0784                 1.1033                 1.1005
 Frc consts  --      6.0273                 6.2072                 6.2183
 IR Inten    --     38.3831                61.6097                66.6771

                     88                     89                     90
                      A                      A                      A
 Frequencies --   3100.7611              3119.9888              3465.2914
 Red. masses --      1.0997                 1.1023                 1.0502
 Frc consts  --      6.2298                 6.3222                 7.4303
 IR Inten    --     19.0524                27.9480                 2.2932

                     91                     92                     93
                      A                      A                      A
 Frequencies --   3496.3696              3545.6620              3679.1135
 Red. masses --      1.1599                 1.0916                 1.0639
 Frc consts  --      8.3545                 8.0852                 8.4846
 IR Inten    --     55.9111                 1.3498                47.3865

 - Thermochemistry -
 -------------------
 Temperature   298.150 Kelvin.  Pressure   1.00000 Atm.
 Atom     1 has atomic number  6 and mass  12.00000

 Molecular mass:   197.14158 amu.
 Principal axes and moments of inertia in atomic units:
                           1         2         3
     Eigenvalues --  1575.560805072.654055841.20704
           X            1.00000   0.00041   0.00268
           Y           -0.00045   0.99992   0.01274
           Z           -0.00268  -0.01274   0.99992
 This molecule is an asymmetric top.
 Rotational symmetry number  1.
 Warning -- assumption of classical behavior for rotation
           may cause significant error
 Rotational temperatures (Kelvin)      0.05497     0.01707     0.01483
 Rotational constants (GHZ):           1.14546     0.35578     0.30897
 Zero-point vibrational energy     766067.0 (Joules/Mol)
                                  183.09441 (Kcal/Mol)
 Warning -- explicit consideration of  25 degrees of freedom as
           vibrations may cause significant error
 Vibrational temperatures:     43.91    61.31    78.03    89.68   108.18
          (Kelvin)            140.89   193.23   209.86   253.60   273.22
                              325.88   371.10   404.11   467.86   500.90
                              519.06   565.57   612.08   676.39   708.97
                              764.85   796.49   871.85   877.88   888.73
                              944.17  1036.32  1073.24  1121.51  1129.65
                             1216.85  1232.64  1275.68  1295.18  1332.44
                             1355.25  1395.51  1447.64  1469.37  1516.27
                             1556.88  1566.43  1591.37  1619.21  1646.15
                             1680.52  1716.57  1747.24  1773.55  1782.66
                             1834.46  1877.71  1888.19  1932.17  1957.41
                             1970.41  1979.73  1990.09  2004.47  2023.98
                             2027.71  2043.58  2058.96  2092.10  2170.36
                             2176.25  2182.96  2187.62  2198.98  2213.46
                             2232.25  2450.33  2628.37  3223.88  4346.20
                             4362.86  4373.45  4380.63  4383.30  4394.87
                             4402.57  4417.80  4420.18  4425.70  4431.43
                             4445.99  4455.66  4461.30  4488.97  4985.78
                             5030.50  5101.42  5293.42

 Zero-point correction=                           0.291780 (Hartree/Particle)
 Thermal correction to Energy=                    0.307795
 Thermal correction to Enthalpy=                  0.308740
 Thermal correction to Gibbs Free Energy=         0.247231
 Sum of electronic and zero-point Energies=           -635.512339
 Sum of electronic and thermal Energies=              -635.496323
 Sum of electronic and thermal Enthalpies=            -635.495379
 Sum of electronic and thermal Free Energies=         -635.556887

                     E (Thermal)             CV                S
                      KCal/Mol        Cal/Mol-Kelvin    Cal/Mol-Kelvin
 Total                  193.145             59.059            129.455
 Electronic               0.000              0.000              0.000
 Translational            0.889              2.981             41.741
 Rotational               0.889              2.981             32.212
 Vibrational            191.367             53.097             55.502
 Vibration     1          0.594              1.984              5.796
 Vibration     2          0.595              1.980              5.134
 Vibration     3          0.596              1.976              4.657
 Vibration     4          0.597              1.972              4.382
 Vibration     5          0.599              1.966              4.013
 Vibration     6          0.603              1.951              3.495
 Vibration     7          0.613              1.919              2.883
 Vibration     8          0.617              1.907              2.726
 Vibration     9          0.628              1.872              2.368
 Vibration    10          0.633              1.854              2.229
 Vibration    11          0.650              1.801              1.907
 Vibration    12          0.667              1.749              1.676
 Vibration    13          0.681              1.709              1.528
 Vibration    14          0.709              1.625              1.284
 Vibration    15          0.726              1.579              1.175
 Vibration    16          0.735              1.553              1.119
 Vibration    17          0.760              1.485              0.988
 Vibration    18          0.787              1.415              0.874
 Vibration    19          0.827              1.316              0.737
 Vibration    20          0.848              1.266              0.676
 Vibration    21          0.887              1.180              0.584
 Vibration    22          0.909              1.132              0.537
 Vibration    23          0.965              1.019              0.440
 Vibration    24          0.969              1.010              0.433
 Vibration    25          0.977              0.994              0.420

 Optimization completed.
    -- Stationary point found.
 Normal termination of Gaussian 16 at Thu Dec 10 09:29:46 2020.

 ----------------------------------------------------------------------
 # B3LYP/6-311++G(d,p) empiricaldispersion=gd3bj scf=xqc pop=npa geom=c
 heck
 ----------------------------------------------------------------------

 ---------------------------------------
 CID_104681422_JID_4115_Energie_neutraal
 ---------------------------------------
 Structure from the checkpoint file:  "JID_4115.chk"
 Charge =  0 Multiplicity = 1

 SCF Done:  E(RB3LYP) =  -636.006817671     A.U. after   15 cycles
 Normal termination of Gaussian 16 at Thu Dec 10 09:33:35 2020.

 ----------------------------------------------------------------------
 # B3LYP/6-311++G(d,p) empiricaldispersion=gd3bj scf=xqc pop=npa geom=c
 heck
 ----------------------------------------------------------------------

 -------------------------------------
 CID_104681422_JID_4115_Energie_kation
 -------------------------------------
 Structure from the checkpoint file:  "JID_4115.chk"
 Charge =  1 Multiplicity = 2

 SCF Done:  E(UB3LYP) =  -635.681421352     A.U. after   33 cycles
 SCF Done:  E(UB3LYP) =  -635.686180566     a.u. after    9 cycles
 Normal termination of Gaussian 16 at Thu Dec 10 10:47:00 2020.
 Gaussian 16:  ES64L-G16RevA.03 25-Dec-2016

 ----------------------------------------------------------------------
 # B3LYP/6-311++G(d,p) empiricaldispersion=gd3bj scf=xqc pop=npa geom=c
 heck
 ----------------------------------------------------------------------

 ------------------------------------
 CID_104681422_JID_4115_Energie_anion
 ------------------------------------
 Structure from the checkpoint file:  "JID_4115.chk"
 Charge = -1 Multiplicity = 2

                         Standard orientation:
 ---------------------------------------------------------------------
 Center     Atomic      Atomic             Coordinates (Angstroms)
 Number     Number       Type             X           Y           Z
 ---------------------------------------------------------------------
      1          6           0        4.669080    0.728050   -0.473502
      2          6           0        3.954852   -0.245730   -0.468064
      3          6           0        3.061053   -1.402937   -0.438188
      4          6           0        2.108440   -1.403962    0.778548
      5          6           0        1.295701   -0.114117    0.949041
      6          6           0        0.454206    0.266280   -0.279293
      7          6           0       -0.542026   -0.825535   -0.745085
      8          6           0       -1.459887   -1.410762    0.339903
      9          6           0       -2.477952   -0.447475    0.969388
     10          6           0       -3.511516    0.120831   -0.009872
     11          7           0       -4.265389   -0.962607   -0.662495
     12          6           0       -0.254466    1.605577   -0.151663
     13          8           0       -0.945419    2.098531   -1.019225
     14          8           0       -0.035490    2.239395    1.027332
     15          1           0        5.311043    1.579021   -0.485215
     16          1           0        2.478466   -1.430847   -1.368693
     17          1           0        3.654671   -2.326189   -0.428601
     18          1           0        1.445740   -2.272184    0.684564
     19          1           0        2.701876   -1.558993    1.686910
     20          1           0        0.650088   -0.213215    1.827850
     21          1           0        1.984950    0.707139    1.166335
     22          1           0        1.138904    0.435466   -1.122395
     23          1           0       -1.134679   -0.405682   -1.564984
     24          1           0        0.041388   -1.646382   -1.179194
     25          1           0       -2.007888   -2.256266   -0.095128
     26          1           0       -0.847019   -1.843297    1.140079
     27          1           0       -3.017002   -0.992458    1.753713
     28          1           0       -1.959243    0.384664    1.462889
     29          1           0       -4.229804    0.721625    0.560856
     30          1           0       -3.020402    0.805825   -0.717000
     31          1           0       -5.059026   -0.563991   -1.161556
     32          1           0       -3.684371   -1.390853   -1.381882
     33          1           0       -0.527608    3.080140    0.966779
 ---------------------------------------------------------------------

 SCF Done:  E(UB3LYP) =  -635.994989933     A.U. after   33 cycles
 SCF Done:  E(UB3LYP) =  -635.994989933     a.u. after    1 cycles

 The electronic state is 2-A.
 Alpha  occ. eigenvalues --  -19.07560 -19.01677 -14.19624 -10.20795 -10.09927
 Alpha  occ. eigenvalues --  -10.09313 -10.08807 -10.08391 -10.07976 -10.07340
 Alpha  occ. eigenvalues --  -10.07126 -10.06978 -10.06729 -10.06407  -1.01536
 Alpha  occ. eigenvalues --   -0.92360  -0.78541  -0.73802  -0.70502  -0.67010
 Alpha  occ. eigenvalues --   -0.64217  -0.60747  -0.58622  -0.54382  -0.51240
 Alpha  occ. eigenvalues --   -0.48717  -0.45033  -0.43835  -0.41195  -0.40703
 Alpha  occ. eigenvalues --   -0.39367  -0.39009  -0.37388  -0.36221  -0.35329
 Alpha  occ. eigenvalues --   -0.34259  -0.33272  -0.32417  -0.31294  -0.30216
 Alpha  occ. eigenvalues --   -0.29084  -0.28446  -0.26951  -0.26153  -0.25831
 Alpha  occ. eigenvalues --   -0.24912  -0.23249  -0.22490  -0.22061  -0.21730
 Alpha  occ. eigenvalues --   -0.18563  -0.18179  -0.18005  -0.14781   0.04171
 Alpha virt. eigenvalues --    0.05980   0.06300   0.07212   0.07699   0.08468
 Alpha virt. eigenvalues --    0.08979   0.09184   0.09945   0.10555   0.11112
 Alpha virt. eigenvalues --    0.11296   0.11481   0.12051   0.12690   0.13032

  Beta  occ. eigenvalues --  -19.07522 -19.01658 -14.19596 -10.20770 -10.09889
  Beta  occ. eigenvalues --  -10.09305 -10.08796 -10.08393 -10.07953 -10.07316
  Beta  occ. eigenvalues --  -10.07116 -10.06957 -10.06714 -10.06396  -1.01470
  Beta  occ. eigenvalues --   -0.92309  -0.78496  -0.73765  -0.70458  -0.66972
  Beta  occ. eigenvalues --   -0.64179  -0.60696  -0.58557  -0.54314  -0.51165
  Beta  occ. eigenvalues --   -0.48664  -0.44973  -0.43786  -0.41158  -0.40657
  Beta  occ. eigenvalues --   -0.39327  -0.38963  -0.37336  -0.36182  -0.35278
  Beta  occ. eigenvalues --   -0.34206  -0.33220  -0.32370  -0.31264  -0.30185
  Beta  occ. eigenvalues --   -0.29045  -0.28403  -0.26925  -0.26113  -0.25798
  Beta  occ. eigenvalues --   -0.24883  -0.23191  -0.22462  -0.22034  -0.21684
  Beta  occ. eigenvalues --   -0.18527  -0.18135  -0.17976  -0.14750
  Beta virt. eigenvalues --    0.06260   0.06889   0.07055   0.07694   0.08213
  Beta virt. eigenvalues --    0.08955   0.09241   0.09551   0.10260   0.10787
  Beta virt. eigenvalues --    0.11342   0.11377   0.11703   0.12207   0.12900

 Mulliken charges and spin densities:
               1          2
     1  C   -0.708530   0.360874
     2  C    2.549232  -2.352945
     3  C   -1.398521   1.036741
     4  C    0.078200  -0.692688
     5  C   -0.309698   0.106909
     6  C    0.620005  -0.014507
     7  C    0.045491  -0.487962
     8  C   -0.248228  -0.305699
     9  C   -0.202658   0.176880
    10  C    0.430046  -1.004038
    11  N   -0.469606   0.100988
    12  C    0.232909  -0.775026
    13  O   -0.239308   0.029941
    14  O   -0.136403   0.053163
    15  H   -0.364040   0.539852
    16  H   -0.079485   0.228787
    17  H   -0.611665   0.830539
    18  H   -0.266288   0.403788
    19  H   -0.149627   0.324740
    20  H   -0.086932   0.295358
    21  H    0.243538  -0.073464
    22  H    0.207769   0.039000
    23  H    0.118498   0.085640
    24  H   -0.207288   0.374683
    25  H   -0.052692   0.233141
    26  H    0.089978   0.026519
    27  H   -0.092041   0.268900
    28  H    0.184328  -0.032096
    29  H   -0.066244   0.209787
    30  H    0.054736   0.116397
    31  H    0.001991   0.236766
    32  H    0.051873   0.161384
    33  H   -0.219339   0.497648
 Sum of Mulliken charges =  -1.00000   1.00000

 Dipole moment (field-independent basis, Debye):
    X=             -0.8340    Y=              1.5828    Z=              0.7737  Tot=              1.9492
 Quadrupole moment (field-independent basis, Debye-Ang):
   XX=           -168.4323   YY=           -136.3025   ZZ=           -117.8276
   XY=              4.9222   XZ=              0.9314   YZ=             -0.7617

 Summary of Natural Population Analysis:

                                       Natural Population
                Natural  -----------------------------------------------
    Atom  No    Charge         Core      Valence    Rydberg      Total
 -----------------------------------------------------------------------
      C    1   -0.13030      0.99926     2.12729    0.00375     3.13030
      C    2    0.00626      0.99937     1.98635    0.00802     2.99374
      C    3   -0.23500      0.99956     2.22551    0.00992     3.23500
      C    4   -0.18200      0.99962     2.17294    0.00943     3.18200
      C    5   -0.19529      0.99961     2.18702    0.00866     3.19529
      C    6   -0.15897      0.99953     2.14781    0.01163     3.15897
      C    7   -0.19049      0.99961     2.18083    0.01005     3.19049
      C    8   -0.19615      0.99962     2.18735    0.00919     3.19615
      C    9   -0.19539      0.99962     2.18802    0.00775     3.19539
      C   10   -0.09454      0.99963     2.08504    0.00987     3.09454
      N   11   -0.42505      0.99977     2.91525    0.01003     3.92505
      C   12    0.41600      0.99967     1.55743    0.02689     2.58400
      O   13   -0.31349      0.99987     3.30739    0.00623     4.31349
      O   14   -0.34386      0.99988     3.33738    0.00660     4.34386
      H   15    0.11034      0.00000     0.38847    0.00118     0.38966
      H   16    0.11224      0.00000     0.38599    0.00177     0.38776
      H   17    0.11760      0.00000     0.37999    0.00241     0.38240
      H   18    0.10068      0.00000     0.39769    0.00163     0.39932
      H   19    0.10001      0.00000     0.39884    0.00116     0.39999
      H   20    0.10379      0.00000     0.39488    0.00133     0.39621
      H   21    0.10943      0.00000     0.38908    0.00149     0.39057
      H   22    0.11762      0.00000     0.38037    0.00201     0.38238
      H   23    0.10604      0.00000     0.39257    0.00139     0.39396
      H   24    0.10171      0.00000     0.39687    0.00142     0.39829
      H   25    0.10050      0.00000     0.39823    0.00128     0.39950
      H   26    0.09776      0.00000     0.40080    0.00144     0.40224
      H   27    0.09860      0.00000     0.40006    0.00133     0.40140
      H   28    0.09706      0.00000     0.40111    0.00183     0.40294
      H   29    0.08792      0.00000     0.41075    0.00133     0.41208
      H   30    0.08990      0.00000     0.40811    0.00199     0.41010
      H   31    0.17373      0.00000     0.32465    0.00162     0.32627
      H   32    0.17193      0.00000     0.32624    0.00183     0.32807
      H   33    0.24140      0.00000     0.25211    0.00649     0.25860
 =======================================================================
   * Total *    0.00000     13.99462    39.83244    0.17294    54.00000

 Normal termination of Gaussian 16 at Thu Dec 10 10:59:18 2020.
