 Gaussian 16, Revision A.03,

 -----------------------------------------------------------
 # opt freq B3LYP/6-31G(d) empiricaldispersion=gd3bj scf=xqc
 -----------------------------------------------------------

 ------------------------------
 CID_60913339_JID_1113_neutraal
 ------------------------------
 Symbolic Z-matrix:
 Charge =  0 Multiplicity = 1

 SCF Done:  E(RB3LYP) =  -479.362458715     A.U. after   14 cycles
 SCF Done:  E(RB3LYP) =  -479.368829576     A.U. after   13 cycles
 SCF Done:  E(RB3LYP) =  -479.369342993     A.U. after   12 cycles
 SCF Done:  E(RB3LYP) =  -479.369591544     A.U. after   11 cycles
 SCF Done:  E(RB3LYP) =  -479.369729243     A.U. after   12 cycles
 SCF Done:  E(RB3LYP) =  -479.369821528     A.U. after   10 cycles
 SCF Done:  E(RB3LYP) =  -479.369827831     A.U. after    9 cycles
 SCF Done:  E(RB3LYP) =  -479.369833241     A.U. after    8 cycles
 SCF Done:  E(RB3LYP) =  -479.369835099     A.U. after    8 cycles
 SCF Done:  E(RB3LYP) =  -479.369835571     A.U. after    7 cycles
 SCF Done:  E(RB3LYP) =  -479.369835744     A.U. after    7 cycles
 SCF Done:  E(RB3LYP) =  -479.369835794     A.U. after    7 cycles
 SCF Done:  E(RB3LYP) =  -479.369835856     A.U. after    7 cycles
 SCF Done:  E(RB3LYP) =  -479.369835904     A.U. after    7 cycles
 Optimization completed.
    -- Stationary point found.

 1\1\GINC-NODE119\FOpt\RB3LYP\6-31G(d)\C8H17N3\VSC10255\08-Dec-2020\0\\
 # opt freq B3LYP/6-31G(d) empiricaldispersion=gd3bj scf=xqc\\CID_60913
 339_JID_1113_neutraal\\0,1\C,0.8588396141,0.0262598121,-0.0318139146\C
 ,0.3155126814,1.4501793097,0.1224109682\C,0.8552577336,2.3466733808,-1
 .0121466297\C,0.540733544,1.863079449,-2.4253255017\N,-0.5477896441,1.
 3236150339,-2.8246519419\N,1.5445139563,2.1497631367,-3.3466562276\N,-
 1.1673588558,1.49650338,0.1342245422\C,-1.6769414125,2.7406447138,0.74
 15665079\C,-1.7335037436,2.502141544,2.2786921259\C,-1.7438188938,0.95

 Normal termination of Gaussian 16 at Tue Dec  8 19:16:47 2020.

 --------------------------------------------------------------------
 #N Geom=AllCheck Guess=TCheck SCRF=Check GenChk RB3LYP/6-31G(d) Freq
 --------------------------------------------------------------------

 Structure from the checkpoint file:  "JID_1113.chk"
 ------------------------------
 CID_60913339_JID_1113_neutraal
 ------------------------------
 Charge =  0 Multiplicity = 1

 SCF Done:  E(RB3LYP) =  -479.369835904     A.U. after    1 cycles

  Exact polarizability: 120.214   2.318  85.759  -6.186  -1.088  94.867
 Approx polarizability: 147.086   1.913 121.641 -12.500  -2.026 156.042

                      1                      2                      3
                      A                      A                      A
 Frequencies --     39.3210                74.1815                87.6215
 Red. masses --      3.4896                 3.4774                 3.4669
 Frc consts  --      0.0032                 0.0113                 0.0157
 IR Inten    --      0.2305                 1.3688                 2.1078

                      4                      5                      6
                      A                      A                      A
 Frequencies --    105.6543               143.9418               191.8134
 Red. masses --      1.7839                 2.7793                 4.4258
 Frc consts  --      0.0117                 0.0339                 0.0959
 IR Inten    --      0.1254                 1.6286                 0.8733

                      7                      8                      9
                      A                      A                      A
 Frequencies --    255.1586               287.9545               365.5145
 Red. masses --      1.6529                 1.6864                 2.7222
 Frc consts  --      0.0634                 0.0824                 0.2143
 IR Inten    --      0.4598                 0.4495                 2.4211

                     10                     11                     12
                      A                      A                      A
 Frequencies --    388.9776               412.2219               422.7994
 Red. masses --      1.7472                 1.2437                 1.8647
 Frc consts  --      0.1558                 0.1245                 0.1964
 IR Inten    --      9.0641                54.1696                 6.4644

                     13                     14                     15
                      A                      A                      A
 Frequencies --    471.5496               511.7498               523.6458
 Red. masses --      2.5068                 2.8893                 2.0405
 Frc consts  --      0.3284                 0.4458                 0.3297
 IR Inten    --      2.8253                 1.8954                56.8137

                     16                     17                     18
                      A                      A                      A
 Frequencies --    622.4618               648.4906               681.6898
 Red. masses --      2.2624                 2.1180                 1.9004
 Frc consts  --      0.5165                 0.5248                 0.5203
 IR Inten    --     35.4712                61.3071                79.6192

                     19                     20                     21
                      A                      A                      A
 Frequencies --    725.0817               741.9397               821.8789
 Red. masses --      2.0328                 2.8954                 1.7539
 Frc consts  --      0.6297                 0.9391                 0.6980
 IR Inten    --     82.1293                 9.6752                 2.4056

                     22                     23                     24
                      A                      A                      A
 Frequencies --    855.5591               867.3859               901.5951
 Red. masses --      2.6920                 1.7554                 2.9754
 Frc consts  --      1.1610                 0.7781                 1.4250
 IR Inten    --      5.0898                 1.0661                 7.9276

                     25                     26                     27
                      A                      A                      A
 Frequencies --    908.1380               925.3978               940.6741
 Red. masses --      2.1819                 2.3737                 2.1242
 Frc consts  --      1.0602                 1.1976                 1.1075
 IR Inten    --      0.5187                 2.4805                11.7100

                     28                     29                     30
                      A                      A                      A
 Frequencies --    957.4913               976.3775              1007.5520
 Red. masses --      1.6820                 1.1642                 2.2502
 Frc consts  --      0.9086                 0.6539                 1.3459
 IR Inten    --      7.9528                31.7676                28.7207

                     31                     32                     33
                      A                      A                      A
 Frequencies --   1047.6403              1070.4902              1098.0436
 Red. masses --      1.8623                 1.6712                 3.0943
 Frc consts  --      1.2043                 1.1283                 2.1981
 IR Inten    --     11.5775                11.3255                15.3905

                     34                     35                     36
                      A                      A                      A
 Frequencies --   1112.1500              1116.6523              1146.6304
 Red. masses --      1.9960                 1.6314                 1.7621
 Frc consts  --      1.4546                 1.1985                 1.3650
 IR Inten    --      3.5405                 0.1389                28.4499

                     37                     38                     39
                      A                      A                      A
 Frequencies --   1200.1821              1211.0925              1219.7909
 Red. masses --      2.1560                 1.4816                 1.3576
 Frc consts  --      1.8298                 1.2803                 1.1902
 IR Inten    --      2.6553                60.6476                16.5984

                     40                     41                     42
                      A                      A                      A
 Frequencies --   1251.9472              1262.1850              1267.5092
 Red. masses --      1.2550                 1.1530                 1.1765
 Frc consts  --      1.1589                 1.0822                 1.1136
 IR Inten    --      3.7791                 4.0487                 1.7595

                     43                     44                     45
                      A                      A                      A
 Frequencies --   1304.0036              1328.4424              1343.7017
 Red. masses --      1.4430                 1.3541                 1.6511
 Frc consts  --      1.4457                 1.4079                 1.7564
 IR Inten    --      9.8035                 0.1881                 8.8898

                     46                     47                     48
                      A                      A                      A
 Frequencies --   1359.8867              1376.5811              1380.5915
 Red. masses --      1.2823                 1.4468                 1.2560
 Frc consts  --      1.3972                 1.6153                 1.4105
 IR Inten    --      2.2642                12.5708                48.6187

                     49                     50                     51
                      A                      A                      A
 Frequencies --   1394.5508              1410.1702              1440.5358
 Red. masses --      1.3474                 1.3036                 1.2869
 Frc consts  --      1.5439                 1.5274                 1.5734
 IR Inten    --     16.7288                14.8416                15.2401

                     52                     53                     54
                      A                      A                      A
 Frequencies --   1477.0517              1503.3603              1517.0874
 Red. masses --      1.8713                 1.1354                 1.0775
 Frc consts  --      2.4054                 1.5119                 1.4612
 IR Inten    --     90.0909                10.0033                 2.2958

                     55                     56                     57
                      A                      A                      A
 Frequencies --   1523.3770              1528.9059              1533.6365
 Red. masses --      1.0686                 1.0827                 1.0574
 Frc consts  --      1.4611                 1.4912                 1.4653
 IR Inten    --     13.2285                 2.5832                 4.4048

                     58                     59                     60
                      A                      A                      A
 Frequencies --   1542.3873              1557.7164              1655.4969
 Red. masses --      1.0831                 1.0818                 1.2537
 Frc consts  --      1.5182                 1.5466                 2.0244
 IR Inten    --      2.5649                 2.3287                57.1312

                     61                     62                     63
                      A                      A                      A
 Frequencies --   1740.3344              2940.1932              3046.9667
 Red. masses --      5.1516                 1.0822                 1.0645
 Frc consts  --      9.1930                 5.5118                 5.8226
 IR Inten    --    173.1522                48.7714                34.8074

                     64                     65                     66
                      A                      A                      A
 Frequencies --   3049.1709              3061.0265              3063.3211
 Red. masses --      1.0749                 1.0669                 1.0506
 Frc consts  --      5.8879                 5.8900                 5.8086
 IR Inten    --     27.9114                48.4256                22.3337

                     67                     68                     69
                      A                      A                      A
 Frequencies --   3064.0077              3077.3703              3085.5065
 Red. masses --      1.0530                 1.0624                 1.0968
 Frc consts  --      5.8247                 5.9281                 6.1523
 IR Inten    --      6.5857                42.6717                20.6854

                     70                     71                     72
                      A                      A                      A
 Frequencies --   3102.4782              3121.3690              3123.2580
 Red. masses --      1.1027                 1.1030                 1.1008
 Frc consts  --      6.2537                 6.3317                 6.3266
 IR Inten    --     11.8621                48.2347                36.3546

                     73                     74                     75
                      A                      A                      A
 Frequencies --   3140.4114              3147.0033              3165.7626
 Red. masses --      1.0977                 1.1031                 1.0918
 Frc consts  --      6.3784                 6.4364                 6.4470
 IR Inten    --     40.4482                14.9082                21.9918

                     76                     77                     78
                      A                      A                      A
 Frequencies --   3439.9192              3540.1134              3651.9870
 Red. masses --      1.0735                 1.0469                 1.0988
 Frc consts  --      7.4845                 7.7299                 8.6344
 IR Inten    --     82.7223                 8.1842                 8.1493

 - Thermochemistry -
 -------------------
 Temperature   298.150 Kelvin.  Pressure   1.00000 Atm.
 Atom     1 has atomic number  6 and mass  12.00000

 Molecular mass:   155.14225 amu.
 Principal axes and moments of inertia in atomic units:
                           1         2         3
     Eigenvalues --   781.319582880.496763012.35951
           X            0.99994   0.00780  -0.00824
           Y           -0.00765   0.99980   0.01858
           Z            0.00839  -0.01851   0.99979
 This molecule is an asymmetric top.
 Rotational symmetry number  1.
 Warning -- assumption of classical behavior for rotation
           may cause significant error
 Rotational temperatures (Kelvin)      0.11086     0.03007     0.02875
 Rotational constants (GHZ):           2.30986     0.62654     0.59911
 Zero-point vibrational energy     673532.3 (Joules/Mol)
                                  160.97809 (Kcal/Mol)
 Warning -- explicit consideration of  15 degrees of freedom as
           vibrations may cause significant error
 Vibrational temperatures:     56.57   106.73   126.07   152.01   207.10
          (Kelvin)            275.98   367.12   414.30   525.89   559.65
                              593.10   608.31   678.45   736.29   753.41
                              895.58   933.03   980.80  1043.23  1067.49
                             1182.50  1230.96  1247.97  1297.19  1306.61
                             1331.44  1353.42  1377.62  1404.79  1449.64
                             1507.32  1540.20  1579.84  1600.14  1606.61
                             1649.75  1726.79  1742.49  1755.01  1801.27
                             1816.00  1823.66  1876.17  1911.33  1933.29
                             1956.57  1980.59  1986.36  2006.45  2028.92
                             2072.61  2125.15  2163.00  2182.75  2191.80
                             2199.75  2206.56  2219.15  2241.21  2381.89
                             2503.95  4230.28  4383.91  4387.08  4404.13
                             4407.44  4408.42  4427.65  4439.36  4463.77
                             4490.95  4493.67  4518.35  4527.84  4554.83
                             4949.28  5093.43  5254.39

 Zero-point correction=                           0.256535 (Hartree/Particle)
 Thermal correction to Energy=                    0.268031
 Thermal correction to Enthalpy=                  0.268975
 Thermal correction to Gibbs Free Energy=         0.218805
 Sum of electronic and zero-point Energies=           -479.113301
 Sum of electronic and thermal Energies=              -479.101805
 Sum of electronic and thermal Enthalpies=            -479.100861
 Sum of electronic and thermal Free Energies=         -479.151031

                     E (Thermal)             CV                S
                      KCal/Mol        Cal/Mol-Kelvin    Cal/Mol-Kelvin
 Total                  168.192             44.281            105.592
 Electronic               0.000              0.000              0.000
 Translational            0.889              2.981             41.027
 Rotational               0.889              2.981             30.295
 Vibrational            166.415             38.319             34.269
 Vibration     1          0.594              1.981              5.293
 Vibration     2          0.599              1.966              4.039
 Vibration     3          0.601              1.958              3.712
 Vibration     4          0.605              1.945              3.347
 Vibration     5          0.616              1.909              2.751
 Vibration     6          0.634              1.851              2.210
 Vibration     7          0.666              1.754              1.695
 Vibration     8          0.685              1.696              1.486
 Vibration     9          0.739              1.543              1.099
 Vibration    10          0.757              1.494              1.004
 Vibration    11          0.776              1.444              0.919
 Vibration    12          0.785              1.421              0.883
 Vibration    13          0.828              1.313              0.733
 Vibration    14          0.867              1.224              0.629
 Vibration    15          0.879              1.198              0.602

                           ! Non-Optimized Parameters !

 1\1\GINC-NODE119\Freq\RB3LYP\6-31G(d)\C8H17N3\VSC10255\08-Dec-2020\0\\
 #N Geom=AllCheck Guess=TCheck SCRF=Check GenChk RB3LYP/6-31G(d) Freq\\
 CID_60913339_JID_1113_neutraal\\0,1\C,0.8588396141,0.0262598121,-0.031
 8139146\C,0.3155126814,1.4501793097,0.1224109682\C,0.8552577336,2.3466
 733808,-1.0121466297\C,0.540733544,1.863079449,-2.4253255017\N,-0.5477
 896441,1.3236150339,-2.8246519419\N,1.5445139563,2.1497631367,-3.34665
 62276\N,-1.1673588558,1.49650338,0.1342245422\C,-1.6769414125,2.740644
 7138,0.7415665079\C,-1.7335037436,2.502141544,2.2786921259\C,-1.743818

 Normal termination of Gaussian 16 at Tue Dec  8 19:23:31 2020.

 ----------------------------------------------------------------------
 # B3LYP/6-311++G(d,p) empiricaldispersion=gd3bj scf=xqc pop=npa geom=c
 heck
 ----------------------------------------------------------------------

 --------------------------------------
 CID_60913339_JID_1113_Energie_neutraal
 --------------------------------------
 Structure from the checkpoint file:  "JID_1113.chk"
 Charge =  0 Multiplicity = 1

 SCF Done:  E(RB3LYP) =  -479.514603916     A.U. after   14 cycles
 Normal termination of Gaussian 16 at Tue Dec  8 19:26:37 2020.

 ----------------------------------------------------------------------
 # B3LYP/6-311++G(d,p) empiricaldispersion=gd3bj scf=xqc pop=npa geom=c
 heck
 ----------------------------------------------------------------------

 ------------------------------------
 CID_60913339_JID_1113_Energie_kation
 ------------------------------------
 Structure from the checkpoint file:  "JID_1113.chk"
 Charge =  1 Multiplicity = 2

 SCF Done:  E(UB3LYP) =  -479.226777772     A.U. after   22 cycles
 Normal termination of Gaussian 16 at Tue Dec  8 19:33:30 2020.
 Gaussian 16:  ES64L-G16RevA.03 25-Dec-2016

 -----------------------------------
 CID_60913339_JID_1113_Energie_anion
 -----------------------------------
 Structure from the checkpoint file:  "JID_1113.chk"
 Charge = -1 Multiplicity = 2

                         Standard orientation:
 ---------------------------------------------------------------------
 Center     Atomic      Atomic             Coordinates (Angstroms)
 Number     Number       Type             X           Y           Z
 ---------------------------------------------------------------------
      1          6           0        0.391521    1.914496   -0.380408
      2          6           0        0.045332    0.449476   -0.663965
      3          6           0        1.335114   -0.355652   -0.929445
      4          6           0        2.367215   -0.314910    0.194375
      5          7           0        2.131179   -0.339680    1.450974
      6          7           0        3.683314   -0.347565   -0.258868
      7          7           0       -0.718924   -0.180004    0.440961
      8          6           0       -1.445160   -1.384258   -0.004888
      9          6           0       -2.805101   -0.901038   -0.587896
     10          6           0       -2.998811    0.507815    0.031316
     11          6           0       -1.808761    0.629791    1.009935
     12          1           0        0.872459    2.018819    0.596255
     13          1           0       -0.488914    2.562079   -0.416052
     14          1           0        1.090126    2.275407   -1.143076
     15          1           0       -0.538073    0.425219   -1.602691
     16          1           0        1.095694   -1.406619   -1.128537
     17          1           0        1.781234    0.023338   -1.858129
     18          1           0        1.118782   -0.407068    1.587512
     19          1           0        3.885522    0.178780   -1.099341
     20          1           0        4.352966   -0.189685    0.486443
     21          1           0       -1.615134   -2.020442    0.871455
     22          1           0       -0.853987   -1.963055   -0.716969
     23          1           0       -2.772999   -0.851046   -1.680711
     24          1           0       -3.613884   -1.588281   -0.321768
     25          1           0       -2.939921    1.283605   -0.740109
     26          1           0       -3.962866    0.623991    0.535786
     27          1           0       -1.493102    1.653010    1.210301
     28          1           0       -2.074976    0.178369    1.974013
 ---------------------------------------------------------------------

 SCF Done:  E(UB3LYP) =  -479.502533526     A.U. after   29 cycles

 The electronic state is 2-A.
 Alpha  occ. eigenvalues --  -14.20920 -14.20291 -14.15391 -10.12911 -10.10044
 Alpha  occ. eigenvalues --  -10.08913 -10.08828 -10.06880 -10.06370 -10.06309
 Alpha  occ. eigenvalues --  -10.05364  -0.83803  -0.82741  -0.73518  -0.69402
 Alpha  occ. eigenvalues --   -0.64165  -0.62509  -0.59362  -0.53036  -0.47947
 Alpha  occ. eigenvalues --   -0.47096  -0.44807  -0.41083  -0.39962  -0.38737
 Alpha  occ. eigenvalues --   -0.35288  -0.34458  -0.33931  -0.32938  -0.31441
 Alpha  occ. eigenvalues --   -0.29202  -0.28717  -0.28166  -0.25525  -0.24903
 Alpha  occ. eigenvalues --   -0.24251  -0.24183  -0.23671  -0.22269  -0.22068
 Alpha  occ. eigenvalues --   -0.15989  -0.13510  -0.11520   0.04428
 Alpha virt. eigenvalues --    0.06475   0.07799   0.07931   0.08979   0.09624
 Alpha virt. eigenvalues --    0.09813   0.10871   0.10990   0.11954   0.12583
 Alpha virt. eigenvalues --    0.12787   0.13072   0.13945   0.14512   0.14951

  Beta  occ. eigenvalues --  -14.20882 -14.20292 -14.15385 -10.12911 -10.10027
  Beta  occ. eigenvalues --  -10.08900 -10.08817 -10.06847 -10.06345 -10.06282
  Beta  occ. eigenvalues --  -10.05331  -0.83781  -0.82714  -0.73474  -0.69361
  Beta  occ. eigenvalues --   -0.64119  -0.62469  -0.59299  -0.52980  -0.47885
  Beta  occ. eigenvalues --   -0.47032  -0.44748  -0.41037  -0.39916  -0.38689
  Beta  occ. eigenvalues --   -0.35238  -0.34419  -0.33888  -0.32900  -0.31402
  Beta  occ. eigenvalues --   -0.29168  -0.28685  -0.28126  -0.25485  -0.24870
  Beta  occ. eigenvalues --   -0.24212  -0.24142  -0.23622  -0.22238  -0.22031
  Beta  occ. eigenvalues --   -0.15976  -0.13486  -0.11508
  Beta virt. eigenvalues --    0.06842   0.07696   0.08438   0.08577   0.09345
  Beta virt. eigenvalues --    0.10135   0.10479   0.11140   0.11369   0.12543
  Beta virt. eigenvalues --    0.12882   0.13202   0.13321   0.14229   0.14684

 Mulliken charges and spin densities:
               1          2
     1  C    1.339359  -2.069317
     2  C   -2.091568   2.012636
     3  C    2.450237  -2.935444
     4  C   -0.747586   0.739510
     5  N   -0.281273  -0.113840
     6  N   -0.299826   0.063328
     7  N    0.194106  -0.032667
     8  C   -0.618055   0.415910
     9  C    0.938038  -1.309324
    10  C   -0.092563  -0.224054
    11  C    0.040915  -0.319037
    12  H    0.139147   0.025222
    13  H   -0.173754   0.326876
    14  H   -0.354596   0.504778
    15  H   -0.313149   0.523741
    16  H    0.041002   0.130059
    17  H   -0.540856   0.700178
    18  H    0.240490   0.009370
    19  H   -0.172005   0.409974
    20  H    0.027566   0.225051
    21  H   -0.079544   0.252552
    22  H    0.087414   0.029929
    23  H   -0.268072   0.420599
    24  H   -0.141047   0.277807
    25  H   -0.045149   0.192096
    26  H   -0.379764   0.540576
    27  H    0.071186   0.097621
    28  H    0.029346   0.105870
 Sum of Mulliken charges =  -1.00000   1.00000

 Dipole moment (field-independent basis, Debye):
    X=             -1.3294    Y=             -1.1217    Z=              2.9871  Tot=              3.4567
 Quadrupole moment (field-independent basis, Debye-Ang):
   XX=           -136.7721   YY=           -101.4746   ZZ=           -111.5986
   XY=             -0.8084   XZ=              1.5793   YZ=              5.1345

 Summary of Natural Population Analysis:

                                       Natural Population
                Natural  -----------------------------------------------
    Atom  No    Charge         Core      Valence    Rydberg      Total
 -----------------------------------------------------------------------
      C    1   -0.29550      0.99964     2.28918    0.00668     3.29550
      C    2   -0.00708      0.99958     1.99171    0.01578     3.00708
      C    3   -0.22585      0.99955     2.21407    0.01223     3.22585
      C    4    0.22499      0.99966     1.75649    0.01886     2.77501
      N    5   -0.37513      0.99970     2.86739    0.00804     3.87513
      N    6   -0.40543      0.99971     2.89540    0.01033     3.90543
      N    7   -0.29020      0.99973     2.77786    0.01261     3.79020
      C    8   -0.08589      0.99962     2.07574    0.01052     3.08589
      C    9   -0.20418      0.99964     2.19715    0.00739     3.20418
      C   10   -0.20459      0.99964     2.19739    0.00756     3.20459
      C   11   -0.08603      0.99962     2.07553    0.01088     3.08603
      H   12    0.10446      0.00000     0.39424    0.00131     0.39554
      H   13    0.10072      0.00000     0.39820    0.00108     0.39928
      H   14    0.10592      0.00000     0.39256    0.00153     0.39408
      H   15    0.08958      0.00000     0.40706    0.00336     0.41042
      H   16    0.11047      0.00000     0.38818    0.00135     0.38953
      H   17    0.10742      0.00000     0.39019    0.00238     0.39258
      H   18    0.18050      0.00000     0.31676    0.00274     0.31950
      H   19    0.18859      0.00000     0.30770    0.00371     0.31141
      H   20    0.18653      0.00000     0.31142    0.00205     0.31347
      H   21    0.09176      0.00000     0.40713    0.00112     0.40824
      H   22    0.09886      0.00000     0.40006    0.00108     0.40114
      H   23    0.10018      0.00000     0.39834    0.00148     0.39982
      H   24    0.09894      0.00000     0.39968    0.00138     0.40106
      H   25    0.09872      0.00000     0.39981    0.00148     0.40128
      H   26    0.09988      0.00000     0.39862    0.00150     0.40012
      H   27    0.10153      0.00000     0.39743    0.00104     0.39847
      H   28    0.09083      0.00000     0.40804    0.00113     0.40917
 =======================================================================
   * Total *   -0.00000     10.99610    31.85331    0.15059    43.00000

 Normal termination of Gaussian 16 at Tue Dec  8 19:42:26 2020.
