 Gaussian 16, Revision A.03,

 -----------------------------------------------------------
 # opt freq B3LYP/6-31G(d) empiricaldispersion=gd3bj scf=xqc
 -----------------------------------------------------------

 -------------------------------
 CID_135767432_JID_7962_neutraal
 -------------------------------
 Symbolic Z-matrix:
 Charge =  0 Multiplicity = 1

 SCF Done:  E(RB3LYP) =  -794.685240802     A.U. after   15 cycles
 SCF Done:  E(RB3LYP) =  -794.692953872     A.U. after   14 cycles
 SCF Done:  E(RB3LYP) =  -794.694132946     A.U. after   14 cycles
 SCF Done:  E(RB3LYP) =  -794.694367905     A.U. after   12 cycles
 SCF Done:  E(RB3LYP) =  -794.694227310     A.U. after   13 cycles
 SCF Done:  E(RB3LYP) =  -794.694538231     A.U. after   13 cycles
 SCF Done:  E(RB3LYP) =  -794.694696493     A.U. after   11 cycles
 SCF Done:  E(RB3LYP) =  -794.694761229     A.U. after   13 cycles
 SCF Done:  E(RB3LYP) =  -794.694815315     A.U. after   11 cycles
 SCF Done:  E(RB3LYP) =  -794.694839389     A.U. after   11 cycles
 SCF Done:  E(RB3LYP) =  -794.694843779     A.U. after   11 cycles
 SCF Done:  E(RB3LYP) =  -794.694844866     A.U. after    9 cycles
 SCF Done:  E(RB3LYP) =  -794.694845235     A.U. after    8 cycles
 Optimization completed.
    -- Stationary point found.
 Normal termination of Gaussian 16 at Fri Dec 11 13:24:12 2020.

 --------------------------------------------------------------------
 #N Geom=AllCheck Guess=TCheck SCRF=Check GenChk RB3LYP/6-31G(d) Freq
 --------------------------------------------------------------------

 Structure from the checkpoint file:  "JID_7962.chk"
 -------------------------------
 CID_135767432_JID_7962_neutraal
 -------------------------------
 Charge =  0 Multiplicity = 1

 SCF Done:  E(RB3LYP) =  -794.694845235     A.U. after    1 cycles

  Exact polarizability: 216.364  -6.790 131.411  -7.175  -8.760  79.350
 Approx polarizability: 343.617 -25.087 241.517 -18.624 -19.675 126.425

                      1                      2                      3
                      A                      A                      A
 Frequencies --     39.4505                57.1187                75.2712
 Red. masses --      6.6555                 4.8191                 6.7877
 Frc consts  --      0.0061                 0.0093                 0.0227
 IR Inten    --      2.2050                 2.6679                 0.4939

                      4                      5                      6
                      A                      A                      A
 Frequencies --    150.2990               154.7407               187.4947
 Red. masses --      1.1772                 4.1210                 6.3207
 Frc consts  --      0.0157                 0.0581                 0.1309
 IR Inten    --      1.1166                 1.7588                 0.8705

                      7                      8                      9
                      A                      A                      A
 Frequencies --    202.6024               208.6668               229.0202
 Red. masses --      3.2667                 3.7597                 2.0810
 Frc consts  --      0.0790                 0.0965                 0.0643
 IR Inten    --      0.1824                 0.1585                 0.7551

                     10                     11                     12
                      A                      A                      A
 Frequencies --    273.6928               300.0583               330.4106
 Red. masses --      1.6042                 3.9115                 4.0412
 Frc consts  --      0.0708                 0.2075                 0.2599
 IR Inten    --      3.4309                 4.6311                 4.4948

                     13                     14                     15
                      A                      A                      A
 Frequencies --    370.8653               387.8338               420.7556
 Red. masses --      6.2706                 7.3962                 5.2191
 Frc consts  --      0.5081                 0.6555                 0.5444
 IR Inten    --      0.1730                 7.6413                 3.0761

                     16                     17                     18
                      A                      A                      A
 Frequencies --    426.8134               440.1659               493.6330
 Red. masses --      6.4577                 3.7889                 3.4657
 Frc consts  --      0.6931                 0.4325                 0.4976
 IR Inten    --      1.8920                 3.5861                 5.3188

                     19                     20                     21
                      A                      A                      A
 Frequencies --    529.3430               574.6088               586.9378
 Red. masses --      1.3794                 2.6945                 2.2055
 Frc consts  --      0.2277                 0.5242                 0.4477
 IR Inten    --     78.0670                53.7931                30.0024

                     22                     23                     24
                      A                      A                      A
 Frequencies --    602.6359               635.1703               696.7279
 Red. masses --      3.4116                 4.4382                 6.5765
 Frc consts  --      0.7300                 1.0550                 1.8809
 IR Inten    --     25.1664                 4.6793                 6.9642

                     25                     26                     27
                      A                      A                      A
 Frequencies --    709.6680               710.9432               734.5863
 Red. masses --      1.9722                 5.0128                 7.5986
 Frc consts  --      0.5852                 1.4928                 2.4158
 IR Inten    --     52.3851                 4.7970                 3.4332

                     28                     29                     30
                      A                      A                      A
 Frequencies --    745.0272               783.5663               808.1420
 Red. masses --      6.6403                 3.5180                 5.2360
 Frc consts  --      2.1716                 1.2726                 2.0148
 IR Inten    --      4.4043                 0.9138                10.3229

                     31                     32                     33
                      A                      A                      A
 Frequencies --    830.1826               847.6151               877.6744
 Red. masses --      4.6377                 1.6576                 2.1701
 Frc consts  --      1.8832                 0.7017                 0.9849
 IR Inten    --      3.8810                28.8223                 3.2600

                     34                     35                     36
                      A                      A                      A
 Frequencies --    894.6645               907.2515               985.0398
 Red. masses --      1.8247                 2.0918                 2.0148
 Frc consts  --      0.8605                 1.0145                 1.1519
 IR Inten    --      5.9234                16.7941                16.4676

                     37                     38                     39
                      A                      A                      A
 Frequencies --    992.9233              1036.5344              1071.4288
 Red. masses --      8.9491                 2.4320                 2.0821
 Frc consts  --      5.1983                 1.5395                 1.4082
 IR Inten    --     13.0248                 1.9985                 5.8752

                     40                     41                     42
                      A                      A                      A
 Frequencies --   1112.7801              1146.1149              1171.7695
 Red. masses --      2.4591                 2.2292                 3.3305
 Frc consts  --      1.7941                 1.7253                 2.6943
 IR Inten    --     14.5865                69.0943                60.3657

                     43                     44                     45
                      A                      A                      A
 Frequencies --   1185.9430              1203.0774              1220.0609
 Red. masses --      3.0266                 2.6090                 2.5855
 Frc consts  --      2.5080                 2.2249                 2.2676
 IR Inten    --    104.1643                 7.6723                42.7609

                     46                     47                     48
                      A                      A                      A
 Frequencies --   1243.5621              1264.2963              1280.8143
 Red. masses --      1.8980                 2.7623                 6.0622
 Frc consts  --      1.7293                 2.6014                 5.8594
 IR Inten    --     46.6648                32.6282                96.2629

                     49                     50                     51
                      A                      A                      A
 Frequencies --   1325.9032              1368.2454              1372.2179
 Red. masses --      4.9384                 8.1241                 2.8170
 Frc consts  --      5.1152                 8.9610                 3.1252
 IR Inten    --     30.2499                 7.9572                56.9518

                     52                     53                     54
                      A                      A                      A
 Frequencies --   1416.0296              1429.0137              1435.1008
 Red. masses --      1.2903                 1.2838                 2.4749
 Frc consts  --      1.5244                 1.5446                 3.0031
 IR Inten    --     51.4071                 4.9512                 3.1977

                     55                     56                     57
                      A                      A                      A
 Frequencies --   1496.3597              1497.1183              1508.0309
 Red. masses --      1.1472                 1.4934                 1.0568
 Frc consts  --      1.5134                 1.9721                 1.4160
 IR Inten    --     20.2804                 0.1868                10.4941

                     58                     59                     60
                      A                      A                      A
 Frequencies --   1524.1084              1529.0843              1535.3115
 Red. masses --      1.0787                 1.1688                 3.4797
 Frc consts  --      1.4764                 1.6101                 4.8327
 IR Inten    --      8.8337                 5.5083                56.6914

                     61                     62                     63
                      A                      A                      A
 Frequencies --   1576.6839              1623.0397              1709.0838
 Red. masses --      7.1085                 7.8413                 7.8065
 Frc consts  --     10.4116                12.1701                13.4348
 IR Inten    --      7.1083                 8.1323                83.9351

                     64                     65                     66
                      A                      A                      A
 Frequencies --   1815.8319              1828.4843              3058.4718
 Red. masses --     11.2762                10.7565                 1.0412
 Frc consts  --     21.9061                21.1888                 5.7382
 IR Inten    --    207.1890               450.5621                 3.4274

                     67                     68                     69
                      A                      A                      A
 Frequencies --   3066.3380              3130.9247              3138.0264
 Red. masses --      1.0343                 1.0911                 1.1038
 Frc consts  --      5.7295                 6.3018                 6.4041
 IR Inten    --     17.9033                 9.4997                11.9360

                     70                     71                     72
                      A                      A                      A
 Frequencies --   3155.7766              3176.5768              3224.7477
 Red. masses --      1.1033                 1.1063                 1.0926
 Frc consts  --      6.4739                 6.5775                 6.6941
 IR Inten    --     13.0480                 2.6198                 4.6245

                     73                     74                     75
                      A                      A                      A
 Frequencies --   3236.0816              3634.2228              3653.4969
 Red. masses --      1.0925                 1.0788                 1.0821
 Frc consts  --      6.7411                 8.3947                 8.5103
 IR Inten    --      1.8343                49.9445               174.6509

 - Thermochemistry -
 -------------------
 Temperature   298.150 Kelvin.  Pressure   1.00000 Atm.
 Atom     1 has atomic number  6 and mass  12.00000

 Molecular mass:   230.08038 amu.
 Principal axes and moments of inertia in atomic units:
                           1         2         3
     Eigenvalues --  1676.917845611.771736550.51588
           X            0.99988   0.01413  -0.00573
           Y           -0.01425   0.99966  -0.02198
           Z            0.00542   0.02206   0.99974
 This molecule is an asymmetric top.
 Rotational symmetry number  1.
 Warning -- assumption of classical behavior for rotation
           may cause significant error
 Rotational temperatures (Kelvin)      0.05165     0.01543     0.01322
 Rotational constants (GHZ):           1.07623     0.32160     0.27551
 Zero-point vibrational energy     541922.1 (Joules/Mol)
                                  129.52248 (Kcal/Mol)
 Warning -- explicit consideration of  22 degrees of freedom as
           vibrations may cause significant error
 Vibrational temperatures:     56.76    82.18   108.30   216.25   222.64
          (Kelvin)            269.76   291.50   300.22   329.51   393.78
                              431.72   475.39   533.59   558.01   605.37
                              614.09   633.30   710.23   761.61   826.73
                              844.47   867.06   913.87  1002.44  1021.05
                             1022.89  1056.91  1071.93  1127.38  1162.74
                             1194.45  1219.53  1262.78  1287.22  1305.33
                             1417.25  1428.60  1491.34  1541.55  1601.04
                             1649.00  1685.92  1706.31  1730.96  1755.40
                             1789.21  1819.04  1842.81  1907.68  1968.60
                             1974.32  2037.35  2056.03  2064.79  2152.93
                             2154.02  2169.72  2192.85  2200.01  2208.97
                             2268.50  2335.19  2458.99  2612.58  2630.78
                             4400.46  4411.78  4504.70  4514.92  4540.46
                             4570.39  4639.69  4656.00  5228.84  5256.57

 Zero-point correction=                           0.206407 (Hartree/Particle)
 Thermal correction to Energy=                    0.220380
 Thermal correction to Enthalpy=                  0.221324
 Thermal correction to Gibbs Free Energy=         0.165414
 Sum of electronic and zero-point Energies=           -794.488438
 Sum of electronic and thermal Energies=              -794.474465
 Sum of electronic and thermal Enthalpies=            -794.473521
 Sum of electronic and thermal Free Energies=         -794.529431

                     E (Thermal)             CV                S
                      KCal/Mol        Cal/Mol-Kelvin    Cal/Mol-Kelvin
 Total                  138.290             54.371            117.673
 Electronic               0.000              0.000              0.000
 Translational            0.889              2.981             42.202
 Rotational               0.889              2.981             32.489
 Vibrational            136.513             48.409             42.982
 Vibration     1          0.594              1.981              5.286
 Vibration     2          0.596              1.975              4.554
 Vibration     3          0.599              1.965              4.011
 Vibration     4          0.618              1.902              2.668
 Vibration     5          0.620              1.897              2.613
 Vibration     6          0.632              1.857              2.252
 Vibration     7          0.639              1.836              2.109
 Vibration     8          0.642              1.827              2.055
 Vibration     9          0.652              1.797              1.887
 Vibration    10          0.676              1.722              1.573
 Vibration    11          0.693              1.674              1.417
 Vibration    12          0.713              1.615              1.258
 Vibration    13          0.743              1.532              1.076
 Vibration    14          0.756              1.496              1.008
 Vibration    15          0.783              1.425              0.889
 Vibration    16          0.788              1.412              0.869
 Vibration    17          0.800              1.383              0.826
 Vibration    18          0.849              1.264              0.674
 Vibration    19          0.884              1.185              0.589
 Vibration    20          0.931              1.086              0.495
 Vibration    21          0.944              1.060              0.473
 Vibration    22          0.961              1.026              0.445

                           ! Non-Optimized Parameters !
 Normal termination of Gaussian 16 at Fri Dec 11 13:33:15 2020.

 ----------------------------------------------------------------------
 # B3LYP/6-311++G(d,p) empiricaldispersion=gd3bj scf=xqc pop=npa geom=c
 heck
 ----------------------------------------------------------------------

 ---------------------------------------
 CID_135767432_JID_7962_Energie_neutraal
 ---------------------------------------
 Structure from the checkpoint file:  "JID_7962.chk"
 Charge =  0 Multiplicity = 1

 SCF Done:  E(RB3LYP) =  -794.911952803     A.U. after   15 cycles
 Normal termination of Gaussian 16 at Fri Dec 11 13:36:27 2020.

 ----------------------------------------------------------------------
 # B3LYP/6-311++G(d,p) empiricaldispersion=gd3bj scf=xqc pop=npa geom=c
 heck
 ----------------------------------------------------------------------

 -------------------------------------
 CID_135767432_JID_7962_Energie_kation
 -------------------------------------
 Structure from the checkpoint file:  "JID_7962.chk"
 Charge =  1 Multiplicity = 2

 SCF Done:  E(UB3LYP) =  -794.610143325     A.U. after   28 cycles
 Normal termination of Gaussian 16 at Fri Dec 11 13:44:24 2020.
 Gaussian 16:  ES64L-G16RevA.03 25-Dec-2016

 ----------------------------------------------------------------------
 # B3LYP/6-311++G(d,p) empiricaldispersion=gd3bj scf=xqc pop=npa geom=c
 heck
 ----------------------------------------------------------------------

 ------------------------------------
 CID_135767432_JID_7962_Energie_anion
 ------------------------------------
 Structure from the checkpoint file:  "JID_7962.chk"
 Charge = -1 Multiplicity = 2

                         Standard orientation:
 ---------------------------------------------------------------------
 Center     Atomic      Atomic             Coordinates (Angstroms)
 Number     Number       Type             X           Y           Z
 ---------------------------------------------------------------------
      1          6           0       -3.751390   -1.255873   -0.564086
      2          6           0       -2.240566   -1.179891   -0.577224
      3          8           0       -1.561444   -1.905190   -1.272390
      4          6           0       -1.578374   -0.154260    0.387064
      5          6           0       -0.077146   -0.096731    0.232590
      6          6           0        0.856478   -1.080376    0.407430
      7          6           0        2.208758   -0.705665    0.199547
      8          7           0        3.337911   -1.441478    0.301870
      9          7           0        4.276062   -0.557621   -0.006976
     10          7           0        3.912661    0.688161   -0.305810
     11          6           0        2.569104    0.627974   -0.180737
     12          6           0        1.592224    1.638049   -0.370620
     13          6           0        0.298984    1.234343   -0.157486
     14          7           0       -0.871023    1.994811   -0.270502
     15          6           0       -2.016610    1.292198    0.028868
     16          8           0       -3.146152    1.745689    0.032822
     17          6           0       -2.024488   -0.450749    1.838499
     18          1           0       -4.088038   -1.785940   -1.457023
     19          1           0       -4.197200   -0.260001   -0.499268
     20          1           0       -4.077528   -1.820371    0.318594
     21          1           0        0.588393   -2.095752    0.674227
     22          1           0        5.250966   -0.824335   -0.018098
     23          1           0        1.861838    2.646150   -0.664705
     24          1           0       -0.904554    2.973719   -0.520203
     25          1           0       -3.099204   -0.288088    1.950046
     26          1           0       -1.784544   -1.484079    2.108129
     27          1           0       -1.500496    0.213479    2.531704
 ---------------------------------------------------------------------

 SCF Done:  E(UB3LYP) =  -794.920114461     A.U. after   31 cycles

 The electronic state is 2-A.
 Alpha  occ. eigenvalues --  -18.98933 -18.98268 -14.25856 -14.23615 -14.18456
 Alpha  occ. eigenvalues --  -14.18373 -10.15819 -10.13657 -10.08287 -10.07403
 Alpha  occ. eigenvalues --  -10.06713 -10.05905 -10.05600 -10.05176 -10.03380
 Alpha  occ. eigenvalues --  -10.02485 -10.02321  -0.94997  -0.93548  -0.92423
 Alpha  occ. eigenvalues --   -0.83850  -0.74245  -0.71722  -0.69580  -0.64143
 Alpha  occ. eigenvalues --   -0.62584  -0.60360  -0.56811  -0.52582  -0.49610
 Alpha  occ. eigenvalues --   -0.47298  -0.44033  -0.41576  -0.40696  -0.39025
 Alpha  occ. eigenvalues --   -0.36701  -0.35840  -0.34466  -0.33044  -0.32859
 Alpha  occ. eigenvalues --   -0.31545  -0.31397  -0.30499  -0.29805  -0.29256
 Alpha  occ. eigenvalues --   -0.29239  -0.27319  -0.27274  -0.26367  -0.24287
 Alpha  occ. eigenvalues --   -0.23665  -0.22196  -0.18109  -0.16974  -0.16688
 Alpha  occ. eigenvalues --   -0.15370  -0.15211  -0.13106  -0.10082  -0.08509
 Alpha  occ. eigenvalues --    0.04881
 Alpha virt. eigenvalues --    0.07762   0.07900   0.08964   0.09520   0.09902
 Alpha virt. eigenvalues --    0.11284   0.11700   0.12234   0.12441   0.13398
 Alpha virt. eigenvalues --    0.13999   0.14579   0.14947   0.15203   0.16193

  Beta  occ. eigenvalues --  -18.98833 -18.98168 -14.25382 -14.23662 -14.18135
  Beta  occ. eigenvalues --  -14.18103 -10.15726 -10.13506 -10.08305 -10.07312
  Beta  occ. eigenvalues --  -10.06718 -10.05915 -10.05674 -10.05268 -10.03318
  Beta  occ. eigenvalues --  -10.02244 -10.02021  -0.94356  -0.93374  -0.92212
  Beta  occ. eigenvalues --   -0.83765  -0.73669  -0.71461  -0.69418  -0.63754
  Beta  occ. eigenvalues --   -0.62369  -0.60018  -0.56603  -0.52205  -0.49480
  Beta  occ. eigenvalues --   -0.47165  -0.43736  -0.41373  -0.40497  -0.38752
  Beta  occ. eigenvalues --   -0.36486  -0.35624  -0.34163  -0.32883  -0.31493
  Beta  occ. eigenvalues --   -0.31385  -0.31176  -0.30295  -0.29639  -0.29191
  Beta  occ. eigenvalues --   -0.29090  -0.27208  -0.27097  -0.26182  -0.23817
  Beta  occ. eigenvalues --   -0.22866  -0.22020  -0.17215  -0.16709  -0.15365
  Beta  occ. eigenvalues --   -0.15113  -0.14995  -0.13024  -0.08902  -0.06818
  Beta virt. eigenvalues --    0.07789   0.08657   0.09185   0.09540   0.09815
  Beta virt. eigenvalues --    0.10757   0.11289   0.11829   0.12332   0.13040
  Beta virt. eigenvalues --    0.13347   0.14060   0.14794   0.14937   0.15834

 Mulliken charges and spin densities:
               1          2
     1  C   -0.458319  -0.089980
     2  C   -0.196721   0.155651
     3  O   -0.250996   0.035829
     4  C    1.467928  -0.042738
     5  C    1.275073   0.029035
     6  C   -0.674988   0.255259
     7  C   -0.711055  -0.081108
     8  N   -0.201887   0.144359
     9  N    0.008703   0.171101
    10  N   -0.239725   0.119768
    11  C   -0.256430  -0.066237
    12  C   -0.930338   0.231143
    13  C   -0.181174   0.024606
    14  N   -0.167085  -0.024966
    15  C   -0.168392   0.069902
    16  O   -0.376900   0.030314
    17  C   -0.648444  -0.026046
    18  H    0.151523   0.005547
    19  H    0.207279  -0.008253
    20  H    0.074302   0.071687
    21  H    0.138375  -0.018890
    22  H    0.281629  -0.009786
    23  H    0.102076  -0.011792
    24  H    0.295512   0.006982
    25  H    0.146365   0.015075
    26  H    0.171713   0.003098
    27  H    0.141976   0.010439
 Sum of Mulliken charges =  -1.00000   1.00000

 Dipole moment (field-independent basis, Debye):
    X=             -2.5897    Y=              1.1889    Z=              1.5115  Tot=              3.2256
 Quadrupole moment (field-independent basis, Debye-Ang):
   XX=           -143.1752   YY=           -116.2006   ZZ=           -108.5102
   XY=              3.1849   XZ=             -1.5140   YZ=             -4.7330

 Summary of Natural Population Analysis:

                                       Natural Population
                Natural  -----------------------------------------------
    Atom  No    Charge         Core      Valence    Rydberg      Total
 -----------------------------------------------------------------------
      C    1   -0.34287      0.99962     2.33803    0.00522     3.34287
      C    2    0.32082      0.99965     1.65747    0.02207     2.67918
      O    3   -0.27175      0.99987     3.26487    0.00701     4.27175
      C    4   -0.11545      0.99946     2.10347    0.01252     3.11545
      C    5   -0.02658      0.99950     2.01284    0.01423     3.02658
      C    6   -0.02989      0.99947     2.02254    0.00788     3.02989
      C    7    0.02306      0.99951     1.96418    0.01325     2.97694
      N    8   -0.11447      0.99971     2.60083    0.01393     3.61447
      N    9   -0.00498      0.99975     2.48827    0.01697     3.50498
      N   10   -0.13453      0.99971     2.62056    0.01426     3.63453
      C   11    0.03711      0.99952     1.94991    0.01345     2.96289
      C   12   -0.09473      0.99948     2.08761    0.00764     3.09473
      C   13    0.08731      0.99947     1.89994    0.01328     2.91269
      N   14   -0.30819      0.99963     2.79975    0.00881     3.80819
      C   15    0.36490      0.99965     1.61092    0.02454     2.63510
      O   16   -0.32026      0.99987     3.31415    0.00624     4.32026
      C   17   -0.27577      0.99964     2.27078    0.00535     3.27577
      H   18    0.10347      0.00000     0.39437    0.00215     0.39653
      H   19    0.12106      0.00000     0.37772    0.00122     0.37894
      H   20    0.10675      0.00000     0.39165    0.00160     0.39325
      H   21    0.09821      0.00000     0.40046    0.00133     0.40179
      H   22    0.18082      0.00000     0.31776    0.00142     0.31918
      H   23    0.09444      0.00000     0.40401    0.00156     0.40556
      H   24    0.19568      0.00000     0.30256    0.00177     0.30432
      H   25    0.10127      0.00000     0.39775    0.00098     0.39873
      H   26    0.10014      0.00000     0.39899    0.00087     0.39986
      H   27    0.10445      0.00000     0.39469    0.00086     0.39555
 =======================================================================
   * Total *    0.00000     16.99352    42.78608    0.22041    60.00000

 Normal termination of Gaussian 16 at Fri Dec 11 13:53:13 2020.
