 Gaussian 16, Revision A.03,

 -----------------------------------------------------------
 # opt freq B3LYP/6-31G(d) empiricaldispersion=gd3bj scf=xqc
 -----------------------------------------------------------

 -------------------------------
 CID_117119488_JID_5993_neutraal
 -------------------------------
 Symbolic Z-matrix:
 Charge =  0 Multiplicity = 1

 SCF Done:  E(RB3LYP) =  -1066.23553645     A.U. after   15 cycles
 SCF Done:  E(RB3LYP) =  -1066.24259288     A.U. after   12 cycles
 SCF Done:  E(RB3LYP) =  -1066.24366733     A.U. after   12 cycles
 SCF Done:  E(RB3LYP) =  -1066.24387391     A.U. after   12 cycles
 SCF Done:  E(RB3LYP) =  -1066.24430668     A.U. after   11 cycles
 SCF Done:  E(RB3LYP) =  -1066.24451739     A.U. after   11 cycles
 SCF Done:  E(RB3LYP) =  -1066.24460394     A.U. after   12 cycles
 SCF Done:  E(RB3LYP) =  -1066.24461343     A.U. after    9 cycles
 SCF Done:  E(RB3LYP) =  -1066.24461555     A.U. after    8 cycles
 SCF Done:  E(RB3LYP) =  -1066.24461570     A.U. after    7 cycles
 Optimization completed.
    -- Stationary point found.
 Normal termination of Gaussian 16 at Thu Dec 10 17:38:54 2020.

 --------------------------------------------------------------------
 #N Geom=AllCheck Guess=TCheck SCRF=Check GenChk RB3LYP/6-31G(d) Freq
 --------------------------------------------------------------------

 Structure from the checkpoint file:  "JID_5993.chk"
 -------------------------------
 CID_117119488_JID_5993_neutraal
 -------------------------------
 Charge =  0 Multiplicity = 1

 SCF Done:  E(RB3LYP) =  -1066.24461570     A.U. after    1 cycles

  Exact polarizability: 176.889  -5.436 153.335   0.221   5.835  75.070
 Approx polarizability: 281.868 -12.633 243.068   1.491  10.718 129.270

                      1                      2                      3
                      A                      A                      A
 Frequencies --     50.7984                86.9844                95.9652
 Red. masses --      4.1119                 6.0863                 4.0162
 Frc consts  --      0.0063                 0.0271                 0.0218
 IR Inten    --      0.3711                 0.8712                 5.5085

                      4                      5                      6
                      A                      A                      A
 Frequencies --    120.7614               144.2139               177.4513
 Red. masses --      6.5811                 4.0222                 3.5966
 Frc consts  --      0.0565                 0.0493                 0.0667
 IR Inten    --      0.1313                 4.3045                 3.5681

                      7                      8                      9
                      A                      A                      A
 Frequencies --    209.4267               241.4480               252.8677
 Red. masses --      2.7458                 2.3086                 2.0728
 Frc consts  --      0.0710                 0.0793                 0.0781
 IR Inten    --      0.0400                 3.7083                12.8523

                     10                     11                     12
                      A                      A                      A
 Frequencies --    269.8793               281.8429               292.9165
 Red. masses --      2.5888                 3.1357                 1.7419
 Frc consts  --      0.1111                 0.1468                 0.0881
 IR Inten    --     32.0293                 2.5888                11.4491

                     13                     14                     15
                      A                      A                      A
 Frequencies --    302.7833               329.3205               392.8693
 Red. masses --      2.7680                 4.2632                 5.2847
 Frc consts  --      0.1495                 0.2724                 0.4806
 IR Inten    --     13.3155                 7.3328                 2.1238

                     16                     17                     18
                      A                      A                      A
 Frequencies --    462.9738               495.9055               497.5682
 Red. masses --      5.7513                 4.3440                 4.9392
 Frc consts  --      0.7263                 0.6294                 0.7205
 IR Inten    --     10.2868                 7.5972                10.1500

                     19                     20                     21
                      A                      A                      A
 Frequencies --    514.0110               567.0842               581.3448
 Red. masses --      6.7832                 6.3268                 6.3455
 Frc consts  --      1.0559                 1.1987                 1.2635
 IR Inten    --     19.4559                24.0829                12.7978

                     22                     23                     24
                      A                      A                      A
 Frequencies --    596.7177               647.3616               656.5539
 Red. masses --      5.3780                 3.2607                 4.9996
 Frc consts  --      1.1283                 0.8051                 1.2698
 IR Inten    --      1.3132                 2.6430                10.7545

                     25                     26                     27
                      A                      A                      A
 Frequencies --    753.7654               756.0363               778.9525
 Red. masses --      3.9110                 2.1858                 2.1841
 Frc consts  --      1.3092                 0.7361                 0.7808
 IR Inten    --      5.5823                25.8400                62.3136

                     28                     29                     30
                      A                      A                      A
 Frequencies --    792.3625               830.7599               880.3409
 Red. masses --      1.6666                 4.9779                 5.8388
 Frc consts  --      0.6165                 2.0242                 2.6661
 IR Inten    --      1.3096                29.0706                12.3894

                     31                     32                     33
                      A                      A                      A
 Frequencies --    883.6994               888.6440               963.2330
 Red. masses --      1.3932                 1.3006                 1.2745
 Frc consts  --      0.6410                 0.6051                 0.6967
 IR Inten    --      0.5031               122.2866                 0.5231

                     34                     35                     36
                      A                      A                      A
 Frequencies --   1023.9091              1036.7383              1078.5627
 Red. masses --      3.0670                 1.9895                 6.0726
 Frc consts  --      1.8945                 1.2599                 4.1621
 IR Inten    --     25.4187                11.6832               117.0969

                     37                     38                     39
                      A                      A                      A
 Frequencies --   1092.0519              1112.9646              1121.3868
 Red. masses --      3.0321                 4.6319                 2.0009
 Frc consts  --      2.1305                 3.3804                 1.4825
 IR Inten    --     39.5849                61.9740                12.3349

                     40                     41                     42
                      A                      A                      A
 Frequencies --   1181.0013              1184.9769              1191.4104
 Red. masses --      1.7435                 1.2714                 1.3269
 Frc consts  --      1.4327                 1.0518                 1.1098
 IR Inten    --      0.0979                 2.1405                61.4794

                     43                     44                     45
                      A                      A                      A
 Frequencies --   1205.7210              1221.4626              1244.9744
 Red. masses --      1.4532                 1.4265                 1.9773
 Frc consts  --      1.2447                 1.2539                 1.8057
 IR Inten    --     18.5997                32.6228                47.6840

                     46                     47                     48
                      A                      A                      A
 Frequencies --   1301.3165              1307.7847              1326.7869
 Red. masses --     19.5467                 2.7600                 2.0777
 Frc consts  --     19.5024                 2.7812                 2.1549
 IR Inten    --    177.2230               189.8505                56.5840

                     49                     50                     51
                      A                      A                      A
 Frequencies --   1343.3796              1392.0394              1446.6324
 Red. masses --      1.5630                 4.4866                 1.3876
 Frc consts  --      1.6619                 5.1224                 1.7109
 IR Inten    --      9.5868                 7.9065                23.5170

                     52                     53                     54
                      A                      A                      A
 Frequencies --   1475.7911              1495.7416              1522.0806
 Red. masses --      2.7851                 1.3503                 1.0528
 Frc consts  --      3.5739                 1.7799                 1.4370
 IR Inten    --      4.5185                36.3712                 8.9261

                     55                     56                     57
                      A                      A                      A
 Frequencies --   1524.6045              1530.0065              1537.9442
 Red. masses --      1.5416                 1.2160                 1.1643
 Frc consts  --      2.1113                 1.6772                 1.6225
 IR Inten    --     74.3945                39.2337                 0.8812

                     58                     59                     60
                      A                      A                      A
 Frequencies --   1629.5774              1648.1201              1674.3540
 Red. masses --      6.9029                 6.4868                 7.9030
 Frc consts  --     10.8003                10.3815                13.0538
 IR Inten    --     11.3865                14.6218                54.3548

                     61                     62                     63
                      A                      A                      A
 Frequencies --   1700.3733              2988.1896              3040.9954
 Red. masses --      1.0897                 1.0710                 1.0335
 Frc consts  --      1.8562                 5.6344                 5.6311
 IR Inten    --     15.2402                52.3554                52.7543

                     64                     65                     66
                      A                      A                      A
 Frequencies --   3097.6149              3107.1068              3168.5276
 Red. masses --      1.0909                 1.1075                 1.1016
 Frc consts  --      6.1672                 6.2995                 6.5158
 IR Inten    --     27.0933                29.8302                16.9759

                     67                     68                     69
                      A                      A                      A
 Frequencies --   3205.3539              3227.5434              3239.0613
 Red. masses --      1.0881                 1.0935                 1.0921
 Frc consts  --      6.5870                 6.7115                 6.7506
 IR Inten    --      6.2632                 3.2815                 9.4720

                     70                     71                     72
                      A                      A                      A
 Frequencies --   3269.4295              3473.5013              3562.5965
 Red. masses --      1.0960                 1.0498                 1.0915
 Frc consts  --      6.9025                 7.4628                 8.1623
 IR Inten    --      4.2240                 6.7067                 4.1154

 - Thermochemistry -
 -------------------
 Temperature   298.150 Kelvin.  Pressure   1.00000 Atm.
 Atom     1 has atomic number  6 and mass  12.00000

 Molecular mass:   225.04597 amu.
 Principal axes and moments of inertia in atomic units:
                           1         2         3
     Eigenvalues --  2163.535883847.873015493.65941
           X            1.00000   0.00257   0.00089
           Y           -0.00258   0.99998   0.00629
           Z           -0.00088  -0.00629   0.99998
 This molecule is an asymmetric top.
 Rotational symmetry number  1.
 Warning -- assumption of classical behavior for rotation
           may cause significant error
 Rotational temperatures (Kelvin)      0.04003     0.02251     0.01577
 Rotational constants (GHZ):           0.83416     0.46902     0.32851
 Zero-point vibrational energy     530714.0 (Joules/Mol)
                                  126.84370 (Kcal/Mol)
 Warning -- explicit consideration of  22 degrees of freedom as
           vibrations may cause significant error
 Vibrational temperatures:     73.09   125.15   138.07   173.75   207.49
          (Kelvin)            255.31   301.32   347.39   363.82   388.30
                              405.51   421.44   435.64   473.82   565.25
                              666.12   713.50   715.89   739.55   815.91
                              836.43   858.54   931.41   944.63  1084.50
                             1087.77  1120.74  1140.03  1195.28  1266.61
                             1271.45  1278.56  1385.88  1473.18  1491.64
                             1551.81  1571.22  1601.31  1613.43  1699.20
                             1704.92  1714.17  1734.76  1757.41  1791.24
                             1872.30  1881.61  1908.95  1932.82  2002.83
                             2081.38  2123.33  2152.04  2189.93  2193.57
                             2201.34  2212.76  2344.60  2371.28  2409.02
                             2446.46  4299.34  4375.31  4456.78  4470.43
                             4558.80  4611.79  4643.72  4660.29  4703.98
                             4997.59  5125.78

 Zero-point correction=                           0.202138 (Hartree/Particle)
 Thermal correction to Energy=                    0.215919
 Thermal correction to Enthalpy=                  0.216863
 Thermal correction to Gibbs Free Energy=         0.161842
 Sum of electronic and zero-point Energies=          -1066.042477
 Sum of electronic and thermal Energies=             -1066.028697
 Sum of electronic and thermal Enthalpies=           -1066.027753
 Sum of electronic and thermal Free Energies=        -1066.082774

                     E (Thermal)             CV                S
                      KCal/Mol        Cal/Mol-Kelvin    Cal/Mol-Kelvin
 Total                  135.491             52.705            115.801
 Electronic               0.000              0.000              0.000
 Translational            0.889              2.981             42.136
 Rotational               0.889              2.981             32.192
 Vibrational            133.714             46.744             41.473
 Vibration     1          0.595              1.977              4.786
 Vibration     2          0.601              1.958              3.727
 Vibration     3          0.603              1.952              3.535
 Vibration     4          0.609              1.932              3.088
 Vibration     5          0.616              1.909              2.747
 Vibration     6          0.628              1.870              2.355
 Vibration     7          0.642              1.826              2.049
 Vibration     8          0.658              1.777              1.792
 Vibration     9          0.664              1.758              1.711
 Vibration    10          0.674              1.729              1.597
 Vibration    11          0.681              1.707              1.522
 Vibration    12          0.688              1.687              1.457
 Vibration    13          0.694              1.668              1.401
 Vibration    14          0.712              1.617              1.263
 Vibration    15          0.760              1.485              0.989
 Vibration    16          0.821              1.332              0.757
 Vibration    17          0.851              1.259              0.668
 Vibration    18          0.853              1.255              0.664
 Vibration    19          0.869              1.219              0.624
 Vibration    20          0.923              1.102              0.510
 Vibration    21          0.938              1.072              0.483
 Vibration    22          0.955              1.039              0.455

                           ! Non-Optimized Parameters !
 Normal termination of Gaussian 16 at Thu Dec 10 17:47:08 2020.

 ----------------------------------------------------------------------
 # B3LYP/6-311++G(d,p) empiricaldispersion=gd3bj scf=xqc pop=npa geom=c
 heck
 ----------------------------------------------------------------------

 ---------------------------------------
 CID_117119488_JID_5993_Energie_neutraal
 ---------------------------------------
 Structure from the checkpoint file:  "JID_5993.chk"
 Charge =  0 Multiplicity = 1

 SCF Done:  E(RB3LYP) =  -1066.46072661     A.U. after   16 cycles
 Normal termination of Gaussian 16 at Thu Dec 10 17:51:08 2020.

 ----------------------------------------------------------------------
 # B3LYP/6-311++G(d,p) empiricaldispersion=gd3bj scf=xqc pop=npa geom=c
 heck
 ----------------------------------------------------------------------

 -------------------------------------
 CID_117119488_JID_5993_Energie_kation
 -------------------------------------
 Structure from the checkpoint file:  "JID_5993.chk"
 Charge =  1 Multiplicity = 2

 SCF Done:  E(UB3LYP) =  -1066.15052179     A.U. after   29 cycles
 Normal termination of Gaussian 16 at Thu Dec 10 18:00:52 2020.
 Gaussian 16:  ES64L-G16RevA.03 25-Dec-2016

 ----------------------------------------------------------------------
 # B3LYP/6-311++G(d,p) empiricaldispersion=gd3bj scf=xqc pop=npa geom=c
 heck
 ----------------------------------------------------------------------

 ------------------------------------
 CID_117119488_JID_5993_Energie_anion
 ------------------------------------
 Structure from the checkpoint file:  "JID_5993.chk"
 Charge = -1 Multiplicity = 2

                         Standard orientation:
 ---------------------------------------------------------------------
 Center     Atomic      Atomic             Coordinates (Angstroms)
 Number     Number       Type             X           Y           Z
 ---------------------------------------------------------------------
      1          6           0       -3.922335    0.542674   -0.231734
      2          8           0       -2.643513   -0.079274   -0.190908
      3          6           0       -1.536309    0.709154   -0.062494
      4          6           0       -0.284862    0.070422   -0.076578
      5          6           0        0.851832    0.877012    0.053199
      6          6           0        0.824690    2.251266    0.195315
      7          6           0       -0.431860    2.862220    0.210472
      8          6           0       -1.595768    2.104564    0.082696
      9         16           0        2.332170   -0.142291   -0.022398
     10          8           0        3.033431   -0.133904    1.269608
     11          8           0        3.088561    0.154113   -1.248766
     12          6           0        1.359666   -1.623189   -0.216560
     13          6           0        0.040561   -1.375147   -0.228346
     14          6           0       -0.992872   -2.463855   -0.386043
     15          7           0       -1.716647   -2.686091    0.872579
     16          1           0       -4.640090   -0.268252   -0.361479
     17          1           0       -3.997809    1.237222   -1.076622
     18          1           0       -4.137159    1.075555    0.702294
     19          1           0        1.740103    2.825009    0.289313
     20          1           0       -0.510940    3.939246    0.321463
     21          1           0       -2.554227    2.608201    0.097203
     22          1           0        1.859888   -2.578573   -0.301119
     23          1           0       -1.640544   -2.206134   -1.240130
     24          1           0       -0.469416   -3.390148   -0.642109
     25          1           0       -2.297975   -3.516474    0.770287
     26          1           0       -2.354316   -1.904571    1.012193
 ---------------------------------------------------------------------

 SCF Done:  E(UB3LYP) =  -1066.48603065     A.U. after   25 cycles

 The electronic state is 2-A.
 Alpha  occ. eigenvalues --  -88.88688 -19.05005 -18.95787 -18.95758 -14.17426
 Alpha  occ. eigenvalues --  -10.13465 -10.11167 -10.07566 -10.04642 -10.04443
 Alpha  occ. eigenvalues --  -10.04394 -10.04204 -10.04150 -10.03913 -10.02739
 Alpha  occ. eigenvalues --   -7.95088  -5.91342  -5.91257  -5.91214  -0.96498
 Alpha  occ. eigenvalues --   -0.95077  -0.84654  -0.76731  -0.73907  -0.68331
 Alpha  occ. eigenvalues --   -0.64893  -0.61197  -0.58491  -0.57052  -0.51121
 Alpha  occ. eigenvalues --   -0.48290  -0.45585  -0.44136  -0.39700  -0.38215
 Alpha  occ. eigenvalues --   -0.37605  -0.36448  -0.35631  -0.34125  -0.33837
 Alpha  occ. eigenvalues --   -0.33088  -0.30625  -0.30553  -0.28161  -0.27988
 Alpha  occ. eigenvalues --   -0.27022  -0.26700  -0.25441  -0.23819  -0.22052
 Alpha  occ. eigenvalues --   -0.21390  -0.18929  -0.18053  -0.17410  -0.14774
 Alpha  occ. eigenvalues --   -0.14167  -0.12529  -0.11495  -0.09321   0.03202
 Alpha virt. eigenvalues --    0.06410   0.07949   0.09168   0.10087   0.10531
 Alpha virt. eigenvalues --    0.11269   0.11642   0.11868   0.12236   0.13046
 Alpha virt. eigenvalues --    0.14062   0.15058   0.15463   0.16207   0.16801

  Beta  occ. eigenvalues --  -88.88694 -19.05013 -18.95668 -18.95634 -14.17391
  Beta  occ. eigenvalues --  -10.13459 -10.11181 -10.07581 -10.04732 -10.04302
  Beta  occ. eigenvalues --  -10.04174 -10.04019 -10.03947 -10.03674 -10.02403
  Beta  occ. eigenvalues --   -7.95094  -5.91332  -5.91268  -5.91228  -0.96503
  Beta  occ. eigenvalues --   -0.94855  -0.84367  -0.76599  -0.73534  -0.67843
  Beta  occ. eigenvalues --   -0.64764  -0.60827  -0.58270  -0.56638  -0.50745
  Beta  occ. eigenvalues --   -0.48056  -0.45345  -0.43881  -0.39565  -0.38021
  Beta  occ. eigenvalues --   -0.37562  -0.36366  -0.35499  -0.33962  -0.33645
  Beta  occ. eigenvalues --   -0.32911  -0.30410  -0.30195  -0.27989  -0.27834
  Beta  occ. eigenvalues --   -0.26720  -0.26446  -0.25342  -0.23707  -0.21535
  Beta  occ. eigenvalues --   -0.21164  -0.18042  -0.17470  -0.16827  -0.13954
  Beta  occ. eigenvalues --   -0.13800  -0.12427  -0.10750  -0.07770
  Beta virt. eigenvalues --    0.06304   0.07806   0.09020   0.09352   0.10018
  Beta virt. eigenvalues --    0.10469   0.11248   0.11655   0.12157   0.12201
  Beta virt. eigenvalues --    0.12994   0.14023   0.15374   0.16144   0.16450

 Mulliken charges and spin densities:
               1          2
     1  C   -0.226568  -0.040302
     2  O   -0.160739   0.005690
     3  C   -0.443191   0.021601
     4  C    0.409939   0.169265
     5  C   -0.806580   0.169177
     6  C   -0.226881  -0.064953
     7  C   -0.123271   0.183852
     8  C   -0.540128   0.064742
     9  S    0.699656   0.092738
    10  O   -0.166887   0.010930
    11  O   -0.182378   0.010537
    12  C   -0.534076   0.210808
    13  C    1.066695   0.072320
    14  C   -0.858772  -0.080658
    15  N   -0.389454   0.003090
    16  H    0.103401   0.048741
    17  H    0.116539   0.018768
    18  H    0.142102  -0.001438
    19  H    0.150537   0.004849
    20  H    0.118191  -0.014426
    21  H    0.106049  -0.007112
    22  H    0.163666  -0.020676
    23  H    0.104300   0.014527
    24  H    0.133543   0.029893
    25  H    0.116339   0.088642
    26  H    0.227969   0.009396
 Sum of Mulliken charges =  -1.00000   1.00000

 Dipole moment (field-independent basis, Debye):
    X=             -8.4190    Y=              0.5557    Z=             -1.1176  Tot=              8.5110
 Quadrupole moment (field-independent basis, Debye-Ang):
   XX=           -125.6329   YY=           -108.6115   ZZ=           -115.1735
   XY=             -2.6982   XZ=              0.9954   YZ=              4.8226

 Summary of Natural Population Analysis:

                                       Natural Population
                Natural  -----------------------------------------------
    Atom  No    Charge         Core      Valence    Rydberg      Total
 -----------------------------------------------------------------------
      C    1   -0.09922      0.99961     2.09153    0.00808     3.09922
      O    2   -0.28194      0.99985     3.27287    0.00922     4.28194
      C    3    0.16144      0.99934     1.82724    0.01197     2.83856
      C    4   -0.02147      0.99940     2.01025    0.01182     3.02147
      C    5   -0.06821      0.99938     2.05041    0.01842     3.06821
      C    6   -0.09637      0.99951     2.09097    0.00589     3.09637
      C    7   -0.06843      0.99962     2.05461    0.01420     3.06843
      C    8   -0.13446      0.99954     2.12727    0.00766     3.13446
      S    9    1.02327      4.99915     1.87999    0.09759     6.97673
      O   10   -0.46252      0.99991     3.45676    0.00585     4.46252
      O   11   -0.46377      0.99991     3.45804    0.00582     4.46377
      C   12   -0.14459      0.99936     2.13547    0.00976     3.14459
      C   13    0.02529      0.99946     1.96428    0.01097     2.97471
      C   14   -0.10001      0.99959     2.08655    0.01387     3.10001
      N   15   -0.41910      0.99977     2.90819    0.01115     3.91910
      H   16    0.08814      0.00000     0.41078    0.00108     0.41186
      H   17    0.08259      0.00000     0.41525    0.00215     0.41741
      H   18    0.08202      0.00000     0.41638    0.00160     0.41798
      H   19    0.10042      0.00000     0.39840    0.00119     0.39958
      H   20    0.08676      0.00000     0.41037    0.00287     0.41324
      H   21    0.09332      0.00000     0.40560    0.00109     0.40668
      H   22    0.10005      0.00000     0.39884    0.00111     0.39995
      H   23    0.08589      0.00000     0.41249    0.00162     0.41411
      H   24    0.08834      0.00000     0.41020    0.00145     0.41166
      H   25    0.16446      0.00000     0.33343    0.00211     0.33554
      H   26    0.17816      0.00000     0.31972    0.00212     0.32184
 =======================================================================
   * Total *    0.00006     18.99340    39.74588    0.26065    58.99994

 Normal termination of Gaussian 16 at Thu Dec 10 18:08:51 2020.
