 Gaussian 16, Revision A.03,

 -----------------------------------------------------------
 # opt freq B3LYP/6-31G(d) empiricaldispersion=gd3bj scf=xqc
 -----------------------------------------------------------

 ------------------------------
 CID_43684718_JID_9908_neutraal
 ------------------------------
 Symbolic Z-matrix:
 Charge =  0 Multiplicity = 1

 SCF Done:  E(RB3LYP) =  -1204.86701330     A.U. after   14 cycles
 SCF Done:  E(RB3LYP) =  -1204.87325826     A.U. after   12 cycles
 SCF Done:  E(RB3LYP) =  -1204.87399652     A.U. after   12 cycles
 SCF Done:  E(RB3LYP) =  -1204.87443022     A.U. after   11 cycles
 SCF Done:  E(RB3LYP) =  -1204.87464864     A.U. after   11 cycles
 SCF Done:  E(RB3LYP) =  -1204.87481705     A.U. after   11 cycles
 SCF Done:  E(RB3LYP) =  -1204.87496576     A.U. after   12 cycles
 SCF Done:  E(RB3LYP) =  -1204.87503393     A.U. after   11 cycles
 SCF Done:  E(RB3LYP) =  -1204.87508320     A.U. after   11 cycles
 SCF Done:  E(RB3LYP) =  -1204.87511437     A.U. after   10 cycles
 SCF Done:  E(RB3LYP) =  -1204.87515139     A.U. after   11 cycles
 SCF Done:  E(RB3LYP) =  -1204.87515356     A.U. after    9 cycles
 SCF Done:  E(RB3LYP) =  -1204.87515406     A.U. after   10 cycles
 SCF Done:  E(RB3LYP) =  -1204.87515420     A.U. after    7 cycles
 SCF Done:  E(RB3LYP) =  -1204.87515420     A.U. after    7 cycles
 Optimization completed.
    -- Stationary point found.
 Normal termination of Gaussian 16 at Sat Dec 12 10:20:53 2020.

 --------------------------------------------------------------------
 #N Geom=AllCheck Guess=TCheck SCRF=Check GenChk RB3LYP/6-31G(d) Freq
 --------------------------------------------------------------------

 Structure from the checkpoint file:  "JID_9908.chk"
 ------------------------------
 CID_43684718_JID_9908_neutraal
 ------------------------------
 Charge =  0 Multiplicity = 1

 SCF Done:  E(RB3LYP) =  -1204.87515420     A.U. after    1 cycles

  Exact polarizability: 216.797  -1.013 189.969  11.925  11.766 134.256
 Approx polarizability: 301.273  -2.075 292.575  30.995  30.261 215.762

                      1                      2                      3
                      A                      A                      A
 Frequencies --      9.6223                16.2082                31.0095
 Red. masses --      6.1536                 4.1507                 3.7729
 Frc consts  --      0.0003                 0.0006                 0.0021
 IR Inten    --      0.3246                 0.5323                 0.5065

                      4                      5                      6
                      A                      A                      A
 Frequencies --     62.6726                84.9158                89.7626
 Red. masses --      2.9891                 3.2532                 1.4123
 Frc consts  --      0.0069                 0.0138                 0.0067
 IR Inten    --      2.6112                 3.1318                27.3988

                      7                      8                      9
                      A                      A                      A
 Frequencies --    110.1776               139.3945               166.2041
 Red. masses --      3.4017                 4.3770                 3.1279
 Frc consts  --      0.0243                 0.0501                 0.0509
 IR Inten    --      5.9546                 0.4678                 1.0260

                     10                     11                     12
                      A                      A                      A
 Frequencies --    171.3419               202.2451               213.9506
 Red. masses --      1.1161                 1.1722                 1.1795
 Frc consts  --      0.0193                 0.0283                 0.0318
 IR Inten    --      0.2566                 0.2863                 0.2556

                     13                     14                     15
                      A                      A                      A
 Frequencies --    219.6577               235.7469               256.6742
 Red. masses --      2.6526                 2.8821                 2.5646
 Frc consts  --      0.0754                 0.0944                 0.0995
 IR Inten    --      0.5522                 2.2812                 0.1463

                     16                     17                     18
                      A                      A                      A
 Frequencies --    262.7505               273.4356               289.8847
 Red. masses --      2.3313                 2.5239                 2.8431
 Frc consts  --      0.0948                 0.1112                 0.1408
 IR Inten    --      1.4135                 1.0846                 0.1228

                     19                     20                     21
                      A                      A                      A
 Frequencies --    316.0220               331.4119               346.1332
 Red. masses --      2.7880                 2.6644                 2.6853
 Frc consts  --      0.1641                 0.1724                 0.1895
 IR Inten    --      2.5082                 0.7656                 0.1538

                     22                     23                     24
                      A                      A                      A
 Frequencies --    350.7419               362.2263               367.8500
 Red. masses --      3.0919                 2.1269                 2.8170
 Frc consts  --      0.2241                 0.1644                 0.2246
 IR Inten    --      6.6068                 0.7372                 2.8260

                     25                     26                     27
                      A                      A                      A
 Frequencies --    377.3694               404.6733               467.4051
 Red. masses --      2.7016                 3.4834                 8.2460
 Frc consts  --      0.2267                 0.3361                 1.0614
 IR Inten    --      0.2081                 0.0623                 5.1069

                     28                     29                     30
                      A                      A                      A
 Frequencies --    479.6145               501.3419               523.7659
 Red. masses --      3.1303                 3.2631                 4.6027
 Frc consts  --      0.4243                 0.4832                 0.7439
 IR Inten    --      7.2863                 2.5999                50.8292

                     31                     32                     33
                      A                      A                      A
 Frequencies --    554.3840               566.1036               571.1037
 Red. masses --      3.7637                 3.9414                 3.8889
 Frc consts  --      0.6815                 0.7442                 0.7473
 IR Inten    --     20.9935                17.7234                65.0223

                     34                     35                     36
                      A                      A                      A
 Frequencies --    608.0840               646.5570               673.2059
 Red. masses --      3.7482                 4.1817                 2.9604
 Frc consts  --      0.8166                 1.0300                 0.7905
 IR Inten    --     11.2104                33.3703                 0.9848

                     37                     38                     39
                      A                      A                      A
 Frequencies --    682.1971               723.9491               744.4452
 Red. masses --      3.1378                 3.5028                 3.5496
 Frc consts  --      0.8604                 1.0816                 1.1590
 IR Inten    --    253.7873                 9.4902                 0.6343

                     40                     41                     42
                      A                      A                      A
 Frequencies --    800.3290               805.6188               863.8068
 Red. masses --      1.0524                 1.9685                 2.0720
 Frc consts  --      0.3972                 0.7528                 0.9109
 IR Inten    --      2.9691                69.7284                73.1674

                     43                     44                     45
                      A                      A                      A
 Frequencies --    872.8727               881.9997               887.3487
 Red. masses --      1.3472                 2.4650                 1.5864
 Frc consts  --      0.6048                 1.1298                 0.7360
 IR Inten    --     14.0166                 7.9634                34.4641

                     46                     47                     48
                      A                      A                      A
 Frequencies --    890.3675               922.1858               934.0278
 Red. masses --      1.7048                 3.1399                 1.9506
 Frc consts  --      0.7963                 1.5733                 1.0026
 IR Inten    --      3.2088                72.8778                12.2931

                     49                     50                     51
                      A                      A                      A
 Frequencies --    949.5900               959.0028               987.2293
 Red. masses --      1.3767                 1.6893                 2.1078
 Frc consts  --      0.7314                 0.9154                 1.2104
 IR Inten    --      2.4141                 3.9453                 3.1517

                     52                     53                     54
                      A                      A                      A
 Frequencies --   1030.6889              1041.9716              1058.3037
 Red. masses --      1.4285                 1.3089                 1.4290
 Frc consts  --      0.8941                 0.8373                 0.9430
 IR Inten    --      7.3276                 5.5607                 4.2009

                     55                     56                     57
                      A                      A                      A
 Frequencies --   1069.3413              1083.5767              1084.4261
 Red. masses --      1.4646                 1.6125                 2.0354
 Frc consts  --      0.9867                 1.1155                 1.4103
 IR Inten    --     11.8343                 1.5815                23.4615

                     58                     59                     60
                      A                      A                      A
 Frequencies --   1089.7940              1106.1772              1113.3732
 Red. masses --      1.4386                 1.7240                 2.4578
 Frc consts  --      1.0066                 1.2429                 1.7950
 IR Inten    --      0.5727                34.6050                34.7501

                     61                     62                     63
                      A                      A                      A
 Frequencies --   1119.2158              1133.8821              1141.9798
 Red. masses --      2.2557                 2.5346                 1.9227
 Frc consts  --      1.6648                 1.9200                 1.4773
 IR Inten    --     16.6251               107.3763                 8.3470

                     64                     65                     66
                      A                      A                      A
 Frequencies --   1143.6868              1166.6349              1202.2645
 Red. masses --      2.6539                 2.1094                 1.3196
 Frc consts  --      2.0452                 1.6915                 1.1238
 IR Inten    --    108.3897                34.0190                 1.6252

                     67                     68                     69
                      A                      A                      A
 Frequencies --   1225.0499              1266.7665              1283.9436
 Red. masses --      2.8715                 1.5544                 1.8682
 Frc consts  --      2.5390                 1.4696                 1.8145
 IR Inten    --      3.5092                 4.7656                 1.8135

                     70                     71                     72
                      A                      A                      A
 Frequencies --   1319.0252              1340.4612              1345.1216
 Red. masses --      3.3372                 7.6819                 2.7514
 Frc consts  --      3.4209                 8.1326                 2.9331
 IR Inten    --     71.9455               101.1649                25.8173

                     73                     74                     75
                      A                      A                      A
 Frequencies --   1355.5136              1368.2398              1398.3061
 Red. masses --      2.3682                 2.1527                 1.5367
 Frc consts  --      2.5637                 2.3744                 1.7703
 IR Inten    --     31.5072                14.1491                 2.2726

                     76                     77                     78
                      A                      A                      A
 Frequencies --   1434.8155              1437.6428              1447.2018
 Red. masses --      1.2828                 1.2864                 1.2309
 Frc consts  --      1.5560                 1.5665                 1.5189
 IR Inten    --      1.7910                13.2436                 1.4933

                     79                     80                     81
                      A                      A                      A
 Frequencies --   1448.3226              1454.7923              1479.1989
 Red. masses --      1.3006                 2.7497                 2.0944
 Frc consts  --      1.6074                 3.4287                 2.7000
 IR Inten    --      3.6092                18.1920                54.9337

                     82                     83                     84
                      A                      A                      A
 Frequencies --   1494.6220              1511.0532              1518.1179
 Red. masses --      1.0843                 1.0694                 1.1125
 Frc consts  --      1.4271                 1.4386                 1.5106
 IR Inten    --      1.7295                 6.9108                30.1986

                     85                     86                     87
                      A                      A                      A
 Frequencies --   1522.2640              1524.0922              1527.0896
 Red. masses --      1.0580                 1.1204                 1.1002
 Frc consts  --      1.4445                 1.5334                 1.5117
 IR Inten    --      5.7834                 3.4733                10.9987

                     88                     89                     90
                      A                      A                      A
 Frequencies --   1529.8998              1536.1085              1537.6673
 Red. masses --      1.0991                 1.0580                 1.0760
 Frc consts  --      1.5156                 1.4709                 1.4990
 IR Inten    --     14.9819                 0.4846                26.0849

                     91                     92                     93
                      A                      A                      A
 Frequencies --   1544.0692              1555.9350              1618.5552
 Red. masses --      1.2627                 1.5430                 1.1005
 Frc consts  --      1.7737                 2.2009                 1.6986
 IR Inten    --      3.3160                22.0738                31.2411

                     94                     95                     96
                      A                      A                      A
 Frequencies --   1638.8646              1649.7176              3036.9822
 Red. masses --      6.3715                 4.8550                 1.0481
 Frc consts  --     10.0828                 7.7849                 5.6955
 IR Inten    --     46.4925                 3.3258                20.2975

                     97                     98                     99
                      A                      A                      A
 Frequencies --   3043.2665              3044.0889              3050.1871
 Red. masses --      1.0418                 1.0394                 1.0425
 Frc consts  --      5.6847                 5.6749                 5.7143
 IR Inten    --     23.3015                31.5738                17.8031

                    100                    101                    102
                      A                      A                      A
 Frequencies --   3091.3699              3095.1823              3102.6324
 Red. masses --      1.0832                 1.0989                 1.0881
 Frc consts  --      6.0988                 6.2030                 6.1716
 IR Inten    --      9.3714                22.7920                25.6761

                    103                    104                    105
                      A                      A                      A
 Frequencies --   3104.8004              3122.3442              3133.5550
 Red. masses --      1.0980                 1.0941                 1.0560
 Frc consts  --      6.2360                 6.2848                 6.1090
 IR Inten    --     15.1295                31.2358                14.6465

                    106                    107                    108
                      A                      A                      A
 Frequencies --   3134.9378              3142.8637              3144.4842
 Red. masses --      1.1004                 1.0977                 1.1013
 Frc consts  --      6.3715                 6.3880                 6.4161
 IR Inten    --     19.0442                13.5495                 4.7367

                    109                    110                    111
                      A                      A                      A
 Frequencies --   3145.9096              3153.4041              3212.4563
 Red. masses --      1.1014                 1.0589                 1.1159
 Frc consts  --      6.4222                 6.2042                 6.7850
 IR Inten    --     17.3407                34.2126                 4.6165

                    112                    113                    114
                      A                      A                      A
 Frequencies --   3218.0181              3221.8893              3236.3165
 Red. masses --      1.0905                 1.0908                 1.1145
 Frc consts  --      6.6537                 6.6714                 6.8777
 IR Inten    --      3.7892                 0.7785                16.1523

                    115                    116                    117
                      A                      A                      A
 Frequencies --   3492.6998              3509.9202              3604.6187
 Red. masses --      1.0468                 1.0734                 1.0978
 Frc consts  --      7.5236                 7.7912                 8.4042
 IR Inten    --     35.5941                 0.7582                31.1849

 - Thermochemistry -
 -------------------
 Temperature   298.150 Kelvin.  Pressure   1.00000 Atm.
 Atom     1 has atomic number  6 and mass  12.00000

 Molecular mass:   282.14020 amu.
 Principal axes and moments of inertia in atomic units:
                           1         2         3
     Eigenvalues --  3723.087017741.243699851.47189
           X            0.99976   0.02191  -0.00256
           Y           -0.02188   0.99969   0.01187
           Z            0.00282  -0.01181   0.99993
 This molecule is an asymmetric top.
 Rotational symmetry number  1.
 Warning -- assumption of classical behavior for rotation
           may cause significant error
 Rotational temperatures (Kelvin)      0.02326     0.01119     0.00879
 Rotational constants (GHZ):           0.48474     0.23313     0.18320
 Zero-point vibrational energy     915910.8 (Joules/Mol)
                                  218.90792 (Kcal/Mol)
 Warning -- explicit consideration of  34 degrees of freedom as
           vibrations may cause significant error
 Vibrational temperatures:     13.84    23.32    44.62    90.17   122.17
          (Kelvin)            129.15   158.52   200.56   239.13   246.52
                              290.99   307.83   316.04   339.19   369.30
                              378.04   393.41   417.08   454.69   476.83
                              498.01   504.64   521.16   529.25   542.95
                              582.23   672.49   690.06   721.32   753.58
                              797.63   814.50   821.69   874.90   930.25
                              968.59   981.53  1041.60  1071.09  1151.49
                             1159.11  1242.83  1255.87  1269.00  1276.70
                             1281.04  1326.82  1343.86  1366.25  1379.79
                             1420.40  1482.93  1499.16  1522.66  1538.54
                             1559.03  1560.25  1567.97  1591.54  1601.90
                             1610.30  1631.40  1643.05  1645.51  1678.53
                             1729.79  1762.57  1822.59  1847.31  1897.78
                             1928.62  1935.33  1950.28  1968.59  2011.85
                             2064.38  2068.45  2082.20  2083.81  2093.12
                             2128.24  2150.43  2174.07  2184.23  2190.20
                             2192.83  2197.14  2201.18  2210.12  2212.36
                             2221.57  2238.64  2328.74  2357.96  2373.58
                             4369.54  4378.58  4379.76  4388.54  4447.79
                             4453.28  4464.00  4467.12  4492.36  4508.49
                             4510.48  4521.88  4524.21  4526.26  4537.05
                             4622.01  4630.01  4635.58  4656.34  5025.22
                             5049.99  5186.24

 Zero-point correction=                           0.348852 (Hartree/Particle)
 Thermal correction to Energy=                    0.369546
 Thermal correction to Enthalpy=                  0.370490
 Thermal correction to Gibbs Free Energy=         0.297639
 Sum of electronic and zero-point Energies=          -1204.526302
 Sum of electronic and thermal Energies=             -1204.505608
 Sum of electronic and thermal Enthalpies=           -1204.504664
 Sum of electronic and thermal Free Energies=        -1204.577515

                     E (Thermal)             CV                S
                      KCal/Mol        Cal/Mol-Kelvin    Cal/Mol-Kelvin
 Total                  231.894             78.634            153.328
 Electronic               0.000              0.000              0.000
 Translational            0.889              2.981             42.810
 Rotational               0.889              2.981             34.006
 Vibrational            230.116             72.672             76.512
 Vibration     1          0.593              1.987              8.088
 Vibration     2          0.593              1.986              7.052
 Vibration     3          0.594              1.984              5.764
 Vibration     4          0.597              1.972              4.371
 Vibration     5          0.601              1.960              3.774
 Vibration     6          0.602              1.956              3.665
 Vibration     7          0.606              1.941              3.266
 Vibration     8          0.615              1.914              2.812
 Vibration     9          0.624              1.884              2.478
 Vibration    10          0.626              1.878              2.421
 Vibration    11          0.639              1.837              2.113
 Vibration    12          0.644              1.820              2.010
 Vibration    13          0.647              1.811              1.962
 Vibration    14          0.655              1.786              1.835
 Vibration    15          0.666              1.752              1.684
 Vibration    16          0.670              1.741              1.643
 Vibration    17          0.676              1.722              1.574
 Vibration    18          0.686              1.693              1.475
 Vibration    19          0.703              1.643              1.331
 Vibration    20          0.714              1.613              1.253
 Vibration    21          0.724              1.583              1.184
 Vibration    22          0.728              1.574              1.163
 Vibration    23          0.736              1.550              1.113
 Vibration    24          0.740              1.538              1.089
 Vibration    25          0.748              1.518              1.050
 Vibration    26          0.770              1.460              0.946
 Vibration    27          0.825              1.322              0.745
 Vibration    28          0.836              1.295              0.711
 Vibration    29          0.857              1.247              0.655
 Vibration    30          0.879              1.197              0.601
 Vibration    31          0.910              1.130              0.535
 Vibration    32          0.922              1.105              0.512
 Vibration    33          0.927              1.094              0.502
 Vibration    34          0.967              1.015              0.436

 Optimization completed.
    -- Stationary point found.
 Normal termination of Gaussian 16 at Sat Dec 12 10:43:10 2020.

 ----------------------------------------------------------------------
 # B3LYP/6-311++G(d,p) empiricaldispersion=gd3bj scf=xqc pop=npa geom=c
 heck
 ----------------------------------------------------------------------

 --------------------------------------
 CID_43684718_JID_9908_Energie_neutraal
 --------------------------------------
 Structure from the checkpoint file:  "JID_9908.chk"
 Charge =  0 Multiplicity = 1

 SCF Done:  E(RB3LYP) =  -1205.13082569     A.U. after   16 cycles
 Normal termination of Gaussian 16 at Sat Dec 12 10:54:51 2020.

 ----------------------------------------------------------------------
 # B3LYP/6-311++G(d,p) empiricaldispersion=gd3bj scf=xqc pop=npa geom=c
 heck
 ----------------------------------------------------------------------

 ------------------------------------
 CID_43684718_JID_9908_Energie_kation
 ------------------------------------
 Structure from the checkpoint file:  "JID_9908.chk"
 Charge =  1 Multiplicity = 2

 SCF Done:  E(UB3LYP) =  -1204.84798386     A.U. after   23 cycles
 Normal termination of Gaussian 16 at Sat Dec 12 11:18:54 2020.
 Gaussian 16:  ES64L-G16RevA.03 25-Dec-2016

 ----------------------------------------------------------------------
 # B3LYP/6-311++G(d,p) empiricaldispersion=gd3bj scf=xqc pop=npa geom=c
 heck
 ----------------------------------------------------------------------

 -----------------------------------
 CID_43684718_JID_9908_Energie_anion
 -----------------------------------
 Structure from the checkpoint file:  "JID_9908.chk"
 Charge = -1 Multiplicity = 2

                         Standard orientation:
 ---------------------------------------------------------------------
 Center     Atomic      Atomic             Coordinates (Angstroms)
 Number     Number       Type             X           Y           Z
 ---------------------------------------------------------------------
      1          6           0        1.115728    3.670500    0.882884
      2          6           0        0.885822    2.280318    0.340537
      3          6           0        1.912321    1.337099    0.422590
      4          6           0        1.710301    0.061390   -0.096185
      5          6           0        0.494234   -0.314960   -0.648235
      6          6           0       -0.550633    0.616516   -0.712671
      7          6           0       -0.345108    1.936665   -0.254026
      8          6           0       -1.428838    2.970377   -0.418514
      9          7           0       -1.791662    0.235796   -1.270262
     10          6           0       -2.968878    0.104928   -0.375571
     11          6           0       -4.199625   -0.052640   -1.268552
     12          6           0       -2.786604   -0.995647    0.688096
     13          6           0       -3.848339   -2.051959    0.908497
     14          6           0       -2.557070   -2.413747    0.217541
     15          6           0       -2.031277   -0.548790    1.930836
     16         16           0        3.027311   -1.137962   -0.007452
     17          8           0        3.851329   -0.834499    1.166779
     18          8           0        2.438941   -2.465227   -0.223181
     19          7           0        3.988117   -0.761663   -1.359950
     20          1           0        1.106586    4.422708    0.083751
     21          1           0        0.338595    3.958674    1.600421
     22          1           0        2.083038    3.735947    1.388330
     23          1           0        2.858245    1.588781    0.889012
     24          1           0        0.342986   -1.336813   -0.978835
     25          1           0       -2.109071    2.677841   -1.222258
     26          1           0       -2.022884    3.098850    0.496833
     27          1           0       -1.007168    3.950419   -0.661397
     28          1           0       -1.680595   -0.644222   -1.768209
     29          1           0       -3.066649    1.055421    0.156917
     30          1           0       -4.177323   -0.997602   -1.826413
     31          1           0       -5.121026   -0.029724   -0.680547
     32          1           0       -4.226661    0.761753   -1.997702
     33          1           0       -4.001773   -2.396733    1.927788
     34          1           0       -4.752443   -2.037228    0.309309
     35          1           0       -2.608251   -2.622344   -0.849482
     36          1           0       -1.822767   -3.016168    0.745044
     37          1           0       -1.023332   -0.197323    1.695950
     38          1           0       -2.565872    0.267094    2.434407
     39          1           0       -1.936505   -1.373826    2.645260
     40          1           0        4.955340   -0.683408   -1.051320
     41          1           0        3.891003   -1.496149   -2.058279
 ---------------------------------------------------------------------

 SCF Done:  E(UB3LYP) =  -1205.12409436     A.U. after   33 cycles
 SCF Done:  E(UB3LYP) =  -1205.12409436     a.u. after    1 cycles

 The electronic state is 2-A.
 Alpha  occ. eigenvalues --  -88.95078 -19.00779 -19.00747 -14.23165 -14.21176
 Alpha  occ. eigenvalues --  -10.11327 -10.09947 -10.09375 -10.08186 -10.08091
 Alpha  occ. eigenvalues --  -10.08063 -10.07666 -10.07276 -10.07214 -10.06452
 Alpha  occ. eigenvalues --  -10.06400 -10.06391 -10.06330 -10.06183  -8.01267
 Alpha  occ. eigenvalues --   -5.97572  -5.97535  -5.97314  -1.00938  -0.90179
 Alpha  occ. eigenvalues --   -0.83299  -0.80018  -0.77509  -0.75001  -0.68703
 Alpha  occ. eigenvalues --   -0.67194  -0.63797  -0.61963  -0.60133  -0.58728
 Alpha  occ. eigenvalues --   -0.54051  -0.53554  -0.51527  -0.49177  -0.47126
 Alpha  occ. eigenvalues --   -0.45187  -0.42648  -0.41849  -0.41375  -0.39723
 Alpha  occ. eigenvalues --   -0.38675  -0.37900  -0.36223  -0.35589  -0.35406
 Alpha  occ. eigenvalues --   -0.33855  -0.33674  -0.32180  -0.31725  -0.31008
 Alpha  occ. eigenvalues --   -0.30531  -0.29678  -0.29347  -0.29073  -0.28596
 Alpha  occ. eigenvalues --   -0.27851  -0.26772  -0.25883  -0.25444  -0.25243
 Alpha  occ. eigenvalues --   -0.24810  -0.24156  -0.21849  -0.21260  -0.20346
 Alpha  occ. eigenvalues --   -0.20207  -0.19483  -0.18910  -0.17362  -0.14256
 Alpha  occ. eigenvalues --   -0.11225   0.04162
 Alpha virt. eigenvalues --    0.05760   0.06424   0.06798   0.07548   0.08038
 Alpha virt. eigenvalues --    0.08628   0.09215   0.09621   0.09806   0.10287
 Alpha virt. eigenvalues --    0.10746   0.11025   0.11482   0.11744   0.12599

  Beta  occ. eigenvalues --  -88.95061 -19.00750 -19.00717 -14.23073 -14.21182
  Beta  occ. eigenvalues --  -10.11320 -10.09967 -10.09376 -10.08081 -10.08055
  Beta  occ. eigenvalues --  -10.08026 -10.07681 -10.07270 -10.07193 -10.06332
  Beta  occ. eigenvalues --  -10.06321 -10.06319 -10.06234 -10.06183  -8.01249
  Beta  occ. eigenvalues --   -5.97529  -5.97511  -5.97307  -1.00857  -0.90126
  Beta  occ. eigenvalues --   -0.83274  -0.79855  -0.77477  -0.74825  -0.68456
  Beta  occ. eigenvalues --   -0.67097  -0.63680  -0.61943  -0.59958  -0.58593
  Beta  occ. eigenvalues --   -0.53921  -0.53476  -0.51494  -0.49139  -0.46937
  Beta  occ. eigenvalues --   -0.45108  -0.42549  -0.41732  -0.41350  -0.39582
  Beta  occ. eigenvalues --   -0.38613  -0.37812  -0.36185  -0.35521  -0.35280
  Beta  occ. eigenvalues --   -0.33802  -0.33515  -0.32158  -0.31700  -0.30956
  Beta  occ. eigenvalues --   -0.30422  -0.29626  -0.29323  -0.29024  -0.28560
  Beta  occ. eigenvalues --   -0.27823  -0.26726  -0.25746  -0.25281  -0.25068
  Beta  occ. eigenvalues --   -0.24583  -0.24096  -0.21711  -0.21165  -0.20311
  Beta  occ. eigenvalues --   -0.20124  -0.19291  -0.18895  -0.17152  -0.13468
  Beta  occ. eigenvalues --   -0.10772
  Beta virt. eigenvalues --    0.06122   0.06849   0.07052   0.07555   0.07923
  Beta virt. eigenvalues --    0.08541   0.08747   0.09236   0.09808   0.09864
  Beta virt. eigenvalues --    0.10612   0.10903   0.11058   0.11518   0.11800

 Mulliken charges and spin densities:
               1          2
     1  C   -0.321177  -0.239708
     2  C   -0.212068   0.288740
     3  C   -0.522573   0.174880
     4  C   -0.080246  -0.169623
     5  C   -0.575081   0.158680
     6  C   -0.091686   0.236071
     7  C   -0.518394   0.649604
     8  C    0.195634  -0.792171
     9  N    0.149162   0.026220
    10  C   -0.574627   0.015053
    11  C    0.595589  -1.078833
    12  C   -0.336952   1.082281
    13  C    0.214072  -0.446971
    14  C   -0.264691  -0.261298
    15  C   -0.468950  -0.327853
    16  S    1.417323  -0.997361
    17  O   -0.246479   0.016230
    18  O   -0.218883   0.014737
    19  N   -0.242939  -0.043131
    20  H    0.091593   0.064144
    21  H    0.113261   0.044288
    22  H    0.060607   0.076985
    23  H    0.134143   0.080602
    24  H    0.155261   0.065903
    25  H    0.061854   0.093991
    26  H   -0.198265   0.399221
    27  H    0.126857   0.012195
    28  H    0.218623   0.028490
    29  H    0.067382   0.057251
    30  H   -0.055075   0.198472
    31  H   -0.203437   0.356164
    32  H    0.101983   0.052181
    33  H   -0.021614   0.156972
    34  H   -0.030967   0.169366
    35  H    0.132476  -0.000110
    36  H    0.142268   0.034447
    37  H    0.240085  -0.090698
    38  H   -0.117708   0.281333
    39  H    0.134646  -0.011822
    40  H   -0.028470   0.322117
    41  H   -0.022538   0.302960
 Sum of Mulliken charges =  -1.00000   1.00000

 Dipole moment (field-independent basis, Debye):
    X=             -2.0145    Y=              0.7668    Z=             -0.7008  Tot=              2.2666
 Quadrupole moment (field-independent basis, Debye-Ang):
   XX=           -208.1343   YY=           -161.1511   ZZ=           -151.4005
   XY=             13.8116   XZ=              2.4182   YZ=              0.8336

 Summary of Natural Population Analysis:

                                       Natural Population
                Natural  -----------------------------------------------
    Atom  No    Charge         Core      Valence    Rydberg      Total
 -----------------------------------------------------------------------
      C    1   -0.29101      0.99964     2.28672    0.00464     3.29101
      C    2   -0.01634      0.99949     2.00757    0.00928     3.01634
      C    3   -0.09239      0.99946     2.08350    0.00942     3.09239
      C    4   -0.10578      0.99936     2.09202    0.01440     3.10578
      C    5   -0.10071      0.99946     2.09258    0.00868     3.10071
      C    6    0.08144      0.99944     1.90766    0.01145     2.91856
      C    7    0.01624      0.99944     1.97548    0.00885     2.98376
      C    8   -0.30327      0.99964     2.29769    0.00593     3.30327
      N    9   -0.33073      0.99970     2.81961    0.01142     3.83073
      C   10   -0.00742      0.99953     1.99460    0.01329     3.00742
      C   11   -0.28789      0.99964     2.28128    0.00696     3.28789
      C   12   -0.04977      0.99955     2.03804    0.01217     3.04977
      C   13   -0.19619      0.99959     2.18816    0.00843     3.19619
      C   14   -0.19830      0.99958     2.19066    0.00806     3.19830
      C   15   -0.28133      0.99962     2.27536    0.00635     3.28133
      S   16    1.09961      4.99925     1.80108    0.10006     6.90039
      O   17   -0.46917      0.99991     3.46363    0.00562     4.46917
      O   18   -0.47007      0.99991     3.46471    0.00545     4.47007
      N   19   -0.51281      0.99978     3.00212    0.01091     4.01281
      H   20    0.10039      0.00000     0.39840    0.00121     0.39961
      H   21    0.10201      0.00000     0.39692    0.00108     0.39799
      H   22    0.10079      0.00000     0.39840    0.00081     0.39921
      H   23    0.10694      0.00000     0.39197    0.00110     0.39306
      H   24    0.10908      0.00000     0.38913    0.00179     0.39092
      H   25    0.10902      0.00000     0.38989    0.00109     0.39098
      H   26    0.10689      0.00000     0.39138    0.00173     0.39311
      H   27    0.10092      0.00000     0.39827    0.00080     0.39908
      H   28    0.17528      0.00000     0.32246    0.00226     0.32472
      H   29    0.10122      0.00000     0.39667    0.00210     0.39878
      H   30    0.09450      0.00000     0.40459    0.00091     0.40550
      H   31    0.10204      0.00000     0.39695    0.00101     0.39796
      H   32    0.10583      0.00000     0.39313    0.00103     0.39417
      H   33    0.10004      0.00000     0.39906    0.00090     0.39996
      H   34    0.10295      0.00000     0.39608    0.00097     0.39705
      H   35    0.09805      0.00000     0.40096    0.00099     0.40195
      H   36    0.10557      0.00000     0.39357    0.00085     0.39443
      H   37    0.11168      0.00000     0.38716    0.00116     0.38832
      H   38    0.09868      0.00000     0.40037    0.00095     0.40132
      H   39    0.09636      0.00000     0.40281    0.00083     0.40364
      H   40    0.19475      0.00000     0.30195    0.00330     0.30525
      H   41    0.19289      0.00000     0.30456    0.00255     0.30711
 =======================================================================
   * Total *    0.00000     22.99199    52.71719    0.29082    76.00000

 Normal termination of Gaussian 16 at Sat Dec 12 11:54:02 2020.
