 Gaussian 16, Revision A.03,

 -----------------------------------------------------------
 # opt freq B3LYP/6-31G(d) empiricaldispersion=gd3bj scf=xqc
 -----------------------------------------------------------

 ------------------------------
 CID_141384062_JID_416_neutraal
 ------------------------------
 Symbolic Z-matrix:
 Charge =  0 Multiplicity = 1

 SCF Done:  E(RB3LYP) =  -421.548273347     A.U. after   14 cycles
 SCF Done:  E(RB3LYP) =  -421.558626946     A.U. after   13 cycles
 SCF Done:  E(RB3LYP) =  -421.561449495     A.U. after   13 cycles
 SCF Done:  E(RB3LYP) =  -421.561913685     A.U. after   12 cycles
 SCF Done:  E(RB3LYP) =  -421.562241671     A.U. after   11 cycles
 SCF Done:  E(RB3LYP) =  -421.562349436     A.U. after   11 cycles
 SCF Done:  E(RB3LYP) =  -421.562372651     A.U. after   10 cycles
 SCF Done:  E(RB3LYP) =  -421.562382135     A.U. after   10 cycles
 SCF Done:  E(RB3LYP) =  -421.562387650     A.U. after    8 cycles
 SCF Done:  E(RB3LYP) =  -421.562394340     A.U. after   10 cycles
 SCF Done:  E(RB3LYP) =  -421.562407563     A.U. after    8 cycles
 SCF Done:  E(RB3LYP) =  -421.562407829     A.U. after    7 cycles
 SCF Done:  E(RB3LYP) =  -421.562408240     A.U. after    7 cycles
 SCF Done:  E(RB3LYP) =  -421.562408457     A.U. after    7 cycles
 SCF Done:  E(RB3LYP) =  -421.562408494     A.U. after    7 cycles
 Optimization completed.
    -- Stationary point found.

 1\1\GINC-NODE201\FOpt\RB3LYP\6-31G(d)\C8H12N2\VSC10255\08-Dec-2020\0\\
 # opt freq B3LYP/6-31G(d) empiricaldispersion=gd3bj scf=xqc\\CID_14138
 4062_JID_416_neutraal\\0,1\C,1.0342090603,0.0896090627,-0.018363226\C,
 0.5344890146,0.0018096868,-1.4384174934\C,0.2485622631,-1.1569004324,-
 2.0979713428\C,-0.2351608459,-1.1023605675,-3.4815634014\N,-0.46569647
 82,-2.231243048,-4.0760605386\N,-0.860086255,-2.1723286437,-5.39920287
 43\C,-0.4342710038,0.2232256942,-4.1857633994\C,-0.0678385591,1.419546
 0542,-3.3682177498\C,0.3718027206,1.2937377188,-2.1088593863\C,0.39524

 Normal termination of Gaussian 16 at Tue Dec  8 10:49:03 2020.

 --------------------------------------------------------------------
 #N Geom=AllCheck Guess=TCheck SCRF=Check GenChk RB3LYP/6-31G(d) Freq
 --------------------------------------------------------------------

 Structure from the checkpoint file:  "JID_416.chk"
 ------------------------------
 CID_141384062_JID_416_neutraal
 ------------------------------
 Charge =  0 Multiplicity = 1

 SCF Done:  E(RB3LYP) =  -421.562408494     A.U. after    1 cycles

  Exact polarizability: 146.723   8.629 108.743  -1.099   0.696  52.020
 Approx polarizability: 235.626  27.697 169.217   1.128   2.175  79.262

                      1                      2                      3
                      A                      A                      A
 Frequencies --     80.9577                90.2371               117.5548
 Red. masses --      1.0359                 2.7267                 1.3140
 Frc consts  --      0.0040                 0.0131                 0.0107
 IR Inten    --      0.2302                 0.2863                 2.0571

                      4                      5                      6
                      A                      A                      A
 Frequencies --    133.4735               217.5200               235.2123
 Red. masses --      1.7289                 3.2264                 3.7628
 Frc consts  --      0.0181                 0.0899                 0.1227
 IR Inten    --      2.5315                 5.1462                 7.4395

                      7                      8                      9
                      A                      A                      A
 Frequencies --    309.8296               360.1534               374.2334
 Red. masses --      2.6753                 2.5498                 2.6184
 Frc consts  --      0.1513                 0.1949                 0.2161
 IR Inten    --      4.4786                 3.9935                 0.4334

                     10                     11                     12
                      A                      A                      A
 Frequencies --    395.2852               455.9120               466.3855
 Red. masses --      1.4241                 2.4695                 4.4742
 Frc consts  --      0.1311                 0.3024                 0.5734
 IR Inten    --      8.0489                 0.7051                 0.6051

                     13                     14                     15
                      A                      A                      A
 Frequencies --    494.6931               562.0555               569.4708
 Red. masses --      5.1517                 3.2524                 4.0000
 Frc consts  --      0.7428                 0.6054                 0.7643
 IR Inten    --     14.4876                 9.2183                 4.1590

                     16                     17                     18
                      A                      A                      A
 Frequencies --    610.7891               697.2161               756.8813
 Red. masses --      2.0776                 4.2302                 1.5306
 Frc consts  --      0.4567                 1.2116                 0.5166
 IR Inten    --      7.7971                 4.7273                16.3121

                     19                     20                     21
                      A                      A                      A
 Frequencies --    797.9732               806.8957               870.7092
 Red. masses --      1.6179                 4.5337                 2.2746
 Frc consts  --      0.6070                 1.7392                 1.0160
 IR Inten    --    391.1647                 3.3246                21.7030

                     22                     23                     24
                      A                      A                      A
 Frequencies --    971.2039               983.4966               986.8257
 Red. masses --      1.9882                 2.0478                 1.2565
 Frc consts  --      1.1049                 1.1670                 0.7209
 IR Inten    --      2.7235                 3.2003                 0.1385

                     25                     26                     27
                      A                      A                      A
 Frequencies --   1026.0690              1057.7920              1081.4852
 Red. masses --      1.5123                 1.4362                 1.5741
 Frc consts  --      0.9381                 0.9468                 1.0847
 IR Inten    --      8.1257                 2.5456                 0.1139

                     28                     29                     30
                      A                      A                      A
 Frequencies --   1093.3543              1148.7854              1175.2829
 Red. masses --      2.0543                 3.2058                 2.5653
 Frc consts  --      1.4469                 2.4927                 2.0877
 IR Inten    --     27.2961                13.3496                11.2039

                     31                     32                     33
                      A                      A                      A
 Frequencies --   1206.6124              1228.6281              1246.9173
 Red. masses --      2.2088                 1.1056                 1.5276
 Frc consts  --      1.8947                 0.9833                 1.3993
 IR Inten    --      2.0727                 1.1886                 0.0614

                     34                     35                     36
                      A                      A                      A
 Frequencies --   1316.2680              1372.5164              1406.2638
 Red. masses --      1.4417                 2.0190                 2.6353
 Frc consts  --      1.4717                 2.2409                 3.0706
 IR Inten    --      5.1683                 6.8363                 1.1382

                     37                     38                     39
                      A                      A                      A
 Frequencies --   1435.5602              1450.7471              1457.4474
 Red. masses --      1.3999                 1.2777                 1.7219
 Frc consts  --      1.6998                 1.5844                 2.1550
 IR Inten    --      0.1280                 1.6555                 0.7363

                     40                     41                     42
                      A                      A                      A
 Frequencies --   1481.0363              1503.8549              1511.1151
 Red. masses --      1.0959                 1.0446                 1.0558
 Frc consts  --      1.4163                 1.3919                 1.4204
 IR Inten    --      3.6244                 1.9800                 2.5602

                     43                     44                     45
                      A                      A                      A
 Frequencies --   1515.7568              1525.7755              1644.3901
 Red. masses --      1.0451                 1.1186                 5.9780
 Frc consts  --      1.4147                 1.5343                 9.5240
 IR Inten    --      7.8662                 5.3350                 1.7844

                     46                     47                     48
                      A                      A                      A
 Frequencies --   1655.1985              1702.9072              1733.6796
 Red. masses --      6.3775                 1.1285                 6.0926
 Frc consts  --     10.2943                 1.9281                10.7893
 IR Inten    --      9.6936                17.7572                 6.8772

                     49                     50                     51
                      A                      A                      A
 Frequencies --   2933.0622              2986.2212              3033.6599
 Red. masses --      1.0757                 1.0812                 1.0435
 Frc consts  --      5.4524                 5.6807                 5.6583
 IR Inten    --     33.7037                10.7872                39.2837

                     52                     53                     54
                      A                      A                      A
 Frequencies --   3063.3194              3074.2729              3109.1734
 Red. masses --      1.0400                 1.0998                 1.0990
 Frc consts  --      5.7501                 6.1240                 6.2596
 IR Inten    --     22.2748                23.7535                14.8749

                     55                     56                     57
                      A                      A                      A
 Frequencies --   3156.6784              3165.6983              3175.7286
 Red. masses --      1.0989                 1.0854                 1.0924
 Frc consts  --      6.4516                 6.4089                 6.4911
 IR Inten    --      8.2785                15.5572                37.2342

                     58                     59                     60
                      A                      A                      A
 Frequencies --   3191.0019              3419.4839              3587.5274
 Red. masses --      1.0964                 1.0539                 1.0894
 Frc consts  --      6.5774                 7.2604                 8.2607
 IR Inten    --     36.7147                 7.9785                10.0722

 - Thermochemistry -
 -------------------
 Temperature   298.150 Kelvin.  Pressure   1.00000 Atm.
 Atom     1 has atomic number  6 and mass  12.00000

 Molecular mass:   136.10005 amu.
 Principal axes and moments of inertia in atomic units:
                           1         2         3
     Eigenvalues --   848.306081635.396032447.89963
           X            0.99938  -0.03483  -0.00502
           Y            0.03483   0.99939   0.00052
           Z            0.00500  -0.00069   0.99999
 This molecule is an asymmetric top.
 Rotational symmetry number  1.
 Warning -- assumption of classical behavior for rotation
           may cause significant error
 Rotational temperatures (Kelvin)      0.10210     0.05296     0.03538
 Rotational constants (GHZ):           2.12746     1.10355     0.73726
 Zero-point vibrational energy     497755.6 (Joules/Mol)
                                  118.96644 (Kcal/Mol)
 Warning -- explicit consideration of  16 degrees of freedom as
           vibrations may cause significant error
 Vibrational temperatures:    116.48   129.83   169.14   192.04   312.96
          (Kelvin)            338.42   445.78   518.18   538.44   568.73
                              655.96   671.02   711.75   808.67   819.34
                              878.79  1003.14  1088.98  1148.11  1160.94
                             1252.76  1397.35  1415.03  1419.82  1476.28
                             1521.93  1556.02  1573.09  1652.85  1690.97
                             1736.05  1767.72  1794.04  1893.82  1974.74
                             2023.30  2065.45  2087.30  2096.94  2130.88
                             2163.71  2174.16  2180.84  2195.25  2365.91
                             2381.46  2450.10  2494.38  4220.02  4296.51
                             4364.76  4407.43  4423.19  4473.41  4541.76
                             4554.73  4569.17  4591.14  4919.87  5161.65

 Zero-point correction=                           0.189585 (Hartree/Particle)
 Thermal correction to Energy=                    0.199834
 Thermal correction to Enthalpy=                  0.200778
 Thermal correction to Gibbs Free Energy=         0.154257
 Sum of electronic and zero-point Energies=           -421.372823
 Sum of electronic and thermal Energies=              -421.362575
 Sum of electronic and thermal Enthalpies=            -421.361630
 Sum of electronic and thermal Free Energies=         -421.408152

                     E (Thermal)             CV                S
                      KCal/Mol        Cal/Mol-Kelvin    Cal/Mol-Kelvin
 Total                  125.398             38.724             97.912
 Electronic               0.000              0.000              0.000
 Translational            0.889              2.981             40.637
 Rotational               0.889              2.981             29.608
 Vibrational            123.620             32.762             27.667
 Vibration     1          0.600              1.962              3.868
 Vibration     2          0.602              1.956              3.655
 Vibration     3          0.608              1.935              3.140
 Vibration     4          0.613              1.920              2.895
 Vibration     5          0.646              1.814              1.980
 Vibration     6          0.655              1.787              1.839
 Vibration     7          0.699              1.655              1.363
 Vibration     8          0.735              1.554              1.121
 Vibration     9          0.745              1.525              1.062
 Vibration    10          0.762              1.480              0.980
 Vibration    11          0.814              1.348              0.778
 Vibration    12          0.824              1.325              0.748
 Vibration    13          0.850              1.262              0.672
 Vibration    14          0.918              1.113              0.520
 Vibration    15          0.926              1.097              0.505
 Vibration    16          0.970              1.009              0.431

 Optimization completed.
    -- Stationary point found.

 1\1\GINC-NODE201\Freq\RB3LYP\6-31G(d)\C8H12N2\VSC10255\08-Dec-2020\0\\
 #N Geom=AllCheck Guess=TCheck SCRF=Check GenChk RB3LYP/6-31G(d) Freq\\
 CID_141384062_JID_416_neutraal\\0,1\C,1.0342090603,0.0896090627,-0.018
 363226\C,0.5344890146,0.0018096868,-1.4384174934\C,0.2485622631,-1.156
 9004324,-2.0979713428\C,-0.2351608459,-1.1023605675,-3.4815634014\N,-0
 .4656964782,-2.231243048,-4.0760605386\N,-0.860086255,-2.1723286437,-5
 .3992028743\C,-0.4342710038,0.2232256942,-4.1857633994\C,-0.0678385591
 ,1.4195460542,-3.3682177498\C,0.3718027206,1.2937377188,-2.1088593863\

 Normal termination of Gaussian 16 at Tue Dec  8 10:53:55 2020.

 ----------------------------------------------------------------------
 # B3LYP/6-311++G(d,p) empiricaldispersion=gd3bj scf=xqc pop=npa geom=c
 heck
 ----------------------------------------------------------------------

 --------------------------------------
 CID_141384062_JID_416_Energie_neutraal
 --------------------------------------
 Structure from the checkpoint file:  "JID_416.chk"
 Charge =  0 Multiplicity = 1

 SCF Done:  E(RB3LYP) =  -421.682427588     A.U. after   15 cycles
 Normal termination of Gaussian 16 at Tue Dec  8 10:58:21 2020.

 ----------------------------------------------------------------------
 # B3LYP/6-311++G(d,p) empiricaldispersion=gd3bj scf=xqc pop=npa geom=c
 heck
 ----------------------------------------------------------------------

 ------------------------------------
 CID_141384062_JID_416_Energie_kation
 ------------------------------------
 Structure from the checkpoint file:  "JID_416.chk"
 Charge =  1 Multiplicity = 2

 SCF Done:  E(UB3LYP) =  -421.417488663     A.U. after   20 cycles
 Normal termination of Gaussian 16 at Tue Dec  8 11:01:44 2020.
 Gaussian 16:  ES64L-G16RevA.03 25-Dec-2016

 -----------------------------------
 CID_141384062_JID_416_Energie_anion
 -----------------------------------
 Structure from the checkpoint file:  "JID_416.chk"
 Charge = -1 Multiplicity = 2

                         Standard orientation:
 ---------------------------------------------------------------------
 Center     Atomic      Atomic             Coordinates (Angstroms)
 Number     Number       Type             X           Y           Z
 ---------------------------------------------------------------------
      1          6           0        2.968818   -0.559410    0.008951
      2          6           0        1.568575    0.000298    0.003554
      3          6           0        0.426927   -0.745360    0.006127
      4          6           0       -0.876937   -0.073630    0.003604
      5          7           0       -1.933159   -0.825048   -0.023139
      6          7           0       -3.155509   -0.183820   -0.089527
      7          6           0       -0.975100    1.437340    0.010935
      8          6           0        0.342064    2.143261   -0.013367
      9          6           0        1.496341    1.463010   -0.013570
     10          6           0        0.383306   -2.250696    0.005958
     11          1           0        3.006633   -1.647618    0.058070
     12          1           0        3.534183   -0.166445    0.864669
     13          1           0        3.511581   -0.246220   -0.893377
     14          1           0       -3.227258    0.660980    0.481616
     15          1           0       -3.876197   -0.843637    0.182318
     16          1           0       -1.603742    1.747805   -0.841658
     17          1           0       -1.546102    1.770212    0.899646
     18          1           0        0.333742    3.230278   -0.023914
     19          1           0        2.440793    2.003327   -0.027871
     20          1           0        1.375476   -2.702468   -0.008951
     21          1           0       -0.154436   -2.619274    0.886649
     22          1           0       -0.177956   -2.613737   -0.861688
 ---------------------------------------------------------------------

 SCF Done:  E(UB3LYP) =  -421.669349117     A.U. after   33 cycles
 SCF Done:  E(UB3LYP) =  -421.669349117     a.u. after    1 cycles

 The electronic state is 2-A.
 Alpha  occ. eigenvalues --  -14.20018 -14.17790 -10.05762 -10.04684 -10.04327
 Alpha  occ. eigenvalues --  -10.03540 -10.03203 -10.03132 -10.02793 -10.02710
 Alpha  occ. eigenvalues --   -0.84733  -0.71611  -0.66238  -0.64380  -0.59511
 Alpha  occ. eigenvalues --   -0.56123  -0.53366  -0.44736  -0.43918  -0.38733
 Alpha  occ. eigenvalues --   -0.36232  -0.33793  -0.32378  -0.31450  -0.29584
 Alpha  occ. eigenvalues --   -0.29164  -0.27644  -0.26702  -0.25843  -0.25683
 Alpha  occ. eigenvalues --   -0.23335  -0.21080  -0.20192  -0.16883  -0.13301
 Alpha  occ. eigenvalues --   -0.11778  -0.06229   0.05624
 Alpha virt. eigenvalues --    0.07935   0.08068   0.08841   0.10191   0.10861
 Alpha virt. eigenvalues --    0.11223   0.12118   0.12819   0.13006   0.13671
 Alpha virt. eigenvalues --    0.14961   0.15234   0.15966   0.16383   0.18439

  Beta  occ. eigenvalues --  -14.19934 -14.17565 -10.05778 -10.04686 -10.04326
  Beta  occ. eigenvalues --  -10.03415 -10.03210 -10.02996 -10.02752 -10.02522
  Beta  occ. eigenvalues --   -0.84432  -0.71357  -0.65998  -0.64150  -0.59335
  Beta  occ. eigenvalues --   -0.55994  -0.53185  -0.44436  -0.43704  -0.38608
  Beta  occ. eigenvalues --   -0.36105  -0.33600  -0.32305  -0.31123  -0.29409
  Beta  occ. eigenvalues --   -0.29003  -0.27502  -0.26595  -0.25791  -0.25582
  Beta  occ. eigenvalues --   -0.22720  -0.20926  -0.20055  -0.16201  -0.12835
  Beta  occ. eigenvalues --   -0.11279  -0.05289
  Beta virt. eigenvalues --    0.07894   0.08711   0.09143   0.09916   0.10367
  Beta virt. eigenvalues --    0.11230   0.11279   0.12498   0.12817   0.13220
  Beta virt. eigenvalues --    0.13621   0.15153   0.15684   0.15912   0.16646

 Mulliken charges and spin densities:
               1          2
     1  C    0.361465  -0.966354
     2  C   -0.197497  -0.009447
     3  C    0.385093   0.491188
     4  C   -1.261586   1.103621
     5  N   -0.201883   0.203562
     6  N    0.016035  -0.222378
     7  C    1.171479  -1.737544
     8  C    0.362220  -0.188900
     9  C   -0.180329  -0.309404
    10  C   -0.607794  -0.007609
    11  H    0.043986   0.044096
    12  H    0.078217   0.055924
    13  H    0.010599   0.131329
    14  H   -0.288860   0.519765
    15  H   -0.017109   0.257057
    16  H    0.009356   0.155253
    17  H   -0.389216   0.535393
    18  H   -0.503740   0.650217
    19  H   -0.040485   0.144490
    20  H    0.029588   0.037025
    21  H    0.074560   0.091841
    22  H    0.145901   0.020876
 Sum of Mulliken charges =  -1.00000   1.00000

 Dipole moment (field-independent basis, Debye):
    X=              3.9729    Y=             -2.9730    Z=             -0.3673  Tot=              4.9757
 Quadrupole moment (field-independent basis, Debye-Ang):
   XX=           -103.3052   YY=            -93.2039   ZZ=            -80.7931
   XY=              2.4663   XZ=              2.2534   YZ=             -0.8623

 Summary of Natural Population Analysis:

                                       Natural Population
                Natural  -----------------------------------------------
    Atom  No    Charge         Core      Valence    Rydberg      Total
 -----------------------------------------------------------------------
      C    1   -0.29044      0.99964     2.28625    0.00455     3.29044
      C    2   -0.00679      0.99946     1.99840    0.00893     3.00679
      C    3   -0.00069      0.99943     1.99255    0.00872     3.00069
      C    4    0.09234      0.99955     1.89227    0.01584     2.90766
      N    5   -0.13061      0.99963     2.61457    0.01642     3.63061
      N    6   -0.31081      0.99975     2.79654    0.01452     3.81081
      C    7   -0.24017      0.99959     2.23088    0.00971     3.24017
      C    8   -0.03899      0.99955     2.02772    0.01172     3.03899
      C    9   -0.11562      0.99950     2.10654    0.00957     3.11562
      C   10   -0.29277      0.99964     2.28826    0.00487     3.29277
      H   11    0.09679      0.00000     0.40227    0.00095     0.40321
      H   12    0.09674      0.00000     0.40178    0.00148     0.40326
      H   13    0.09753      0.00000     0.40072    0.00176     0.40247
      H   14    0.16859      0.00000     0.32832    0.00309     0.33141
      H   15    0.17300      0.00000     0.32486    0.00215     0.32700
      H   16    0.11202      0.00000     0.38621    0.00178     0.38798
      H   17    0.11035      0.00000     0.38481    0.00485     0.38965
      H   18    0.08874      0.00000     0.41008    0.00117     0.41126
      H   19    0.09053      0.00000     0.40848    0.00099     0.40947
      H   20    0.09006      0.00000     0.40903    0.00092     0.40994
      H   21    0.10501      0.00000     0.39335    0.00164     0.39499
      H   22    0.10522      0.00000     0.39330    0.00148     0.39478
 =======================================================================
   * Total *   -0.00000      9.99573    26.87718    0.12709    37.00000

 Normal termination of Gaussian 16 at Tue Dec  8 11:09:39 2020.
