 Gaussian 16, Revision A.03,

 -----------------------------------------------------------
 # opt freq B3LYP/6-31G(d) empiricaldispersion=gd3bj scf=xqc
 -----------------------------------------------------------

 ------------------------------
 CID_79720520_JID_8415_neutraal
 ------------------------------
 Symbolic Z-matrix:
 Charge =  0 Multiplicity = 1

 SCF Done:  E(RB3LYP) =  -821.579875109     A.U. after   16 cycles
 SCF Done:  E(RB3LYP) =  -821.585547960     A.U. after   13 cycles
 SCF Done:  E(RB3LYP) =  -821.582417587     A.U. after   14 cycles
 SCF Done:  E(RB3LYP) =  -821.586546080     A.U. after   12 cycles
 SCF Done:  E(RB3LYP) =  -821.587355468     A.U. after   12 cycles
 SCF Done:  E(RB3LYP) =  -821.587840962     A.U. after   12 cycles
 SCF Done:  E(RB3LYP) =  -821.588038658     A.U. after   12 cycles
 SCF Done:  E(RB3LYP) =  -821.588192616     A.U. after   11 cycles
 SCF Done:  E(RB3LYP) =  -821.588354262     A.U. after   12 cycles
 SCF Done:  E(RB3LYP) =  -821.588496569     A.U. after   12 cycles
 SCF Done:  E(RB3LYP) =  -821.589254900     A.U. after   10 cycles
 SCF Done:  E(RB3LYP) =  -821.589261607     A.U. after   10 cycles
 SCF Done:  E(RB3LYP) =  -821.589262672     A.U. after    9 cycles
 SCF Done:  E(RB3LYP) =  -821.589262580     A.U. after    8 cycles
 SCF Done:  E(RB3LYP) =  -821.589262669     A.U. after    7 cycles
 Optimization completed.
    -- Stationary point found.
 Normal termination of Gaussian 16 at Fri Dec 11 21:16:37 2020.

 --------------------------------------------------------------------
 #N Geom=AllCheck Guess=TCheck SCRF=Check GenChk RB3LYP/6-31G(d) Freq
 --------------------------------------------------------------------

 Structure from the checkpoint file:  "JID_8415.chk"
 ------------------------------
 CID_79720520_JID_8415_neutraal
 ------------------------------
 Charge =  0 Multiplicity = 1

 SCF Done:  E(RB3LYP) =  -821.589262669     A.U. after    1 cycles

  Exact polarizability: 144.941 -16.230 172.525  -1.152   4.415 142.614
 Approx polarizability: 200.632 -21.376 258.480  -0.667   7.737 246.009

                      1                      2                      3
                      A                      A                      A
 Frequencies --     24.5108                40.8683                55.7919
 Red. masses --      3.5701                 4.8975                 4.0936
 Frc consts  --      0.0013                 0.0048                 0.0075
 IR Inten    --      0.8525                 0.9819                 1.6157

                      4                      5                      6
                      A                      A                      A
 Frequencies --     66.1646                71.6181                99.2354
 Red. masses --      3.9836                 1.5080                 4.0202
 Frc consts  --      0.0103                 0.0046                 0.0233
 IR Inten    --      1.0539                 0.4696                 4.4622

                      7                      8                      9
                      A                      A                      A
 Frequencies --    127.8257               157.8547               172.6415
 Red. masses --      2.5791                 3.6586                 4.3059
 Frc consts  --      0.0248                 0.0537                 0.0756
 IR Inten    --      1.4618                 0.9641                 0.8360

                     10                     11                     12
                      A                      A                      A
 Frequencies --    205.3109               232.8099               278.8840
 Red. masses --      3.5487                 3.3107                 3.2903
 Frc consts  --      0.0881                 0.1057                 0.1508
 IR Inten    --      0.4735                 1.2406                 1.1324

                     13                     14                     15
                      A                      A                      A
 Frequencies --    301.6648               330.1655               337.6616
 Red. masses --      3.4287                 2.6815                 1.5665
 Frc consts  --      0.1838                 0.1722                 0.1052
 IR Inten    --      4.8268                 1.3107                74.7741

                     16                     17                     18
                      A                      A                      A
 Frequencies --    342.8914               391.3554               395.0309
 Red. masses --      1.9056                 3.8085                 2.3576
 Frc consts  --      0.1320                 0.3437                 0.2168
 IR Inten    --     31.8164                15.2807                 1.1782

                     19                     20                     21
                      A                      A                      A
 Frequencies --    431.1776               432.2220               449.7771
 Red. masses --      2.5504                 2.2259                 4.7385
 Frc consts  --      0.2794                 0.2450                 0.5648
 IR Inten    --      1.0811                 4.6457                15.5974

                     22                     23                     24
                      A                      A                      A
 Frequencies --    477.2035               501.3447               515.7233
 Red. masses --      2.8586                 2.7965                 4.5624
 Frc consts  --      0.3835                 0.4141                 0.7149
 IR Inten    --      1.4332                12.5926                 5.0899

                     25                     26                     27
                      A                      A                      A
 Frequencies --    568.6279               596.6859               617.9701
 Red. masses --      7.2998                 3.8737                 1.9566
 Frc consts  --      1.3907                 0.8126                 0.4402
 IR Inten    --      5.5077                 1.6977                22.8828

                     28                     29                     30
                      A                      A                      A
 Frequencies --    667.8480               746.4288               747.7828
 Red. masses --      5.9963                 6.5259                 4.5693
 Frc consts  --      1.5757                 2.1422                 1.5054
 IR Inten    --     15.9033                11.4730                 4.6530

                     31                     32                     33
                      A                      A                      A
 Frequencies --    796.4296               798.6080               812.4196
 Red. masses --      2.2350                 1.7894                 2.8661
 Frc consts  --      0.8353                 0.6724                 1.1146
 IR Inten    --     40.1756                31.6502                 5.0556

                     34                     35                     36
                      A                      A                      A
 Frequencies --    814.8912               832.7789               858.3970
 Red. masses --      2.6250                 1.5562                 7.3501
 Frc consts  --      1.0270                 0.6359                 3.1909
 IR Inten    --     36.8529                 0.9616                 5.7598

                     37                     38                     39
                      A                      A                      A
 Frequencies --    880.3095               906.3454               917.4550
 Red. masses --      2.2872                 2.1964                 1.3448
 Frc consts  --      1.0443                 1.0630                 0.6669
 IR Inten    --      1.7454                 2.3360                 0.3955

                     40                     41                     42
                      A                      A                      A
 Frequencies --    945.3537               961.2340               968.2593
 Red. masses --      2.8931                 2.1081                 1.3184
 Frc consts  --      1.5233                 1.1476                 0.7282
 IR Inten    --      1.5283                 6.3110                 0.5355

                     43                     44                     45
                      A                      A                      A
 Frequencies --    989.5648              1040.5070              1070.3971
 Red. masses --      2.1344                 1.4769                 1.8229
 Frc consts  --      1.2315                 0.9421                 1.2306
 IR Inten    --     17.1540                 0.7977                 1.8793

                     46                     47                     48
                      A                      A                      A
 Frequencies --   1076.3440              1088.0933              1101.8733
 Red. masses --      2.0237                 2.4402                 2.1368
 Frc consts  --      1.3813                 1.7022                 1.5285
 IR Inten    --     23.3085                19.6962                49.8132

                     49                     50                     51
                      A                      A                      A
 Frequencies --   1114.4776              1128.7337              1150.3555
 Red. masses --      1.6921                 1.8568                 2.0438
 Frc consts  --      1.2383                 1.3938                 1.5935
 IR Inten    --      2.7884                56.8961                16.6099

                     52                     53                     54
                      A                      A                      A
 Frequencies --   1157.4561              1165.2854              1184.4530
 Red. masses --      2.6155                 1.4305                 1.4437
 Frc consts  --      2.0645                 1.1445                 1.1933
 IR Inten    --     36.7742                 7.1002                52.4419

                     55                     56                     57
                      A                      A                      A
 Frequencies --   1198.7578              1215.8077              1225.6138
 Red. masses --      1.2290                 1.3128                 1.5318
 Frc consts  --      1.0405                 1.1433                 1.3557
 IR Inten    --      6.7516                50.0312                47.9324

                     58                     59                     60
                      A                      A                      A
 Frequencies --   1276.2877              1293.2412              1298.2225
 Red. masses --      1.6370                 1.6345                 3.8244
 Frc consts  --      1.5711                 1.6106                 3.7976
 IR Inten    --     14.2508                 1.6535                22.8903

                     61                     62                     63
                      A                      A                      A
 Frequencies --   1314.8741              1324.4753              1331.3102
 Red. masses --      1.5261                 2.8320                 1.2175
 Frc consts  --      1.5545                 2.9271                 1.2714
 IR Inten    --     51.7621                17.5174                 0.4686

                     64                     65                     66
                      A                      A                      A
 Frequencies --   1338.3351              1344.0521              1368.6498
 Red. masses --      2.7644                 1.4686                 1.3252
 Frc consts  --      2.9173                 1.5631                 1.4626
 IR Inten    --     86.4154                10.4795                20.3503

                     67                     68                     69
                      A                      A                      A
 Frequencies --   1384.4389              1391.5915              1404.0238
 Red. masses --      1.3784                 1.4144                 1.4997
 Frc consts  --      1.5566                 1.6137                 1.7418
 IR Inten    --     23.3618                 5.2046                 2.4081

                     70                     71                     72
                      A                      A                      A
 Frequencies --   1430.3695              1451.7104              1455.1968
 Red. masses --      1.3447                 1.3643                 1.4161
 Frc consts  --      1.6209                 1.6941                 1.7668
 IR Inten    --      3.8880                27.4654                17.5490

                     73                     74                     75
                      A                      A                      A
 Frequencies --   1472.3400              1496.9134              1499.1419
 Red. masses --      1.8377                 2.4717                 1.2176
 Frc consts  --      2.3471                 3.2631                 1.6122
 IR Inten    --    113.9110                65.4265                 3.2583

                     76                     77                     78
                      A                      A                      A
 Frequencies --   1506.9275              1514.1563              1519.6752
 Red. masses --      1.1331                 1.1300                 2.0340
 Frc consts  --      1.5160                 1.5264                 2.7676
 IR Inten    --      0.3886                11.6527                 1.3138

                     79                     80                     81
                      A                      A                      A
 Frequencies --   1520.9971              1530.0160              1533.8134
 Red. masses --      1.0929                 1.1786                 1.1213
 Frc consts  --      1.4896                 1.6256                 1.5542
 IR Inten    --     18.7151                13.4931                 3.2383

                     82                     83                     84
                      A                      A                      A
 Frequencies --   1541.7085              1550.9166              1637.2960
 Red. masses --      1.1001                 1.2291                 6.2228
 Frc consts  --      1.5405                 1.7418                 9.8286
 IR Inten    --      2.5526                28.6983                 4.2537

                     85                     86                     87
                      A                      A                      A
 Frequencies --   1650.2135              1756.8731              2910.2712
 Red. masses --      6.2285                11.1146                 1.0737
 Frc consts  --      9.9934                20.2126                 5.3580
 IR Inten    --     25.8661               351.3897                71.9579

                     88                     89                     90
                      A                      A                      A
 Frequencies --   2959.8810              3032.6466              3036.3239
 Red. masses --      1.0719                 1.0713                 1.0731
 Frc consts  --      5.5327                 5.8049                 5.8291
 IR Inten    --     86.1089                16.5071                24.3726

                     91                     92                     93
                      A                      A                      A
 Frequencies --   3043.4248              3049.8028              3062.4803
 Red. masses --      1.0491                 1.0617                 1.0682
 Frc consts  --      5.7252                 5.8185                 5.9029
 IR Inten    --      4.0714                93.8555                43.5380

                     94                     95                     96
                      A                      A                      A
 Frequencies --   3076.6852              3086.6445              3088.8416
 Red. masses --      1.0876                 1.0899                 1.0998
 Frc consts  --      6.0658                 6.1179                 6.1824
 IR Inten    --     63.7279                20.6138                49.1887

                     97                     98                     99
                      A                      A                      A
 Frequencies --   3095.2683              3112.8382              3166.1821
 Red. masses --      1.1041                 1.1006                 1.0880
 Frc consts  --      6.2323                 6.2832                 6.4261
 IR Inten    --     37.3235                19.9382                19.3640

                    100                    101                    102
                      A                      A                      A
 Frequencies --   3173.1406              3186.9151              3188.9104
 Red. masses --      1.0896                 1.0894                 1.0969
 Frc consts  --      6.4638                 6.5188                 6.5718
 IR Inten    --     12.0073                16.6293                 1.2737

                    103                    104                    105
                      A                      A                      A
 Frequencies --   3215.2320              3494.8782              3746.2256
 Red. masses --      1.0961                 1.0745                 1.0661
 Frc consts  --      6.6764                 7.7327                 8.8153
 IR Inten    --     18.8473                 2.9669                44.9385

 - Thermochemistry -
 -------------------
 Temperature   298.150 Kelvin.  Pressure   1.00000 Atm.
 Atom     1 has atomic number  6 and mass  12.00000

 Molecular mass:   249.14773 amu.
 Principal axes and moments of inertia in atomic units:
                           1         2         3
     Eigenvalues --  3401.194544703.875926286.30614
           X            0.99936  -0.03566   0.00079
           Y            0.03566   0.99936   0.00273
           Z           -0.00088  -0.00270   1.00000
 This molecule is an asymmetric top.
 Rotational symmetry number  1.
 Warning -- assumption of classical behavior for rotation
           may cause significant error
 Rotational temperatures (Kelvin)      0.02547     0.01841     0.01378
 Rotational constants (GHZ):           0.53062     0.38367     0.28709
 Zero-point vibrational energy     835290.3 (Joules/Mol)
                                  199.63918 (Kcal/Mol)
 Warning -- explicit consideration of  27 degrees of freedom as
           vibrations may cause significant error
 Vibrational temperatures:     35.27    58.80    80.27    95.20   103.04
          (Kelvin)            142.78   183.91   227.12   248.39   295.40
                              334.96   401.25   434.03   475.03   485.82
                              493.34   563.07   568.36   620.37   621.87
                              647.13   686.59   721.32   742.01   818.13
                              858.50   889.12   960.88  1073.94  1075.89
                             1145.88  1149.02  1168.89  1172.45  1198.18
                             1235.04  1266.57  1304.03  1320.01  1360.15
                             1383.00  1393.11  1423.76  1497.06  1540.06
                             1548.62  1565.52  1585.35  1603.48  1624.00
                             1655.10  1665.32  1676.59  1704.16  1724.75
                             1749.28  1763.38  1836.29  1860.69  1867.85
                             1891.81  1905.62  1915.46  1925.57  1933.79
                             1969.18  1991.90  2002.19  2020.08  2057.98
                             2088.69  2093.70  2118.37  2153.72  2156.93
                             2168.13  2178.53  2186.47  2188.38  2201.35
                             2206.82  2218.17  2231.42  2355.70  2374.29
                             2527.75  4187.23  4258.61  4363.30  4368.59
                             4378.81  4387.99  4406.23  4426.66  4440.99
                             4444.15  4453.40  4478.68  4555.43  4565.44
                             4585.26  4588.13  4626.00  5028.35  5389.98

 Zero-point correction=                           0.318145 (Hartree/Particle)
 Thermal correction to Energy=                    0.335056
 Thermal correction to Enthalpy=                  0.336001
 Thermal correction to Gibbs Free Energy=         0.272435
 Sum of electronic and zero-point Energies=           -821.271117
 Sum of electronic and thermal Energies=              -821.254206
 Sum of electronic and thermal Enthalpies=            -821.253262
 Sum of electronic and thermal Free Energies=         -821.316827

                     E (Thermal)             CV                S
                      KCal/Mol        Cal/Mol-Kelvin    Cal/Mol-Kelvin
 Total                  210.251             64.871            133.784
 Electronic               0.000              0.000              0.000
 Translational            0.889              2.981             42.439
 Rotational               0.889              2.981             32.975
 Vibrational            208.474             58.909             58.370
 Vibration     1          0.593              1.985              6.230
 Vibration     2          0.594              1.981              5.217
 Vibration     3          0.596              1.975              4.601
 Vibration     4          0.598              1.970              4.264
 Vibration     5          0.598              1.968              4.108
 Vibration     6          0.604              1.950              3.469
 Vibration     7          0.611              1.925              2.979
 Vibration     8          0.621              1.894              2.575
 Vibration     9          0.626              1.876              2.407
 Vibration    10          0.640              1.832              2.085
 Vibration    11          0.654              1.791              1.857
 Vibration    12          0.679              1.713              1.541
 Vibration    13          0.694              1.671              1.408
 Vibration    14          0.713              1.615              1.259
 Vibration    15          0.718              1.600              1.223
 Vibration    16          0.722              1.590              1.199
 Vibration    17          0.759              1.489              0.995
 Vibration    18          0.762              1.481              0.981
 Vibration    19          0.792              1.402              0.855
 Vibration    20          0.793              1.400              0.851
 Vibration    21          0.809              1.361              0.796
 Vibration    22          0.834              1.301              0.718
 Vibration    23          0.857              1.247              0.655
 Vibration    24          0.871              1.215              0.620
 Vibration    25          0.925              1.099              0.507
 Vibration    26          0.955              1.039              0.455
 Vibration    27          0.978              0.994              0.420

 Optimization completed.
    -- Stationary point found.
 Normal termination of Gaussian 16 at Fri Dec 11 21:37:58 2020.

 ----------------------------------------------------------------------
 # B3LYP/6-311++G(d,p) empiricaldispersion=gd3bj scf=xqc pop=npa geom=c
 heck
 ----------------------------------------------------------------------

 --------------------------------------
 CID_79720520_JID_8415_Energie_neutraal
 --------------------------------------
 Structure from the checkpoint file:  "JID_8415.chk"
 Charge =  0 Multiplicity = 1

 SCF Done:  E(RB3LYP) =  -821.825971057     A.U. after   17 cycles
 Normal termination of Gaussian 16 at Fri Dec 11 21:48:14 2020.

 ----------------------------------------------------------------------
 # B3LYP/6-311++G(d,p) empiricaldispersion=gd3bj scf=xqc pop=npa geom=c
 heck
 ----------------------------------------------------------------------

 ------------------------------------
 CID_79720520_JID_8415_Energie_kation
 ------------------------------------
 Structure from the checkpoint file:  "JID_8415.chk"
 Charge =  1 Multiplicity = 2

 SCF Done:  E(UB3LYP) =  -821.532594898     A.U. after   30 cycles
 Normal termination of Gaussian 16 at Fri Dec 11 22:14:58 2020.
 Gaussian 16:  ES64L-G16RevA.03 25-Dec-2016

 ----------------------------------------------------------------------
 # B3LYP/6-311++G(d,p) empiricaldispersion=gd3bj scf=xqc pop=npa geom=c
 heck
 ----------------------------------------------------------------------

 -----------------------------------
 CID_79720520_JID_8415_Energie_anion
 -----------------------------------
 Structure from the checkpoint file:  "JID_8415.chk"
 Charge = -1 Multiplicity = 2

                         Standard orientation:
 ---------------------------------------------------------------------
 Center     Atomic      Atomic             Coordinates (Angstroms)
 Number     Number       Type             X           Y           Z
 ---------------------------------------------------------------------
      1          6           0       -0.298771    3.384364   -0.165312
      2          7           0        0.046268    1.980865    0.008371
      3          6           0       -0.940164    1.134926    0.671267
      4          6           0       -2.157020    0.790531   -0.210533
      5          6           0       -3.309250    0.205262    0.630056
      6          6           0       -3.042884   -1.242059    1.054505
      7          7           0       -2.804120   -2.055449   -0.136702
      8          6           0       -1.601847   -1.612351   -0.847682
      9          6           0       -1.796196   -0.179541   -1.352217
     10          6           0        1.269600    1.558531   -0.431803
     11          8           0        2.086179    2.291663   -0.978479
     12          6           0        1.623366    0.095151   -0.249411
     13          6           0        2.050313   -0.407635    0.991017
     14          6           0        2.485326   -1.729810    1.065333
     15          6           0        2.484615   -2.499040   -0.096402
     16          6           0        2.043949   -1.915855   -1.282802
     17          7           0        1.626843   -0.647297   -1.359138
     18          8           0        1.987387    0.429853    2.067237
     19          1           0       -1.114828    3.508974   -0.886552
     20          1           0        0.583234    3.906466   -0.533525
     21          1           0       -0.612652    3.812214    0.794674
     22          1           0       -0.447730    0.227024    1.016395
     23          1           0       -1.280497    1.666442    1.570574
     24          1           0       -2.512203    1.729914   -0.653158
     25          1           0       -3.491611    0.827865    1.515935
     26          1           0       -4.225029    0.215402    0.027464
     27          1           0       -2.193239   -1.271094    1.767156
     28          1           0       -3.916236   -1.640568    1.583303
     29          1           0       -2.699877   -3.031285    0.132736
     30          1           0       -1.429044   -2.280626   -1.698105
     31          1           0       -0.699004   -1.667329   -0.212023
     32          1           0       -2.614340   -0.184132   -2.082222
     33          1           0       -0.890798    0.152028   -1.870624
     34          1           0        2.818903   -2.146666    2.013747
     35          1           0        2.818783   -3.531618   -0.077427
     36          1           0        2.023007   -2.484369   -2.209309
     37          1           0        2.345478   -0.022463    2.847087
 ---------------------------------------------------------------------

 SCF Done:  E(UB3LYP) =  -821.823878065     A.U. after   33 cycles
 SCF Done:  E(UB3LYP) =  -821.823878065     a.u. after    1 cycles

 The electronic state is 2-A.
 Alpha  occ. eigenvalues --  -19.05108 -18.98022 -14.24359 -14.20225 -14.19555
 Alpha  occ. eigenvalues --  -10.16555 -10.13531 -10.10599 -10.10324 -10.09785
 Alpha  occ. eigenvalues --  -10.09692 -10.09232 -10.09038 -10.08275 -10.07535
 Alpha  occ. eigenvalues --  -10.07302 -10.07226 -10.06466  -0.96284  -0.93318
 Alpha  occ. eigenvalues --   -0.83874  -0.83289  -0.81654  -0.70859  -0.69217
 Alpha  occ. eigenvalues --   -0.66335  -0.65714  -0.62193  -0.60114  -0.54296
 Alpha  occ. eigenvalues --   -0.53434  -0.52779  -0.52661  -0.46264  -0.44505
 Alpha  occ. eigenvalues --   -0.43844  -0.42643  -0.41801  -0.39542  -0.38548
 Alpha  occ. eigenvalues --   -0.36816  -0.36038  -0.35638  -0.35375  -0.33119
 Alpha  occ. eigenvalues --   -0.32783  -0.32283  -0.31561  -0.31060  -0.30294
 Alpha  occ. eigenvalues --   -0.30041  -0.29100  -0.28536  -0.27588  -0.27215
 Alpha  occ. eigenvalues --   -0.26293  -0.25781  -0.25416  -0.23989  -0.22080
 Alpha  occ. eigenvalues --   -0.21830  -0.18300  -0.16546  -0.14517  -0.14266
 Alpha  occ. eigenvalues --   -0.13362  -0.12815   0.03974
 Alpha virt. eigenvalues --    0.06223   0.06457   0.07056   0.07569   0.08459
 Alpha virt. eigenvalues --    0.08733   0.09138   0.09509   0.10150   0.10576
 Alpha virt. eigenvalues --    0.11128   0.11339   0.12111   0.12279   0.12647

  Beta  occ. eigenvalues --  -19.05062 -18.97998 -14.24357 -14.20217 -14.19375
  Beta  occ. eigenvalues --  -10.16556 -10.13556 -10.10594 -10.10315 -10.09695
  Beta  occ. eigenvalues --  -10.09674 -10.09256 -10.09036 -10.08275 -10.07529
  Beta  occ. eigenvalues --  -10.07186 -10.07128 -10.06464  -0.96194  -0.93276
  Beta  occ. eigenvalues --   -0.83847  -0.83041  -0.81641  -0.70850  -0.68964
  Beta  occ. eigenvalues --   -0.66185  -0.65696  -0.62166  -0.60081  -0.54065
  Beta  occ. eigenvalues --   -0.53387  -0.52753  -0.52590  -0.46222  -0.44405
  Beta  occ. eigenvalues --   -0.43741  -0.42603  -0.41767  -0.39450  -0.38512
  Beta  occ. eigenvalues --   -0.36751  -0.36001  -0.35609  -0.35349  -0.33065
  Beta  occ. eigenvalues --   -0.32708  -0.32244  -0.31411  -0.31037  -0.30206
  Beta  occ. eigenvalues --   -0.29952  -0.29076  -0.28516  -0.27548  -0.27142
  Beta  occ. eigenvalues --   -0.26142  -0.25594  -0.25331  -0.23968  -0.22065
  Beta  occ. eigenvalues --   -0.21814  -0.17763  -0.16183  -0.14441  -0.14105
  Beta  occ. eigenvalues --   -0.13333  -0.12539
  Beta virt. eigenvalues --    0.06126   0.06981   0.07595   0.07768   0.07887
  Beta virt. eigenvalues --    0.08780   0.08994   0.09350   0.09597   0.10216
  Beta virt. eigenvalues --    0.10760   0.11175   0.11708   0.12216   0.12630

 Mulliken charges and spin densities:
               1          2
     1  C    0.050294  -0.243163
     2  N    0.198981  -0.010871
     3  C   -1.022279   0.163675
     4  C    0.512059   0.118569
     5  C   -0.625535   0.005307
     6  C    0.467319  -0.785449
     7  N   -0.205885   0.066101
     8  C   -0.448912   0.108450
     9  C   -0.475869  -0.057937
    10  C    0.960905  -1.381844
    11  O   -0.276162  -0.004928
    12  C    0.386508  -0.842527
    13  C   -1.370928   1.535898
    14  C    0.708734  -0.617684
    15  C    0.463300  -0.642617
    16  C   -0.586625   0.493202
    17  N    0.075803   0.156927
    18  O   -0.179192  -0.020378
    19  H    0.114672   0.020650
    20  H    0.188298   0.004835
    21  H    0.033927   0.108973
    22  H    0.861885  -0.714772
    23  H   -0.107324   0.300079
    24  H    0.158429   0.018599
    25  H    0.013931   0.120955
    26  H    0.109459   0.027242
    27  H   -0.396825   0.534898
    28  H   -0.082706   0.256510
    29  H    0.112348   0.130510
    30  H    0.175877  -0.009934
    31  H    0.337582  -0.154479
    32  H    0.133230   0.022069
    33  H    0.197530   0.014548
    34  H   -1.089518   1.277105
    35  H   -0.048761   0.203856
    36  H    0.074902   0.082815
    37  H   -0.419450   0.714808
 Sum of Mulliken charges =  -1.00000   1.00000

 Dipole moment (field-independent basis, Debye):
    X=             -5.4557    Y=              1.6700    Z=             -4.5687  Tot=              7.3093
 Quadrupole moment (field-independent basis, Debye-Ang):
   XX=           -162.5386   YY=           -142.1397   ZZ=           -158.0556
   XY=             -6.0973   XZ=             -4.4919   YZ=             12.0960

 Summary of Natural Population Analysis:

                                       Natural Population
                Natural  -----------------------------------------------
    Atom  No    Charge         Core      Valence    Rydberg      Total
 -----------------------------------------------------------------------
      C    1   -0.17990      0.99964     2.17426    0.00599     3.17990
      N    2   -0.24929      0.99964     2.74009    0.00956     3.74929
      C    3   -0.08392      0.99957     2.07244    0.01191     3.08392
      C    4   -0.11458      0.99958     2.10595    0.00905     3.11458
      C    5   -0.19253      0.99961     2.18338    0.00954     3.19253
      C    6   -0.09041      0.99963     2.07917    0.01161     3.09041
      N    7   -0.34354      0.99974     2.83295    0.01085     3.84354
      C    8   -0.09188      0.99963     2.08131    0.01095     3.09188
      C    9   -0.19818      0.99961     2.19055    0.00802     3.19818
      C   10    0.34356      0.99959     1.63217    0.02468     2.65644
      O   11   -0.31563      0.99988     3.31085    0.00491     4.31563
      C   12    0.05279      0.99945     1.93129    0.01648     2.94721
      C   13    0.14028      0.99934     1.84540    0.01498     2.85972
      C   14   -0.09938      0.99951     2.08862    0.01125     3.09938
      C   15   -0.10409      0.99956     2.09504    0.00949     3.10409
      C   16    0.00273      0.99958     1.98317    0.01451     2.99727
      N   17   -0.20277      0.99968     2.69290    0.01019     3.70277
      O   18   -0.34004      0.99987     3.33245    0.00772     4.34004
      H   19    0.08955      0.00000     0.40936    0.00109     0.41045
      H   20    0.11604      0.00000     0.38286    0.00111     0.38396
      H   21    0.09145      0.00000     0.40750    0.00105     0.40855
      H   22    0.11043      0.00000     0.38685    0.00272     0.38957
      H   23    0.09460      0.00000     0.40414    0.00126     0.40540
      H   24    0.09477      0.00000     0.40313    0.00210     0.40523
      H   25    0.09818      0.00000     0.40095    0.00087     0.40182
      H   26    0.09830      0.00000     0.40053    0.00116     0.40170
      H   27    0.08181      0.00000     0.41632    0.00187     0.41819
      H   28    0.09348      0.00000     0.40544    0.00109     0.40652
      H   29    0.17355      0.00000     0.32412    0.00233     0.32645
      H   30    0.09474      0.00000     0.40442    0.00084     0.40526
      H   31    0.08583      0.00000     0.41190    0.00227     0.41417
      H   32    0.09596      0.00000     0.40298    0.00106     0.40404
      H   33    0.11278      0.00000     0.38595    0.00128     0.38722
      H   34    0.10597      0.00000     0.39090    0.00314     0.39403
      H   35    0.10023      0.00000     0.39891    0.00086     0.39977
      H   36    0.08684      0.00000     0.41214    0.00102     0.41316
      H   37    0.24227      0.00000     0.24568    0.01204     0.25773
 =======================================================================
   * Total *    0.00000     17.99311    48.76607    0.24083    67.00000

 Normal termination of Gaussian 16 at Fri Dec 11 22:45:13 2020.
