 Gaussian 16, Revision A.03,

 -----------------------------------------------------------
 # opt freq B3LYP/6-31G(d) empiricaldispersion=gd3bj scf=xqc
 -----------------------------------------------------------

 ------------------------------
 CID_83056408_JID_6393_neutraal
 ------------------------------
 Symbolic Z-matrix:
 Charge =  0 Multiplicity = 1

 SCF Done:  E(RB3LYP) =  -1449.44960974     A.U. after   15 cycles
 SCF Done:  E(RB3LYP) =  -1449.45819629     A.U. after   14 cycles
 SCF Done:  E(RB3LYP) =  -1449.45521356     A.U. after   13 cycles
 SCF Done:  E(RB3LYP) =  -1449.45669527     A.U. after   13 cycles
 SCF Done:  E(RB3LYP) =  -1449.45954806     A.U. after   10 cycles
 SCF Done:  E(RB3LYP) =  -1449.45990600     A.U. after   12 cycles
 SCF Done:  E(RB3LYP) =  -1449.46062291     A.U. after   12 cycles
 SCF Done:  E(RB3LYP) =  -1449.46109992     A.U. after   13 cycles
 SCF Done:  E(RB3LYP) =  -1449.46112622     A.U. after   11 cycles
 SCF Done:  E(RB3LYP) =  -1449.46129184     A.U. after   12 cycles
 SCF Done:  E(RB3LYP) =  -1449.46130463     A.U. after   10 cycles
 SCF Done:  E(RB3LYP) =  -1449.46130897     A.U. after   10 cycles
 SCF Done:  E(RB3LYP) =  -1449.46131156     A.U. after    8 cycles
 SCF Done:  E(RB3LYP) =  -1449.46131194     A.U. after    8 cycles
 SCF Done:  E(RB3LYP) =  -1449.46131210     A.U. after    8 cycles
 SCF Done:  E(RB3LYP) =  -1449.46131215     A.U. after    7 cycles
 Optimization completed.
    -- Stationary point found.
 Normal termination of Gaussian 16 at Thu Dec 10 22:37:37 2020.

 --------------------------------------------------------------------
 #N Geom=AllCheck Guess=TCheck SCRF=Check GenChk RB3LYP/6-31G(d) Freq
 --------------------------------------------------------------------

 Structure from the checkpoint file:  "JID_6393.chk"
 ------------------------------
 CID_83056408_JID_6393_neutraal
 ------------------------------
 Charge =  0 Multiplicity = 1

 SCF Done:  E(RB3LYP) =  -1449.46131215     A.U. after    1 cycles

  Exact polarizability: 160.411  11.271 162.422   5.897   1.669 139.233
 Approx polarizability: 216.938  28.643 268.093  14.273   9.443 222.967

                      1                      2                      3
                      A                      A                      A
 Frequencies --     32.5136                43.3136                74.6992
 Red. masses --      6.9207                 4.3534                 5.1525
 Frc consts  --      0.0043                 0.0048                 0.0169
 IR Inten    --      0.9389                 0.5412                 5.8075

                      4                      5                      6
                      A                      A                      A
 Frequencies --     90.6593               107.6909               129.6023
 Red. masses --      3.2839                 3.2233                 3.9381
 Frc consts  --      0.0159                 0.0220                 0.0390
 IR Inten    --      1.2457                 1.8315                 0.3388

                      7                      8                      9
                      A                      A                      A
 Frequencies --    163.6490               165.8761               201.3674
 Red. masses --      5.0202                 3.7851                 5.2264
 Frc consts  --      0.0792                 0.0614                 0.1249
 IR Inten    --      4.9585                 5.7308                 0.1342

                     10                     11                     12
                      A                      A                      A
 Frequencies --    225.4029               238.6245               260.5547
 Red. masses --      2.0635                 2.2396                 2.2167
 Frc consts  --      0.0618                 0.0751                 0.0887
 IR Inten    --      0.8037                 1.5256                 1.6339

                     13                     14                     15
                      A                      A                      A
 Frequencies --    281.7365               297.2676               316.7807
 Red. masses --      3.8328                 2.7350                 3.4832
 Frc consts  --      0.1792                 0.1424                 0.2059
 IR Inten    --      9.2546                 2.9796                 2.1007

                     16                     17                     18
                      A                      A                      A
 Frequencies --    333.3214               355.4604               371.6506
 Red. masses --      3.4863                 2.0653                 3.1210
 Frc consts  --      0.2282                 0.1537                 0.2540
 IR Inten    --      2.0288                 0.8449                 4.6011

                     19                     20                     21
                      A                      A                      A
 Frequencies --    403.3814               431.6359               446.6196
 Red. masses --      1.9780                 3.5956                 3.3593
 Frc consts  --      0.1896                 0.3947                 0.3948
 IR Inten    --      1.1357                 1.0391                 1.4071

                     22                     23                     24
                      A                      A                      A
 Frequencies --    457.2631               492.8080               497.3707
 Red. masses --      4.0779                 2.7877                 2.6537
 Frc consts  --      0.5024                 0.3989                 0.3868
 IR Inten    --      3.3858                11.0641                15.2136

                     25                     26                     27
                      A                      A                      A
 Frequencies --    542.1322               575.7316               593.3952
 Red. masses --      3.1808                 1.4972                 2.7793
 Frc consts  --      0.5508                 0.2924                 0.5766
 IR Inten    --     15.7469               315.9667                52.3456

                     28                     29                     30
                      A                      A                      A
 Frequencies --    611.9909               650.7859               672.8722
 Red. masses --      2.7271                 1.1048                 3.4711
 Frc consts  --      0.6018                 0.2757                 0.9259
 IR Inten    --     25.7583                11.7573                15.9280

                     31                     32                     33
                      A                      A                      A
 Frequencies --    750.8251               798.8138               799.9697
 Red. masses --      3.9780                 2.2156                 1.8451
 Frc consts  --      1.3213                 0.8330                 0.6957
 IR Inten    --     15.0550                17.4513                 4.3932

                     34                     35                     36
                      A                      A                      A
 Frequencies --    812.7888               833.9223               861.9513
 Red. masses --      4.4148                 1.8130                 1.7536
 Frc consts  --      1.7184                 0.7429                 0.7676
 IR Inten    --     53.4044                20.7989                11.2863

                     37                     38                     39
                      A                      A                      A
 Frequencies --    885.1256               900.0091               935.7889
 Red. masses --      2.0613                 1.9371                 1.8909
 Frc consts  --      0.9515                 0.9245                 0.9756
 IR Inten    --      4.7708                 8.5364                 3.6288

                     40                     41                     42
                      A                      A                      A
 Frequencies --    940.8913               961.6110               983.9719
 Red. masses --      1.9348                 1.7788                 2.3088
 Frc consts  --      1.0092                 0.9691                 1.3171
 IR Inten    --     60.1387                 6.6189                 4.7939

                     43                     44                     45
                      A                      A                      A
 Frequencies --   1015.1697              1037.5896              1053.7925
 Red. masses --      2.1553                 2.2545                 2.1809
 Frc consts  --      1.3087                 1.4301                 1.4269
 IR Inten    --     31.6757                20.0801                 1.5036

                     46                     47                     48
                      A                      A                      A
 Frequencies --   1065.6097              1091.1169              1097.6545
 Red. masses --      2.3932                 1.3112                 6.0588
 Frc consts  --      1.6011                 0.9197                 4.3010
 IR Inten    --     29.9229                 1.6065               100.2760

                     49                     50                     51
                      A                      A                      A
 Frequencies --   1107.7398              1137.2228              1143.3500
 Red. masses --      2.1268                 2.3713                 1.8539
 Frc consts  --      1.5376                 1.8069                 1.4279
 IR Inten    --      2.7885                 7.3381                21.1566

                     52                     53                     54
                      A                      A                      A
 Frequencies --   1161.6292              1176.7929              1221.1779
 Red. masses --      1.2478                 1.9708                 1.5132
 Frc consts  --      0.9921                 1.6080                 1.3296
 IR Inten    --     57.6292                 1.3707                 6.9245

                     55                     56                     57
                      A                      A                      A
 Frequencies --   1245.4387              1258.8196              1299.5264
 Red. masses --      1.4530                 1.5973                 2.8643
 Frc consts  --      1.3279                 1.4913                 2.8499
 IR Inten    --     12.4373                23.2331               115.2534

                     58                     59                     60
                      A                      A                      A
 Frequencies --   1306.1106              1307.6763              1322.5893
 Red. masses --      1.4676                 1.2393                 1.1772
 Frc consts  --      1.4751                 1.2486                 1.2133
 IR Inten    --     25.6426                 2.5983                 4.2380

                     61                     62                     63
                      A                      A                      A
 Frequencies --   1339.5344              1348.0058              1352.6928
 Red. masses --      1.2434                 2.2007                 1.2638
 Frc consts  --      1.3145                 2.3561                 1.3625
 IR Inten    --      7.9010                46.9769                 7.2076

                     64                     65                     66
                      A                      A                      A
 Frequencies --   1389.8238              1405.0947              1408.0808
 Red. masses --      1.4125                 1.3064                 1.3778
 Frc consts  --      1.6075                 1.5197                 1.6095
 IR Inten    --      1.7396                 9.2245                 1.9911

                     67                     68                     69
                      A                      A                      A
 Frequencies --   1412.9786              1422.8048              1433.9442
 Red. masses --      1.4975                 1.2957                 1.2852
 Frc consts  --      1.7615                 1.5454                 1.5570
 IR Inten    --      2.4801                 3.8435                 5.8629

                     70                     71                     72
                      A                      A                      A
 Frequencies --   1436.9331              1446.2265              1457.1938
 Red. masses --      1.4128                 1.2714                 3.1401
 Frc consts  --      1.7187                 1.5668                 3.9285
 IR Inten    --      5.4584                 3.7656               205.8043

                     73                     74                     75
                      A                      A                      A
 Frequencies --   1492.1953              1503.1140              1514.1063
 Red. masses --      1.1016                 1.0918                 1.0862
 Frc consts  --      1.4452                 1.4533                 1.4671
 IR Inten    --     19.8295                 2.0975                11.3291

                     76                     77                     78
                      A                      A                      A
 Frequencies --   1519.0503              1523.3411              1528.2944
 Red. masses --      1.0805                 1.0974                 1.0557
 Frc consts  --      1.4690                 1.5004                 1.4528
 IR Inten    --      4.0666                 7.9753                 3.3150

                     79                     80                     81
                      A                      A                      A
 Frequencies --   1531.5314              1533.3213              1548.8444
 Red. masses --      1.0705                 1.0828                 1.0709
 Frc consts  --      1.4793                 1.5000                 1.5136
 IR Inten    --      7.6618                 0.8734                13.3466

                     82                     83                     84
                      A                      A                      A
 Frequencies --   1676.4045              2991.4069              3022.8434
 Red. masses --      1.2688                 1.0832                 1.0717
 Frc consts  --      2.1009                 5.7109                 5.7698
 IR Inten    --    134.9973                18.1722                19.8589

                     85                     86                     87
                      A                      A                      A
 Frequencies --   3036.0113              3038.3161              3049.3911
 Red. masses --      1.0664                 1.0676                 1.0660
 Frc consts  --      5.7911                 5.8064                 5.8401
 IR Inten    --     37.0167                11.9441                44.9198

                     88                     89                     90
                      A                      A                      A
 Frequencies --   3055.6839              3057.9184              3058.1710
 Red. masses --      1.0404                 1.0612                 1.0656
 Frc consts  --      5.7233                 5.8466                 5.8716
 IR Inten    --     18.1520                43.7609                24.9926

                     91                     92                     93
                      A                      A                      A
 Frequencies --   3071.9412              3087.2031              3092.6229
 Red. masses --      1.0982                 1.0957                 1.0697
 Frc consts  --      6.1059                 6.1530                 6.0277
 IR Inten    --     21.6674                41.8507                 2.4297

                     94                     95                     96
                      A                      A                      A
 Frequencies --   3100.9657              3107.3671              3121.3161
 Red. masses --      1.1044                 1.1033                 1.0988
 Frc consts  --      6.2573                 6.2764                 6.3071
 IR Inten    --     17.2625                50.8358                49.0897

                     97                     98                     99
                      A                      A                      A
 Frequencies --   3142.7029              3155.2940              3168.6391
 Red. masses --      1.1020                 1.0892                 1.0919
 Frc consts  --      6.4129                 6.3890                 6.4594
 IR Inten    --     21.5887                 9.7085                 3.9694

                    100                    101                    102
                      A                      A                      A
 Frequencies --   3217.2332              3504.9902              3663.9342
 Red. masses --      1.0958                 1.0524                 1.0983
 Frc consts  --      6.6826                 7.6173                 8.6867
 IR Inten    --      0.2333               123.1313                71.2154

 - Thermochemistry -
 -------------------
 Temperature   298.150 Kelvin.  Pressure   1.00000 Atm.
 Atom     1 has atomic number  6 and mass  12.00000

 Molecular mass:   264.09662 amu.
 Principal axes and moments of inertia in atomic units:
                           1         2         3
     Eigenvalues --  3445.965484918.694455572.67146
           X            0.99929  -0.02388  -0.02900
           Y            0.02084   0.99467  -0.10093
           Z            0.03126   0.10026   0.99447
 This molecule is an asymmetric top.
 Rotational symmetry number  1.
 Warning -- assumption of classical behavior for rotation
           may cause significant error
 Rotational temperatures (Kelvin)      0.02513     0.01761     0.01554
 Rotational constants (GHZ):           0.52373     0.36691     0.32386
 Zero-point vibrational energy     816740.2 (Joules/Mol)
                                  195.20560 (Kcal/Mol)
 Warning -- explicit consideration of  28 degrees of freedom as
           vibrations may cause significant error
 Vibrational temperatures:     46.78    62.32   107.48   130.44   154.94
          (Kelvin)            186.47   235.45   238.66   289.72   324.30
                              343.33   374.88   405.36   427.70   455.78
                              479.58   511.43   534.72   580.38   621.03
                              642.59   657.90   709.04   715.61   780.01
                              828.35   853.76   880.52   936.34   968.11
                             1080.27  1149.31  1150.98  1169.42  1199.83
                             1240.16  1273.50  1294.91  1346.39  1353.73
                             1383.54  1415.72  1460.60  1492.86  1516.17
                             1533.17  1569.87  1579.28  1593.79  1636.21
                             1645.03  1671.33  1693.14  1757.00  1791.91
                             1811.16  1869.73  1879.20  1881.45  1902.91
                             1927.29  1939.48  1946.22  1999.65  2021.62
                             2025.91  2032.96  2047.10  2063.13  2067.43
                             2080.80  2096.58  2146.94  2162.65  2178.46
                             2185.57  2191.75  2198.87  2203.53  2206.11
                             2228.44  2411.97  4303.97  4349.20  4368.14
                             4371.46  4387.39  4396.45  4399.66  4400.03
                             4419.84  4441.80  4449.59  4461.60  4470.81
                             4490.88  4521.65  4539.76  4558.96  4628.88
                             5042.90  5271.58

 Zero-point correction=                           0.311080 (Hartree/Particle)
 Thermal correction to Energy=                    0.327952
 Thermal correction to Enthalpy=                  0.328897
 Thermal correction to Gibbs Free Energy=         0.266645
 Sum of electronic and zero-point Energies=          -1449.150232
 Sum of electronic and thermal Energies=             -1449.133360
 Sum of electronic and thermal Enthalpies=           -1449.132416
 Sum of electronic and thermal Free Energies=        -1449.194668

                     E (Thermal)             CV                S
                      KCal/Mol        Cal/Mol-Kelvin    Cal/Mol-Kelvin
 Total                  205.793             65.301            131.020
 Electronic               0.000              0.000              0.000
 Translational            0.889              2.981             42.613
 Rotational               0.889              2.981             32.913
 Vibrational            204.016             59.340             55.495
 Vibration     1          0.594              1.983              5.670
 Vibration     2          0.595              1.980              5.101
 Vibration     3          0.599              1.966              4.026
 Vibration     4          0.602              1.956              3.646
 Vibration     5          0.606              1.943              3.310
 Vibration     6          0.612              1.924              2.952
 Vibration     7          0.623              1.887              2.507
 Vibration     8          0.624              1.884              2.482
 Vibration     9          0.638              1.838              2.121
 Vibration    10          0.650              1.802              1.915
 Vibration    11          0.657              1.781              1.813
 Vibration    12          0.669              1.745              1.658
 Vibration    13          0.681              1.707              1.523
 Vibration    14          0.691              1.679              1.432
 Vibration    15          0.704              1.642              1.327
 Vibration    16          0.715              1.609              1.244
 Vibration    17          0.731              1.564              1.142
 Vibration    18          0.743              1.530              1.073
 Vibration    19          0.769              1.463              0.950
 Vibration    20          0.793              1.401              0.853
 Vibration    21          0.806              1.368              0.806
 Vibration    22          0.815              1.345              0.774
 Vibration    23          0.849              1.266              0.676
 Vibration    24          0.853              1.256              0.665
 Vibration    25          0.897              1.157              0.561
 Vibration    26          0.932              1.084              0.493
 Vibration    27          0.951              1.046              0.461
 Vibration    28          0.971              1.006              0.429

                           ! Non-Optimized Parameters !
 Normal termination of Gaussian 16 at Thu Dec 10 22:52:37 2020.

 ----------------------------------------------------------------------
 # B3LYP/6-311++G(d,p) empiricaldispersion=gd3bj scf=xqc pop=npa geom=c
 heck
 ----------------------------------------------------------------------

 --------------------------------------
 CID_83056408_JID_6393_Energie_neutraal
 --------------------------------------
 Structure from the checkpoint file:  "JID_6393.chk"
 Charge =  0 Multiplicity = 1

 SCF Done:  E(RB3LYP) =  -1449.70325899     A.U. after   15 cycles
 Normal termination of Gaussian 16 at Thu Dec 10 22:59:45 2020.

 ----------------------------------------------------------------------
 # B3LYP/6-311++G(d,p) empiricaldispersion=gd3bj scf=xqc pop=npa geom=c
 heck
 ----------------------------------------------------------------------

 ------------------------------------
 CID_83056408_JID_6393_Energie_kation
 ------------------------------------
 Structure from the checkpoint file:  "JID_6393.chk"
 Charge =  1 Multiplicity = 2

 SCF Done:  E(UB3LYP) =  -1449.39433243     A.U. after   26 cycles
 Normal termination of Gaussian 16 at Thu Dec 10 23:16:49 2020.
 Gaussian 16:  ES64L-G16RevA.03 25-Dec-2016

 ----------------------------------------------------------------------
 # B3LYP/6-311++G(d,p) empiricaldispersion=gd3bj scf=xqc pop=npa geom=c
 heck
 ----------------------------------------------------------------------

 -----------------------------------
 CID_83056408_JID_6393_Energie_anion
 -----------------------------------
 Structure from the checkpoint file:  "JID_6393.chk"
 Charge = -1 Multiplicity = 2

                         Standard orientation:
 ---------------------------------------------------------------------
 Center     Atomic      Atomic             Coordinates (Angstroms)
 Number     Number       Type             X           Y           Z
 ---------------------------------------------------------------------
      1          6           0        1.206644    1.826622   -2.053101
      2          6           0        2.559326    1.669880   -1.352949
      3          6           0        2.515877    1.207436    0.113900
      4          6           0        1.950648   -0.199270    0.407740
      5          6           0        2.568769   -1.228946   -0.552322
      6          6           0        2.165477   -2.667300   -0.238800
      7          6           0        0.642777   -2.761330   -0.232114
      8          6           0        0.052014   -1.742698    0.734773
      9          7           0        0.447783   -0.353640    0.347272
     10         16           0       -0.407558    0.765845    1.314739
     11          8           0       -0.160001    0.550249    2.746587
     12          8           0       -0.231446    2.121843    0.758811
     13          6           0       -2.156958    0.350376    0.967167
     14          6           0       -2.481343    0.240058   -0.509323
     15         16           0       -3.178977   -1.132023   -1.135766
     16          7           0       -2.200166    1.342233   -1.220079
     17          1           0        0.632340    0.895507   -2.027945
     18          1           0        1.348688    2.116975   -3.100672
     19          1           0        0.608760    2.598526   -1.561055
     20          1           0        3.190198    0.985372   -1.933091
     21          1           0        3.082269    2.634893   -1.370588
     22          1           0        3.552182    1.163340    0.475248
     23          1           0        2.015927    1.959872    0.723998
     24          1           0        2.254977   -0.459633    1.434177
     25          1           0        3.657780   -1.108591   -0.507757
     26          1           0        2.258917   -0.986965   -1.574732
     27          1           0        2.599035   -3.354358   -0.974468
     28          1           0        2.557758   -2.960065    0.745128
     29          1           0        0.241858   -2.568648   -1.234544
     30          1           0        0.302228   -3.758236    0.070253
     31          1           0       -1.032839   -1.822243    0.690997
     32          1           0        0.381088   -1.952814    1.763280
     33          1           0       -2.433502   -0.552201    1.504123
     34          1           0       -2.673622    1.204795    1.418640
     35          1           0       -1.591567    2.054351   -0.823160
     36          1           0       -2.309042    1.303129   -2.224782
 ---------------------------------------------------------------------

 SCF Done:  E(UB3LYP) =  -1449.71033445     A.U. after   28 cycles

 The electronic state is 2-A.
 Alpha  occ. eigenvalues --  -88.94026 -88.64274 -19.00636 -19.00627 -14.24005
 Alpha  occ. eigenvalues --  -14.19146 -10.11793 -10.09920 -10.08913 -10.08422
 Alpha  occ. eigenvalues --  -10.07524 -10.07470 -10.07020 -10.06997 -10.06952
 Alpha  occ. eigenvalues --  -10.05055  -8.00454  -7.73025  -5.96696  -5.96675
 Alpha  occ. eigenvalues --   -5.96503  -5.69364  -5.68923  -5.68616  -1.00547
 Alpha  occ. eigenvalues --   -0.89683  -0.83417  -0.80099  -0.71531  -0.69943
 Alpha  occ. eigenvalues --   -0.66061  -0.65218  -0.60080  -0.58085  -0.55952
 Alpha  occ. eigenvalues --   -0.53119  -0.49905  -0.48441  -0.45623  -0.44538
 Alpha  occ. eigenvalues --   -0.41538  -0.40041  -0.38614  -0.37863  -0.36405
 Alpha  occ. eigenvalues --   -0.35732  -0.35332  -0.35090  -0.34384  -0.32341
 Alpha  occ. eigenvalues --   -0.31618  -0.30828  -0.29733  -0.29409  -0.28118
 Alpha  occ. eigenvalues --   -0.26851  -0.25306  -0.24775  -0.24613  -0.23942
 Alpha  occ. eigenvalues --   -0.23552  -0.23390  -0.22332  -0.22187  -0.21712
 Alpha  occ. eigenvalues --   -0.20706  -0.19962  -0.18015  -0.15259  -0.09524
 Alpha  occ. eigenvalues --   -0.07031   0.04256
 Alpha virt. eigenvalues --    0.06014   0.07416   0.08009   0.08535   0.09673
 Alpha virt. eigenvalues --    0.09987   0.10425   0.10922   0.11439   0.12307
 Alpha virt. eigenvalues --    0.12595   0.12833   0.13129   0.13688   0.14177

  Beta  occ. eigenvalues --  -88.93968 -88.64227 -19.00629 -19.00585 -14.23994
  Beta  occ. eigenvalues --  -14.18981 -10.11791 -10.09920 -10.08928 -10.07694
  Beta  occ. eigenvalues --  -10.07510 -10.07459 -10.07009 -10.06992 -10.06947
  Beta  occ. eigenvalues --  -10.05045  -8.00387  -7.72982  -5.96651  -5.96627
  Beta  occ. eigenvalues --   -5.96393  -5.69364  -5.68746  -5.68590  -1.00443
  Beta  occ. eigenvalues --   -0.89610  -0.83378  -0.79437  -0.71485  -0.69928
  Beta  occ. eigenvalues --   -0.65776  -0.65093  -0.59948  -0.57653  -0.55834
  Beta  occ. eigenvalues --   -0.53078  -0.49760  -0.48413  -0.45353  -0.44198
  Beta  occ. eigenvalues --   -0.41414  -0.39844  -0.38507  -0.37817  -0.36341
  Beta  occ. eigenvalues --   -0.35617  -0.35237  -0.34900  -0.34348  -0.32146
  Beta  occ. eigenvalues --   -0.31553  -0.30626  -0.29672  -0.29215  -0.28087
  Beta  occ. eigenvalues --   -0.26812  -0.25263  -0.24664  -0.24536  -0.23836
  Beta  occ. eigenvalues --   -0.23371  -0.22864  -0.22202  -0.21765  -0.21075
  Beta  occ. eigenvalues --   -0.20381  -0.19693  -0.17733  -0.15212  -0.08137
  Beta  occ. eigenvalues --   -0.06882
  Beta virt. eigenvalues --    0.06286   0.07451   0.08098   0.08601   0.09581
  Beta virt. eigenvalues --    0.09828   0.10383   0.10421   0.11376   0.11635
  Beta virt. eigenvalues --    0.12380   0.12598   0.12759   0.13197   0.13581

 Mulliken charges and spin densities:
               1          2
     1  C   -0.378733  -0.171394
     2  C   -0.177103  -0.157463
     3  C    0.009135  -0.080527
     4  C   -0.456820   0.136558
     5  C   -0.099674  -0.202159
     6  C   -0.210979  -0.237086
     7  C   -0.228920  -0.142922
     8  C   -0.128627  -0.073453
     9  N    0.396468  -0.007160
    10  S   -0.110261   0.037531
    11  O   -0.029584   0.012405
    12  O   -0.125617   0.001664
    13  C   -0.580315  -0.199535
    14  C    0.145051   0.398357
    15  S   -0.818674   0.227487
    16  N   -0.203504   0.102654
    17  H    0.087523   0.083078
    18  H    0.042577   0.075023
    19  H    0.144168  -0.007085
    20  H    0.001614   0.133484
    21  H    0.097288   0.064305
    22  H    0.025005   0.114828
    23  H    0.196635   0.008700
    24  H    0.140847   0.061159
    25  H   -0.188709   0.355750
    26  H    0.250816  -0.088613
    27  H   -0.151979   0.327030
    28  H    0.081634   0.031084
    29  H    0.078911   0.053159
    30  H    0.115566   0.054458
    31  H    0.054922  -0.057960
    32  H    0.186887   0.018750
    33  H    0.264987  -0.012425
    34  H    0.115523   0.142575
    35  H    0.230739   0.001056
    36  H    0.223205  -0.003315
 Sum of Mulliken charges =  -1.00000   1.00000

 Dipole moment (field-independent basis, Debye):
    X=              5.2036    Y=              1.1989    Z=              1.1229  Tot=              5.4567
 Quadrupole moment (field-independent basis, Debye-Ang):
   XX=           -171.2452   YY=           -140.3538   ZZ=           -143.2784
   XY=             -5.7072   XZ=             -8.0549   YZ=             -9.7689

 Summary of Natural Population Analysis:

                                       Natural Population
                Natural  -----------------------------------------------
    Atom  No    Charge         Core      Valence    Rydberg      Total
 -----------------------------------------------------------------------
      C    1   -0.29140      0.99966     2.28657    0.00516     3.29140
      C    2   -0.19035      0.99964     2.18289    0.00783     3.19035
      C    3   -0.19792      0.99960     2.18820    0.01013     3.19792
      C    4   -0.00565      0.99957     1.99315    0.01293     3.00565
      C    5   -0.19672      0.99960     2.18725    0.00987     3.19672
      C    6   -0.18871      0.99963     2.18106    0.00802     3.18871
      C    7   -0.19419      0.99962     2.18535    0.00922     3.19419
      C    8   -0.09917      0.99959     2.08856    0.01102     3.09917
      N    9   -0.36593      0.99972     2.85340    0.01282     3.86593
      S   10    1.10596      4.99926     1.79971    0.09508     6.89404
      O   11   -0.46588      0.99991     3.46103    0.00494     4.46588
      O   12   -0.48018      0.99990     3.47344    0.00684     4.48018
      C   13   -0.30969      0.99951     2.29694    0.01324     3.30969
      C   14    0.15426      0.99966     1.82635    0.01973     2.84574
      S   15   -0.13757      4.99954     3.12267    0.01536     8.13757
      N   16   -0.36938      0.99966     2.85848    0.01125     3.86938
      H   17    0.10771      0.00000     0.39090    0.00139     0.39229
      H   18    0.09078      0.00000     0.40839    0.00082     0.40922
      H   19    0.10224      0.00000     0.39662    0.00114     0.39776
      H   20    0.09119      0.00000     0.40772    0.00109     0.40881
      H   21    0.09289      0.00000     0.40623    0.00088     0.40711
      H   22    0.09697      0.00000     0.40208    0.00096     0.40303
      H   23    0.11410      0.00000     0.38471    0.00119     0.38590
      H   24    0.09171      0.00000     0.40659    0.00170     0.40829
      H   25    0.10174      0.00000     0.39713    0.00114     0.39826
      H   26    0.10131      0.00000     0.39727    0.00142     0.39869
      H   27    0.09850      0.00000     0.40063    0.00087     0.40150
      H   28    0.09189      0.00000     0.40695    0.00115     0.40811
      H   29    0.10772      0.00000     0.39114    0.00113     0.39228
      H   30    0.10056      0.00000     0.39871    0.00073     0.39944
      H   31    0.11798      0.00000     0.38031    0.00171     0.38202
      H   32    0.08836      0.00000     0.41047    0.00118     0.41164
      H   33    0.12110      0.00000     0.37804    0.00086     0.37890
      H   34    0.12453      0.00000     0.37410    0.00137     0.37547
      H   35    0.19998      0.00000     0.29868    0.00134     0.30002
      H   36    0.19128      0.00000     0.30752    0.00120     0.30872
 =======================================================================
   * Total *    0.00000     23.99405    46.72925    0.27670    71.00000

 Normal termination of Gaussian 16 at Thu Dec 10 23:33:32 2020.
