 Gaussian 16, Revision A.03,

 -----------------------------------------------------------
 # opt freq B3LYP/6-31G(d) empiricaldispersion=gd3bj scf=xqc
 -----------------------------------------------------------

 ------------------------------
 CID_71362125_JID_2311_neutraal
 ------------------------------
 Symbolic Z-matrix:
 Charge =  0 Multiplicity = 1

 SCF Done:  E(RB3LYP) =  -1201.95603420     A.U. after   14 cycles
 SCF Done:  E(RB3LYP) =  -1201.95835872     A.U. after   12 cycles
 SCF Done:  E(RB3LYP) =  -1201.95857188     A.U. after   11 cycles
 SCF Done:  E(RB3LYP) =  -1201.95868379     A.U. after   11 cycles
 SCF Done:  E(RB3LYP) =  -1201.95870155     A.U. after   11 cycles
 SCF Done:  E(RB3LYP) =  -1201.95873631     A.U. after   10 cycles
 SCF Done:  E(RB3LYP) =  -1201.95874785     A.U. after   10 cycles
 SCF Done:  E(RB3LYP) =  -1201.95875256     A.U. after    9 cycles
 SCF Done:  E(RB3LYP) =  -1201.95875456     A.U. after    8 cycles
 SCF Done:  E(RB3LYP) =  -1201.95875606     A.U. after    9 cycles
 SCF Done:  E(RB3LYP) =  -1201.95875659     A.U. after    8 cycles
 SCF Done:  E(RB3LYP) =  -1201.95875671     A.U. after    7 cycles
 SCF Done:  E(RB3LYP) =  -1201.95875686     A.U. after    7 cycles
 SCF Done:  E(RB3LYP) =  -1201.95875691     A.U. after    7 cycles
 Optimization completed.
    -- Stationary point found.
 Normal termination of Gaussian 16 at Wed Dec  9 17:00:34 2020.

 --------------------------------------------------------------------
 #N Geom=AllCheck Guess=TCheck SCRF=Check GenChk RB3LYP/6-31G(d) Freq
 --------------------------------------------------------------------

 Structure from the checkpoint file:  "JID_2311.chk"
 ------------------------------
 CID_71362125_JID_2311_neutraal
 ------------------------------
 Charge =  0 Multiplicity = 1

 SCF Done:  E(RB3LYP) =  -1201.95875691     A.U. after    1 cycles

  Exact polarizability: 176.729   3.242 135.216 -16.413  11.663  81.111
 Approx polarizability: 243.814   2.432 222.230 -32.090  28.117 129.200

                      1                      2                      3
                      A                      A                      A
 Frequencies --     22.8627                43.6162                68.8236
 Red. masses --      6.5171                 4.4973                 4.8587
 Frc consts  --      0.0020                 0.0050                 0.0136
 IR Inten    --      1.0418                 0.5068                 0.6537

                      4                      5                      6
                      A                      A                      A
 Frequencies --     97.8238               166.3564               200.8497
 Red. masses --      5.9936                 6.6028                 3.5667
 Frc consts  --      0.0338                 0.1077                 0.0848
 IR Inten    --      0.6756                 3.1178                 4.9042

                      7                      8                      9
                      A                      A                      A
 Frequencies --    236.0690               246.8595               275.8113
 Red. masses --      1.3376                 2.5034                 2.7261
 Frc consts  --      0.0439                 0.0899                 0.1222
 IR Inten    --      4.5748                 1.4002                 9.5549

                     10                     11                     12
                      A                      A                      A
 Frequencies --    287.5697               321.3100               373.3642
 Red. masses --      1.9697                 1.3295                 2.9774
 Frc consts  --      0.0960                 0.0809                 0.2445
 IR Inten    --      2.8728                18.8428                13.3050

                     13                     14                     15
                      A                      A                      A
 Frequencies --    385.5337               420.6836               508.6069
 Red. masses --      1.4513                 3.1300                 3.4901
 Frc consts  --      0.1271                 0.3264                 0.5319
 IR Inten    --    136.0459                 0.9985                 3.2708

                     16                     17                     18
                      A                      A                      A
 Frequencies --    518.5201               527.8415               603.4487
 Red. masses --      2.9855                 3.5086                 3.6444
 Frc consts  --      0.4729                 0.5760                 0.7819
 IR Inten    --      1.7990                 2.6581                 7.4765

                     19                     20                     21
                      A                      A                      A
 Frequencies --    634.9310               680.0049               689.4224
 Red. masses --      6.3365                 4.6534                 2.2711
 Frc consts  --      1.5051                 1.2678                 0.6360
 IR Inten    --      0.8652                18.5695                 6.0785

                     22                     23                     24
                      A                      A                      A
 Frequencies --    708.6336               762.7800               785.4580
 Red. masses --      2.0602                 1.7219                 1.4407
 Frc consts  --      0.6095                 0.5903                 0.5237
 IR Inten    --     11.5829                54.6794                18.2595

                     25                     26                     27
                      A                      A                      A
 Frequencies --    813.1956               826.7455               878.6715
 Red. masses --      2.7296                 1.2812                 1.4728
 Frc consts  --      1.0635                 0.5160                 0.6699
 IR Inten    --      1.7115                 0.0759                 7.1873

                     28                     29                     30
                      A                      A                      A
 Frequencies --    893.8318               900.7475               950.5425
 Red. masses --      2.8636                 1.2737                 1.3193
 Frc consts  --      1.3479                 0.6089                 0.7023
 IR Inten    --      1.0471                 4.8573                 0.0960

                     31                     32                     33
                      A                      A                      A
 Frequencies --    978.4750              1012.3825              1018.1297
 Red. masses --      1.2249                 5.1300                 1.6383
 Frc consts  --      0.6909                 3.0978                 1.0006
 IR Inten    --      0.4333                 3.3248                25.0963

                     34                     35                     36
                      A                      A                      A
 Frequencies --   1052.2299              1067.6859              1083.5624
 Red. masses --      2.3812                 1.8532                 2.6386
 Frc consts  --      1.5534                 1.2447                 1.8253
 IR Inten    --      9.9349                14.3230                 3.5797

                     37                     38                     39
                      A                      A                      A
 Frequencies --   1117.8924              1150.6875              1193.2315
 Red. masses --      1.8333                 2.3628                 1.0839
 Frc consts  --      1.3498                 1.8433                 0.9093
 IR Inten    --      4.7042                17.3380                 1.9411

                     40                     41                     42
                      A                      A                      A
 Frequencies --   1218.9113              1240.7654              1259.9104
 Red. masses --      1.1313                 1.0790                 1.2976
 Frc consts  --      0.9903                 0.9787                 1.2136
 IR Inten    --     10.3638                 1.5541                 1.5560

                     43                     44                     45
                      A                      A                      A
 Frequencies --   1290.0166              1302.7620              1335.4455
 Red. masses --      1.2755                 2.4237                 1.3348
 Frc consts  --      1.2506                 2.4236                 1.4025
 IR Inten    --     37.0068                79.1731                22.8845

                     46                     47                     48
                      A                      A                      A
 Frequencies --   1365.7870              1372.6715              1379.0117
 Red. masses --      1.2853                 1.6269                 2.4102
 Frc consts  --      1.4126                 1.8061                 2.7004
 IR Inten    --     27.4820                37.0572                24.2684

                     49                     50                     51
                      A                      A                      A
 Frequencies --   1413.5125              1477.7313              1481.3184
 Red. masses --      1.3173                 1.2380                 1.4477
 Frc consts  --      1.5507                 1.5928                 1.8716
 IR Inten    --     19.4166                19.1316                 3.9181

                     52                     53                     54
                      A                      A                      A
 Frequencies --   1519.2328              1543.0971              1559.4523
 Red. masses --      1.1106                 1.7669                 2.3662
 Frc consts  --      1.5103                 2.4788                 3.3904
 IR Inten    --      9.4061                 1.9831               136.6659

                     55                     56                     57
                      A                      A                      A
 Frequencies --   1647.8891              1672.2394              2660.0298
 Red. masses --      4.9795                 5.6027                 1.0378
 Frc consts  --      7.9669                 9.2309                 4.3265
 IR Inten    --      5.7842               132.1426                 5.8124

                     58                     59                     60
                      A                      A                      A
 Frequencies --   2680.6124              3042.2371              3080.2994
 Red. masses --      1.0385                 1.0681                 1.0825
 Frc consts  --      4.3967                 5.8242                 6.0514
 IR Inten    --     19.4793                29.1591                 2.2994

                     61                     62                     63
                      A                      A                      A
 Frequencies --   3106.8981              3118.2924              3161.7348
 Red. masses --      1.0603                 1.0967                 1.1077
 Frc consts  --      6.0300                 6.2831                 6.5243
 IR Inten    --      9.6687                17.4983                 3.9982

                     64                     65                     66
                      A                      A                      A
 Frequencies --   3169.1657              3185.9516              3194.1817
 Red. masses --      1.0873                 1.0865                 1.0919
 Frc consts  --      6.4341                 6.4979                 6.5638
 IR Inten    --     14.4921                 1.7928                27.4914

                     67                     68                     69
                      A                      A                      A
 Frequencies --   3212.3010              3221.6917              3603.8491
 Red. masses --      1.0946                 1.0931                 1.0764
 Frc consts  --      6.6549                 6.6843                 8.2364
 IR Inten    --     36.5592                 9.4402                12.8237

 - Thermochemistry -
 -------------------
 Temperature   298.150 Kelvin.  Pressure   1.00000 Atm.
 Atom     1 has atomic number  6 and mass  12.00000

 Molecular mass:   199.04894 amu.
 Principal axes and moments of inertia in atomic units:
                           1         2         3
     Eigenvalues --  1347.797145272.344856154.81579
           X            0.99999  -0.00115  -0.00351
           Y            0.00120   0.99987   0.01610
           Z            0.00349  -0.01611   0.99986
 This molecule is an asymmetric top.
 Rotational symmetry number  1.
 Warning -- assumption of classical behavior for rotation
           may cause significant error
 Rotational temperatures (Kelvin)      0.06426     0.01643     0.01407
 Rotational constants (GHZ):           1.33903     0.34230     0.29322
 Zero-point vibrational energy     532470.9 (Joules/Mol)
                                  127.26361 (Kcal/Mol)
 Warning -- explicit consideration of  18 degrees of freedom as
           vibrations may cause significant error
 Vibrational temperatures:     32.89    62.75    99.02   140.75   239.35
          (Kelvin)            288.98   339.65   355.18   396.83   413.75
                              462.29   537.19   554.70   605.27   731.77
                              746.03   759.45   868.23   913.52   978.38
                              991.93  1019.57  1097.47  1130.10  1170.01
                             1189.50  1264.21  1286.02  1295.97  1367.62
                             1407.81  1456.59  1464.86  1513.92  1536.16
                             1559.00  1608.40  1655.58  1716.79  1753.74
                             1785.18  1812.73  1856.05  1874.38  1921.41
                             1965.06  1974.97  1984.09  2033.73  2126.13
                             2131.29  2185.84  2220.17  2243.70  2370.94
                             2405.98  3827.19  3856.80  4377.10  4431.86
                             4470.13  4486.53  4549.03  4559.72  4583.87
                             4595.72  4621.78  4635.30  5185.14

 Zero-point correction=                           0.202807 (Hartree/Particle)
 Thermal correction to Energy=                    0.215521
 Thermal correction to Enthalpy=                  0.216465
 Thermal correction to Gibbs Free Energy=         0.162035
 Sum of electronic and zero-point Energies=          -1201.755949
 Sum of electronic and thermal Energies=             -1201.743236
 Sum of electronic and thermal Enthalpies=           -1201.742292
 Sum of electronic and thermal Free Energies=        -1201.796722

                     E (Thermal)             CV                S
                      KCal/Mol        Cal/Mol-Kelvin    Cal/Mol-Kelvin
 Total                  135.241             47.992            114.557
 Electronic               0.000              0.000              0.000
 Translational            0.889              2.981             41.770
 Rotational               0.889              2.981             32.148
 Vibrational            133.464             42.031             40.639
 Vibration     1          0.593              1.985              6.369
 Vibration     2          0.595              1.980              5.088
 Vibration     3          0.598              1.969              4.187
 Vibration     4          0.603              1.951              3.497
 Vibration     5          0.624              1.884              2.476
 Vibration     6          0.638              1.839              2.125
 Vibration     7          0.655              1.786              1.832
 Vibration     8          0.661              1.768              1.753
 Vibration     9          0.677              1.718              1.560
 Vibration    10          0.685              1.697              1.488
 Vibration    11          0.707              1.633              1.303
 Vibration    12          0.745              1.527              1.066
 Vibration    13          0.754              1.501              1.017
 Vibration    14          0.783              1.425              0.890
 Vibration    15          0.864              1.231              0.637
 Vibration    16          0.874              1.209              0.613
 Vibration    17          0.883              1.188              0.592
 Vibration    18          0.962              1.024              0.444

 Optimization completed.
    -- Stationary point found.
 Normal termination of Gaussian 16 at Wed Dec  9 17:06:51 2020.

 ----------------------------------------------------------------------
 # B3LYP/6-311++G(d,p) empiricaldispersion=gd3bj scf=xqc pop=npa geom=c
 heck
 ----------------------------------------------------------------------

 --------------------------------------
 CID_71362125_JID_2311_Energie_neutraal
 --------------------------------------
 Structure from the checkpoint file:  "JID_2311.chk"
 Charge =  0 Multiplicity = 1

 SCF Done:  E(RB3LYP) =  -1202.13222551     A.U. after   15 cycles
 Normal termination of Gaussian 16 at Wed Dec  9 17:10:02 2020.

 ----------------------------------------------------------------------
 # B3LYP/6-311++G(d,p) empiricaldispersion=gd3bj scf=xqc pop=npa geom=c
 heck
 ----------------------------------------------------------------------

 ------------------------------------
 CID_71362125_JID_2311_Energie_kation
 ------------------------------------
 Structure from the checkpoint file:  "JID_2311.chk"
 Charge =  1 Multiplicity = 2

 SCF Done:  E(UB3LYP) =  -1201.85342008     A.U. after   24 cycles
 Normal termination of Gaussian 16 at Wed Dec  9 17:16:55 2020.
 Gaussian 16:  ES64L-G16RevA.03 25-Dec-2016

 ----------------------------------------------------------------------
 # B3LYP/6-311++G(d,p) empiricaldispersion=gd3bj scf=xqc pop=npa geom=c
 heck
 ----------------------------------------------------------------------

 -----------------------------------
 CID_71362125_JID_2311_Energie_anion
 -----------------------------------
 Structure from the checkpoint file:  "JID_2311.chk"
 Charge = -1 Multiplicity = 2

                         Standard orientation:
 ---------------------------------------------------------------------
 Center     Atomic      Atomic             Coordinates (Angstroms)
 Number     Number       Type             X           Y           Z
 ---------------------------------------------------------------------
      1          6           0       -4.274893    0.375640    0.486928
      2          6           0       -3.259199    1.328981    0.467662
      3          6           0       -1.971313    1.001324    0.041933
      4          6           0       -1.675621   -0.307742   -0.373479
      5          6           0       -2.705728   -1.266767   -0.353213
      6          6           0       -3.984999   -0.926267    0.068778
      7          7           0       -0.397438   -0.697783   -0.779059
      8          6           0        0.666862    0.257591   -1.035630
      9          6           0        1.410004    0.671409    0.248673
     10          6           0        1.861822   -0.516185    1.104753
     11         16           0        3.009769   -1.693974    0.275100
     12         16           0        2.774073    1.841454   -0.150174
     13          1           0       -5.273935    0.638789    0.819869
     14          1           0       -3.464337    2.348537    0.782973
     15          1           0       -1.207449    1.770179    0.024639
     16          1           0       -2.488209   -2.284927   -0.669154
     17          1           0       -4.762415   -1.685571    0.071835
     18          1           0       -0.394401   -1.507070   -1.383892
     19          1           0        1.384530   -0.218918   -1.708993
     20          1           0        0.300600    1.159923   -1.543200
     21          1           0        0.738937    1.265633    0.878663
     22          1           0        2.402107   -0.155352    1.982146
     23          1           0        0.986183   -1.075229    1.441163
     24          1           0        2.063117   -2.360793   -0.418746
     25          1           0        3.554265    0.921691   -0.761136
 ---------------------------------------------------------------------

 SCF Done:  E(UB3LYP) =  -1202.12312290     A.U. after   33 cycles
 SCF Done:  E(UB3LYP) =  -1202.12312290     a.u. after    1 cycles

 The electronic state is 2-A.
 Alpha  occ. eigenvalues --  -88.74746 -88.73847 -14.22042 -10.11917 -10.11644
 Alpha  occ. eigenvalues --  -10.10798 -10.10729 -10.07874 -10.07595 -10.07133
 Alpha  occ. eigenvalues --  -10.06820 -10.06781  -7.83463  -7.82566  -5.79818
 Alpha  occ. eigenvalues --   -5.79491  -5.78919  -5.78862  -5.78582  -5.77967
 Alpha  occ. eigenvalues --   -0.83805  -0.75066  -0.72862  -0.65892  -0.64902
 Alpha  occ. eigenvalues --   -0.64165  -0.59333  -0.56543  -0.51460  -0.49987
 Alpha  occ. eigenvalues --   -0.47146  -0.43276  -0.40423  -0.38652  -0.37890
 Alpha  occ. eigenvalues --   -0.36236  -0.34276  -0.33283  -0.32315  -0.31461
 Alpha  occ. eigenvalues --   -0.30296  -0.29361  -0.27027  -0.26891  -0.25734
 Alpha  occ. eigenvalues --   -0.24791  -0.23481  -0.22418  -0.20307  -0.15757
 Alpha  occ. eigenvalues --   -0.15304  -0.14217  -0.10644   0.04454
 Alpha virt. eigenvalues --    0.06475   0.07214   0.08177   0.08298   0.08707
 Alpha virt. eigenvalues --    0.09085   0.09705   0.09856   0.10567   0.11334
 Alpha virt. eigenvalues --    0.11542   0.11678   0.12137   0.12375   0.14160

  Beta  occ. eigenvalues --  -88.74738 -88.73815 -14.21987 -10.11912 -10.11647
  Beta  occ. eigenvalues --  -10.10774 -10.10718 -10.07869 -10.07586 -10.07117
  Beta  occ. eigenvalues --  -10.06812 -10.06756  -7.83455  -7.82529  -5.79798
  Beta  occ. eigenvalues --   -5.79486  -5.78872  -5.78857  -5.78547  -5.77940
  Beta  occ. eigenvalues --   -0.83735  -0.75038  -0.72822  -0.65814  -0.64867
  Beta  occ. eigenvalues --   -0.64126  -0.59268  -0.56444  -0.51405  -0.49938
  Beta  occ. eigenvalues --   -0.47082  -0.43194  -0.40345  -0.38614  -0.37835
  Beta  occ. eigenvalues --   -0.36193  -0.34226  -0.33241  -0.32273  -0.31382
  Beta  occ. eigenvalues --   -0.30239  -0.29321  -0.26983  -0.26855  -0.25670
  Beta  occ. eigenvalues --   -0.24756  -0.23442  -0.22345  -0.20277  -0.15740
  Beta  occ. eigenvalues --   -0.15273  -0.14151  -0.10605
  Beta virt. eigenvalues --    0.06517   0.07422   0.07955   0.08216   0.08555
  Beta virt. eigenvalues --    0.09171   0.09453   0.09730   0.10268   0.10653
  Beta virt. eigenvalues --    0.11532   0.11726   0.12072   0.12402   0.13076

 Mulliken charges and spin densities:
               1          2
     1  C    0.675684  -0.994006
     2  C   -0.959300   0.738540
     3  C    2.293583  -1.841868
     4  C    0.456825  -0.751652
     5  C   -2.745977   2.272968
     6  C    0.669274  -0.883005
     7  N   -0.175011   0.250286
     8  C    0.990427  -1.911162
     9  C    0.041074   0.843508
    10  C   -0.779343   0.003596
    11  S    0.657112  -0.758461
    12  S    0.036938  -0.244710
    13  H   -0.010117   0.134830
    14  H   -0.212619   0.377142
    15  H    0.361241  -0.250501
    16  H   -0.830260   0.992729
    17  H   -0.228665   0.393545
    18  H   -0.281680   0.592496
    19  H   -0.386594   0.596902
    20  H   -0.131495   0.277059
    21  H   -0.017122   0.215260
    22  H    0.061176   0.154972
    23  H    0.168226   0.033125
    24  H   -0.535500   0.613187
    25  H   -0.117877   0.145223
 Sum of Mulliken charges =  -1.00000   1.00000

 Dipole moment (field-independent basis, Debye):
    X=              0.9719    Y=              5.6895    Z=              3.0703  Tot=              6.5377
 Quadrupole moment (field-independent basis, Debye-Ang):
   XX=           -152.3205   YY=           -136.1483   ZZ=           -117.9855
   XY=             -0.9188   XZ=             -0.1869   YZ=             -6.4853

 Summary of Natural Population Analysis:

                                       Natural Population
                Natural  -----------------------------------------------
    Atom  No    Charge         Core      Valence    Rydberg      Total
 -----------------------------------------------------------------------
      C    1   -0.12857      0.99956     2.11886    0.01015     3.12857
      C    2   -0.09329      0.99957     2.08413    0.00958     3.09329
      C    3   -0.13598      0.99952     2.12848    0.00798     3.13598
      C    4    0.09146      0.99948     1.89653    0.01252     2.90854
      C    5   -0.11664      0.99952     2.10625    0.01087     3.11664
      C    6   -0.09392      0.99957     2.08374    0.01061     3.09392
      N    7   -0.32069      0.99967     2.80663    0.01439     3.82069
      C    8   -0.10122      0.99957     2.08541    0.01624     3.10122
      C    9   -0.16965      0.99953     2.15806    0.01206     3.16965
      C   10   -0.25152      0.99953     2.23982    0.01217     3.25152
      S   11   -0.03086      4.99966     3.01586    0.01534     8.03086
      S   12   -0.03194      4.99964     3.01775    0.01455     8.03194
      H   13    0.09850      0.00000     0.40061    0.00089     0.40150
      H   14    0.09733      0.00000     0.40183    0.00084     0.40267
      H   15    0.09987      0.00000     0.39839    0.00174     0.40013
      H   16    0.10681      0.00000     0.39072    0.00247     0.39319
      H   17    0.10020      0.00000     0.39879    0.00101     0.39980
      H   18    0.20060      0.00000     0.28411    0.01529     0.29940
      H   19    0.10934      0.00000     0.38836    0.00229     0.39066
      H   20    0.09628      0.00000     0.40203    0.00169     0.40372
      H   21    0.10697      0.00000     0.39143    0.00160     0.39303
      H   22    0.10730      0.00000     0.39163    0.00107     0.39270
      H   23    0.11558      0.00000     0.38313    0.00129     0.38442
      H   24    0.07565      0.00000     0.41782    0.00653     0.42435
      H   25    0.06837      0.00000     0.42857    0.00306     0.43163
 =======================================================================
   * Total *    0.00000     19.99482    32.81894    0.18624    53.00000

 Normal termination of Gaussian 16 at Wed Dec  9 17:26:20 2020.
