 Gaussian 16, Revision A.03,

 -----------------------------------------------------------
 # opt freq B3LYP/6-31G(d) empiricaldispersion=gd3bj scf=xqc
 -----------------------------------------------------------

 -----------------------------
 CID_55285068_JID_874_neutraal
 -----------------------------
 Symbolic Z-matrix:
 Charge =  0 Multiplicity = 1

 SCF Done:  E(RB3LYP) =  -484.439669826     A.U. after   15 cycles
 SCF Done:  E(RB3LYP) =  -484.451524853     A.U. after   13 cycles
 SCF Done:  E(RB3LYP) =  -484.453140067     A.U. after   12 cycles
 SCF Done:  E(RB3LYP) =  -484.453927365     A.U. after   12 cycles
 SCF Done:  E(RB3LYP) =  -484.454155508     A.U. after   12 cycles
 SCF Done:  E(RB3LYP) =  -484.454262690     A.U. after   11 cycles
 SCF Done:  E(RB3LYP) =  -484.454304436     A.U. after   10 cycles
 SCF Done:  E(RB3LYP) =  -484.454332666     A.U. after   10 cycles
 SCF Done:  E(RB3LYP) =  -484.454347200     A.U. after   10 cycles
 SCF Done:  E(RB3LYP) =  -484.454357862     A.U. after   10 cycles
 SCF Done:  E(RB3LYP) =  -484.454364050     A.U. after   10 cycles
 SCF Done:  E(RB3LYP) =  -484.454365253     A.U. after    8 cycles
 SCF Done:  E(RB3LYP) =  -484.454365313     A.U. after    7 cycles
 Optimization completed.
    -- Stationary point found.
 Normal termination of Gaussian 16 at Tue Dec  8 13:36:10 2020.

 --------------------------------------------------------------------
 #N Geom=AllCheck Guess=TCheck SCRF=Check GenChk RB3LYP/6-31G(d) Freq
 --------------------------------------------------------------------

 Structure from the checkpoint file:  "JID_874.chk"
 -----------------------------
 CID_55285068_JID_874_neutraal
 -----------------------------
 Charge =  0 Multiplicity = 1

 SCF Done:  E(RB3LYP) =  -484.454365313     A.U. after    1 cycles

  Exact polarizability: 119.456   0.019  84.310  -0.718   1.118  37.587
 Approx polarizability: 204.020  10.273 146.114  -9.879   2.459  59.537

                      1                      2                      3
                      A                      A                      A
 Frequencies --    109.7301               154.9380               245.9273
 Red. masses --      4.0111                 4.1379                 1.1938
 Frc consts  --      0.0285                 0.0585                 0.0425
 IR Inten    --     11.7308                 8.9017                26.0672

                      4                      5                      6
                      A                      A                      A
 Frequencies --    258.9810               268.1850               307.2533
 Red. masses --      3.5197                 3.3206                 1.3920
 Frc consts  --      0.1391                 0.1407                 0.0774
 IR Inten    --      6.8490                 8.7827                28.8364

                      7                      8                      9
                      A                      A                      A
 Frequencies --    365.4293               427.0763               572.2551
 Red. masses --      3.1245                 4.2628                 3.9985
 Frc consts  --      0.2458                 0.4581                 0.7715
 IR Inten    --     23.3858                30.9302                16.5116

                     10                     11                     12
                      A                      A                      A
 Frequencies --    597.5479               633.5400               656.6829
 Red. masses --      5.9214                 5.8856                 4.9415
 Frc consts  --      1.2457                 1.3918                 1.2555
 IR Inten    --     29.1816                12.4565                29.4637

                     13                     14                     15
                      A                      A                      A
 Frequencies --    676.9972               703.6395               725.6106
 Red. masses --      4.0695                 4.5614                 5.6373
 Frc consts  --      1.0989                 1.3306                 1.7487
 IR Inten    --     60.8954                39.8563               132.5851

                     16                     17                     18
                      A                      A                      A
 Frequencies --    754.3739               778.9368               874.3156
 Red. masses --      1.3263                 2.1925                 4.3291
 Frc consts  --      0.4447                 0.7838                 1.9498
 IR Inten    --     17.1501               155.2030                44.4771

                     19                     20                     21
                      A                      A                      A
 Frequencies --    899.7245               941.9343               981.1779
 Red. masses --      1.3234                 3.0954                 3.4148
 Frc consts  --      0.6312                 1.6181                 1.9369
 IR Inten    --     23.7252                39.3149                44.1768

                     22                     23                     24
                      A                      A                      A
 Frequencies --   1061.3387              1085.9952              1204.6191
 Red. masses --      2.4954                 3.2855                 1.8075
 Frc consts  --      1.6561                 2.2830                 1.5453
 IR Inten    --     68.1432                 5.5451                24.4444

                     25                     26                     27
                      A                      A                      A
 Frequencies --   1247.2588              1264.1734              1316.2347
 Red. masses --      1.5301                 2.3365                 3.5663
 Frc consts  --      1.4024                 2.2001                 3.6403
 IR Inten    --      8.9968                 2.0706                15.7180

                     28                     29                     30
                      A                      A                      A
 Frequencies --   1350.7538              1364.4741              1413.1023
 Red. masses --      3.1076                 1.4635                 4.8216
 Frc consts  --      3.3406                 1.6054                 5.6727
 IR Inten    --     28.4243                 7.2400                60.4317

                     31                     32                     33
                      A                      A                      A
 Frequencies --   1475.4726              1484.8105              1560.5417
 Red. masses --      4.1912                 7.1816                 6.1592
 Frc consts  --      5.3760                 9.3285                 8.8374
 IR Inten    --     26.3014                17.1105                19.2480

                     34                     35                     36
                      A                      A                      A
 Frequencies --   1638.6640              1681.4157              1709.9327
 Red. masses --      3.4244                 1.4495                 1.0790
 Frc consts  --      5.4177                 2.4144                 1.8587
 IR Inten    --    153.7393               171.9162                13.7679

                     37                     38                     39
                      A                      A                      A
 Frequencies --   3255.5205              3307.3709              3422.4580
 Red. masses --      1.0960                 1.0970                 1.0544
 Frc consts  --      6.8437                 7.0703                 7.2769
 IR Inten    --      5.9142                 1.6668                 7.3162

                     40                     41                     42
                      A                      A                      A
 Frequencies --   3528.9145              3566.5690              3629.4192
 Red. masses --      1.0480                 1.0884                 1.0968
 Frc consts  --      7.6896                 8.1573                 8.5127
 IR Inten    --     14.7134                11.8225                15.7149

 - Thermochemistry -
 -------------------
 Temperature   298.150 Kelvin.  Pressure   1.00000 Atm.
 Atom     1 has atomic number  6 and mass  12.00000

 Molecular mass:   138.06539 amu.
 Principal axes and moments of inertia in atomic units:
                           1         2         3
     Eigenvalues --   586.186431554.096292084.70437
           X            0.99956  -0.02803   0.00952
           Y            0.02802   0.99961   0.00079
           Z           -0.00954  -0.00052   0.99995
 This molecule is an asymmetric top.
 Rotational symmetry number  1.
 Warning -- assumption of classical behavior for rotation
           may cause significant error
 Rotational temperatures (Kelvin)      0.14776     0.05573     0.04155
 Rotational constants (GHZ):           3.07878     1.16128     0.86571
 Zero-point vibrational energy     320020.8 (Joules/Mol)
                                   76.48680 (Kcal/Mol)
 Warning -- explicit consideration of  10 degrees of freedom as
           vibrations may cause significant error
 Vibrational temperatures:    157.88   222.92   353.83   372.62   385.86
          (Kelvin)            442.07   525.77   614.47   823.35   859.74
                              911.52   944.82   974.05  1012.38  1043.99
                             1085.38  1120.72  1257.95  1294.50  1355.23
                             1411.70  1527.03  1562.50  1733.18  1794.53
                             1818.86  1893.77  1943.43  1963.17  2033.14
                             2122.88  2136.31  2245.27  2357.67  2419.18
                             2460.21  4683.97  4758.57  4924.15  5077.32
                             5131.50  5221.92

 Zero-point correction=                           0.121889 (Hartree/Particle)
 Thermal correction to Energy=                    0.130019
 Thermal correction to Enthalpy=                  0.130964
 Thermal correction to Gibbs Free Energy=         0.089167
 Sum of electronic and zero-point Energies=           -484.332476
 Sum of electronic and thermal Energies=              -484.324346
 Sum of electronic and thermal Enthalpies=            -484.323402
 Sum of electronic and thermal Free Energies=         -484.365198

                     E (Thermal)             CV                S
                      KCal/Mol        Cal/Mol-Kelvin    Cal/Mol-Kelvin
 Total                   81.588             31.419             87.968
 Electronic               0.000              0.000              0.000
 Translational            0.889              2.981             40.679
 Rotational               0.889              2.981             29.031
 Vibrational             79.811             25.457             18.258
 Vibration     1          0.606              1.941              3.274
 Vibration     2          0.620              1.897              2.611
 Vibration     3          0.660              1.770              1.760
 Vibration     4          0.668              1.748              1.669
 Vibration     5          0.673              1.732              1.608
 Vibration     6          0.697              1.660              1.377
 Vibration     7          0.739              1.543              1.099
 Vibration     8          0.789              1.411              0.868
 Vibration     9          0.928              1.091              0.500
 Vibration    10          0.955              1.037              0.454

 Optimization completed.
    -- Stationary point found.
 Normal termination of Gaussian 16 at Tue Dec  8 13:39:34 2020.

 ----------------------------------------------------------------------
 # B3LYP/6-311++G(d,p) empiricaldispersion=gd3bj scf=xqc pop=npa geom=c
 heck
 ----------------------------------------------------------------------

 -------------------------------------
 CID_55285068_JID_874_Energie_neutraal
 -------------------------------------
 Structure from the checkpoint file:  "JID_874.chk"
 Charge =  0 Multiplicity = 1

 SCF Done:  E(RB3LYP) =  -484.598478848     A.U. after   15 cycles
 Normal termination of Gaussian 16 at Tue Dec  8 13:41:06 2020.

 ----------------------------------------------------------------------
 # B3LYP/6-311++G(d,p) empiricaldispersion=gd3bj scf=xqc pop=npa geom=c
 heck
 ----------------------------------------------------------------------

 -----------------------------------
 CID_55285068_JID_874_Energie_kation
 -----------------------------------
 Structure from the checkpoint file:  "JID_874.chk"
 Charge =  1 Multiplicity = 2

 SCF Done:  E(UB3LYP) =  -484.324029952     A.U. after   20 cycles
 Normal termination of Gaussian 16 at Tue Dec  8 13:44:28 2020.
 Gaussian 16:  ES64L-G16RevA.03 25-Dec-2016

 ----------------------------------------------------------------------
 # B3LYP/6-311++G(d,p) empiricaldispersion=gd3bj scf=xqc pop=npa geom=c
 heck
 ----------------------------------------------------------------------

 ----------------------------------
 CID_55285068_JID_874_Energie_anion
 ----------------------------------
 Structure from the checkpoint file:  "JID_874.chk"
 Charge = -1 Multiplicity = 2

                         Standard orientation:
 ---------------------------------------------------------------------
 Center     Atomic      Atomic             Coordinates (Angstroms)
 Number     Number       Type             X           Y           Z
 ---------------------------------------------------------------------
      1          6           0        0.428500    1.704447   -0.000641
      2          7           0        1.678568    1.350642   -0.144903
      3          7           0        1.711221   -0.049059   -0.374465
      4          7           0        0.392354   -0.499825   -0.136425
      5          6           0       -0.460279    0.588106   -0.008439
      6          6           0       -1.734221    0.016304    0.055785
      7          7           0       -1.630230   -1.340721   -0.022599
      8          6           0       -0.328658   -1.635358   -0.152505
      9          7           0       -2.968028    0.636575    0.239013
     10          7           0        2.646115   -0.763820    0.404904
     11          1           0        0.176046    2.749634    0.127087
     12          1           0        0.102866   -2.620905   -0.225542
     13          1           0       -3.724615   -0.008751    0.037381
     14          1           0       -3.080232    1.497499   -0.284651
     15          1           0        3.533265   -0.698044   -0.087818
     16          1           0        2.750617   -0.296982    1.309672
 ---------------------------------------------------------------------

 SCF Done:  E(UB3LYP) =  -484.592376555     A.U. after   29 cycles

 The electronic state is 2-A.
 Alpha  occ. eigenvalues --  -14.28996 -14.25895 -14.21518 -14.19217 -14.19153
 Alpha  occ. eigenvalues --  -14.16855 -10.09451 -10.09434 -10.07236 -10.06816
 Alpha  occ. eigenvalues --   -0.96747  -0.86758  -0.79091  -0.78081  -0.72550
 Alpha  occ. eigenvalues --   -0.64074  -0.59233  -0.50823  -0.47512  -0.46630
 Alpha  occ. eigenvalues --   -0.41720  -0.39978  -0.38923  -0.35475  -0.33727
 Alpha  occ. eigenvalues --   -0.31506  -0.31196  -0.28653  -0.24722  -0.21116
 Alpha  occ. eigenvalues --   -0.19233  -0.16759  -0.15739  -0.14179  -0.13015
 Alpha  occ. eigenvalues --   -0.06264   0.05069
 Alpha virt. eigenvalues --    0.07469   0.09218   0.09941   0.10885   0.11332
 Alpha virt. eigenvalues --    0.12490   0.14591   0.15703   0.16374   0.16962
 Alpha virt. eigenvalues --    0.17531   0.18287   0.19079   0.20005   0.20808

  Beta  occ. eigenvalues --  -14.28973 -14.25785 -14.21394 -14.19106 -14.18908
  Beta  occ. eigenvalues --  -14.16901 -10.09376 -10.09307 -10.07046 -10.06861
  Beta  occ. eigenvalues --   -0.96555  -0.86619  -0.78907  -0.77776  -0.72367
  Beta  occ. eigenvalues --   -0.63897  -0.59055  -0.50475  -0.47332  -0.46463
  Beta  occ. eigenvalues --   -0.41549  -0.39754  -0.38777  -0.35232  -0.33593
  Beta  occ. eigenvalues --   -0.31389  -0.30961  -0.28553  -0.24113  -0.20442
  Beta  occ. eigenvalues --   -0.18939  -0.16573  -0.15230  -0.13992  -0.12670
  Beta  occ. eigenvalues --   -0.05586
  Beta virt. eigenvalues --    0.08295   0.08698   0.10268   0.10764   0.11115
  Beta virt. eigenvalues --    0.11962   0.13096   0.14876   0.15838   0.16309
  Beta virt. eigenvalues --    0.16971   0.17641   0.18314   0.19263   0.19987

 Mulliken charges and spin densities:
               1          2
     1  C    0.966865  -0.926212
     2  N   -0.292342   0.027209
     3  N   -0.000950   0.632933
     4  N    0.037114  -0.217975
     5  C    1.004284  -0.793435
     6  C   -1.825193   1.247123
     7  N   -0.096198  -0.137537
     8  C    0.123496  -0.127235
     9  N   -0.421586   0.087836
    10  N   -0.010322  -0.497705
    11  H   -0.131357   0.266111
    12  H    0.028329   0.105410
    13  H    0.069313   0.179069
    14  H   -0.286075   0.531371
    15  H   -0.062206   0.321152
    16  H   -0.103171   0.301887
 Sum of Mulliken charges =  -1.00000   1.00000

 Dipole moment (field-independent basis, Debye):
    X=              0.0173    Y=             -1.1599    Z=              0.2696  Tot=              1.1909
 Quadrupole moment (field-independent basis, Debye-Ang):
   XX=           -102.8551   YY=            -82.7542   ZZ=            -74.2818
   XY=              2.6646   XZ=             -1.7633   YZ=              2.8118

 Summary of Natural Population Analysis:

                                       Natural Population
                Natural  -----------------------------------------------
    Atom  No    Charge         Core      Valence    Rydberg      Total
 -----------------------------------------------------------------------
      C    1    0.04097      0.99961     1.94555    0.01387     2.95903
      N    2   -0.12286      0.99972     2.60950    0.01363     3.62286
      N    3    0.00269      0.99974     2.47931    0.01826     3.49731
      N    4   -0.09346      0.99957     2.58209    0.01180     3.59346
      C    5   -0.01178      0.99951     1.99973    0.01254     3.01178
      C    6    0.16974      0.99952     1.81423    0.01651     2.83026
      N    7   -0.28755      0.99970     2.77778    0.01007     3.78755
      C    8    0.10732      0.99964     1.87688    0.01616     2.89268
      N    9   -0.40530      0.99972     2.89484    0.01074     3.90530
      N   10   -0.31151      0.99976     2.79906    0.01269     3.81151
      H   11    0.09715      0.00000     0.40159    0.00126     0.40285
      H   12    0.09402      0.00000     0.40458    0.00140     0.40598
      H   13    0.18375      0.00000     0.31392    0.00233     0.31625
      H   14    0.18671      0.00000     0.30688    0.00641     0.31329
      H   15    0.17809      0.00000     0.31861    0.00330     0.32191
      H   16    0.17202      0.00000     0.32297    0.00501     0.32798
 =======================================================================
   * Total *    0.00000      9.99648    25.84751    0.15601    36.00000

 Normal termination of Gaussian 16 at Tue Dec  8 13:49:58 2020.
