 Gaussian 16, Revision A.03,

 -----------------------------------------------------------
 # opt freq B3LYP/6-31G(d) empiricaldispersion=gd3bj scf=xqc
 -----------------------------------------------------------

 ------------------------------
 CID_89374245_JID_4206_neutraal
 ------------------------------
 Symbolic Z-matrix:
 Charge =  0 Multiplicity = 1

 SCF Done:  E(RB3LYP) =  -608.561410589     A.U. after   14 cycles
 SCF Done:  E(RB3LYP) =  -608.564162194     A.U. after   13 cycles
 SCF Done:  E(RB3LYP) =  -608.568791101     A.U. after   13 cycles
 SCF Done:  E(RB3LYP) =  -608.570605152     A.U. after   12 cycles
 SCF Done:  E(RB3LYP) =  -608.571745890     A.U. after   12 cycles
 SCF Done:  E(RB3LYP) =  -608.571996466     A.U. after   12 cycles
 SCF Done:  E(RB3LYP) =  -608.572224129     A.U. after   12 cycles
 SCF Done:  E(RB3LYP) =  -608.572368880     A.U. after   12 cycles
 SCF Done:  E(RB3LYP) =  -608.572465966     A.U. after   12 cycles
 SCF Done:  E(RB3LYP) =  -608.572577547     A.U. after   12 cycles
 SCF Done:  E(RB3LYP) =  -608.572897659     A.U. after    9 cycles
 SCF Done:  E(RB3LYP) =  -608.572898651     A.U. after    9 cycles
 SCF Done:  E(RB3LYP) =  -608.572899014     A.U. after    8 cycles
 SCF Done:  E(RB3LYP) =  -608.572899107     A.U. after    7 cycles
 SCF Done:  E(RB3LYP) =  -608.572899167     A.U. after    7 cycles
 Optimization completed.
    -- Stationary point found.
 Normal termination of Gaussian 16 at Thu Dec 10 09:26:37 2020.

 --------------------------------------------------------------------
 #N Geom=AllCheck Guess=TCheck SCRF=Check GenChk RB3LYP/6-31G(d) Freq
 --------------------------------------------------------------------

 Structure from the checkpoint file:  "JID_4206.chk"
 ------------------------------
 CID_89374245_JID_4206_neutraal
 ------------------------------
 Charge =  0 Multiplicity = 1

 SCF Done:  E(RB3LYP) =  -608.572899167     A.U. after    1 cycles

  Exact polarizability: 202.259  -6.756 129.442  -0.507   1.128  79.888
 Approx polarizability: 269.615  -8.026 216.452  -1.007  -2.261 126.454

                      1                      2                      3
                      A                      A                      A
 Frequencies --     28.1652                53.2626                67.4828
 Red. masses --      3.9358                 2.8910                 1.3305
 Frc consts  --      0.0018                 0.0048                 0.0036
 IR Inten    --      0.6987                 2.2418                 0.0586

                      4                      5                      6
                      A                      A                      A
 Frequencies --     74.5716                92.1185               133.6891
 Red. masses --      3.0921                 4.2620                 1.0639
 Frc consts  --      0.0101                 0.0213                 0.0112
 IR Inten    --      1.1830                 1.5651                 0.0734

                      7                      8                      9
                      A                      A                      A
 Frequencies --    173.0707               195.3709               217.6705
 Red. masses --      3.2927                 3.1339                 3.9663
 Frc consts  --      0.0581                 0.0705                 0.1107
 IR Inten    --     14.4301                30.4415                 2.4800

                     10                     11                     12
                      A                      A                      A
 Frequencies --    283.9983               305.9218               326.2679
 Red. masses --      3.5477                 1.4590                 2.8542
 Frc consts  --      0.1686                 0.0804                 0.1790
 IR Inten    --      2.1058                94.3723                13.0107

                     13                     14                     15
                      A                      A                      A
 Frequencies --    347.8047               416.9218               444.0407
 Red. masses --      3.1550                 2.9248                 1.5295
 Frc consts  --      0.2249                 0.2995                 0.1777
 IR Inten    --     22.8862                34.4596               147.4221

                     16                     17                     18
                      A                      A                      A
 Frequencies --    455.5462               459.1895               504.0132
 Red. masses --      3.1210                 2.1897                 1.4322
 Frc consts  --      0.3816                 0.2720                 0.2144
 IR Inten    --      3.2470                54.9940                19.8554

                     19                     20                     21
                      A                      A                      A
 Frequencies --    531.2046               552.6779               567.2965
 Red. masses --      3.6706                 2.2661                 3.6773
 Frc consts  --      0.6103                 0.4078                 0.6973
 IR Inten    --      2.1126                10.5038                 2.1053

                     22                     23                     24
                      A                      A                      A
 Frequencies --    597.0424               608.4638               699.1036
 Red. masses --      4.9164                 2.9806                 4.6621
 Frc consts  --      1.0325                 0.6502                 1.3425
 IR Inten    --      4.9440                 6.7863                 1.0034

                     25                     26                     27
                      A                      A                      A
 Frequencies --    733.9688               740.5434               765.2749
 Red. masses --      3.0566                 2.7149                 1.4879
 Frc consts  --      0.9702                 0.8772                 0.5134
 IR Inten    --      6.3330                 6.3361                31.0570

                     28                     29                     30
                      A                      A                      A
 Frequencies --    807.7638               816.1418               853.1705
 Red. masses --      1.5097                 4.0600                 3.3946
 Frc consts  --      0.5804                 1.5933                 1.4558
 IR Inten    --     47.5869                 5.1065                25.9664

                     31                     32                     33
                      A                      A                      A
 Frequencies --    880.1731               910.7875               937.2899
 Red. masses --      1.5065                 3.6649                 1.3723
 Frc consts  --      0.6876                 1.7912                 0.7103
 IR Inten    --      4.7714                 4.1542                 2.2625

                     34                     35                     36
                      A                      A                      A
 Frequencies --    969.8578               989.7598              1016.4245
 Red. masses --      1.2292                 3.0175                 1.5880
 Frc consts  --      0.6812                 1.7416                 0.9666
 IR Inten    --      0.0686                18.3510                 5.1256

                     37                     38                     39
                      A                      A                      A
 Frequencies --   1032.1322              1073.9505              1075.0053
 Red. masses --      1.5500                 1.5365                 1.5954
 Frc consts  --      0.9729                 1.0441                 1.0863
 IR Inten    --     16.7830                 3.2575                 2.5418

                     40                     41                     42
                      A                      A                      A
 Frequencies --   1078.7660              1101.9336              1151.1927
 Red. masses --      2.0946                 1.8642                 1.6493
 Frc consts  --      1.4361                 1.3337                 1.2878
 IR Inten    --      5.7123                 0.6378                11.5420

                     43                     44                     45
                      A                      A                      A
 Frequencies --   1193.0050              1193.5387              1227.0638
 Red. masses --      1.1290                 1.6950                 2.5974
 Frc consts  --      0.9468                 1.4226                 2.3043
 IR Inten    --      0.9632                 5.8664                 0.7521

                     46                     47                     48
                      A                      A                      A
 Frequencies --   1297.1257              1313.7065              1349.8140
 Red. masses --      3.2148                 1.7536                 4.6201
 Frc consts  --      3.1869                 1.7831                 4.9596
 IR Inten    --     72.8026                 2.9032                 3.3906

                     49                     50                     51
                      A                      A                      A
 Frequencies --   1402.1349              1413.2687              1442.9630
 Red. masses --      1.9843                 2.4367                 1.2546
 Frc consts  --      2.2985                 2.8674                 1.5391
 IR Inten    --    150.2552               112.1515                 0.1547

                     52                     53                     54
                      A                      A                      A
 Frequencies --   1450.0795              1487.1819              1504.2950
 Red. masses --      2.1747                 1.8390                 1.0865
 Frc consts  --      2.6942                 2.3964                 1.4486
 IR Inten    --     12.9755                15.4572                39.1793

                     55                     56                     57
                      A                      A                      A
 Frequencies --   1507.6966              1515.8156              1523.8288
 Red. masses --      1.0473                 1.0442                 1.3251
 Frc consts  --      1.4026                 1.4136                 1.8129
 IR Inten    --      5.7655                 8.3670                13.1824

                     58                     59                     60
                      A                      A                      A
 Frequencies --   1538.3066              1567.9137              1616.6538
 Red. masses --      2.2862                 1.9452                 2.0003
 Frc consts  --      3.1875                 2.8175                 3.0803
 IR Inten    --     51.9045               259.0152               384.0004

                     61                     62                     63
                      A                      A                      A
 Frequencies --   1631.8974              1655.4304              1674.1572
 Red. masses --      4.5209                 2.8949                 2.9694
 Frc consts  --      7.0935                 4.6742                 4.9036
 IR Inten    --     18.4211               133.0678               266.4879

                     64                     65                     66
                      A                      A                      A
 Frequencies --   1706.5130              3044.8264              3052.9980
 Red. masses --      4.0395                 1.0364                 1.0403
 Frc consts  --      6.9310                 5.6610                 5.7129
 IR Inten    --    617.8179                29.1063                21.0201

                     67                     68                     69
                      A                      A                      A
 Frequencies --   3095.5212              3107.1226              3123.7236
 Red. masses --      1.0995                 1.1008                 1.1026
 Frc consts  --      6.2077                 6.2613                 6.3386
 IR Inten    --     21.1231                15.2033                26.8557

                     70                     71                     72
                      A                      A                      A
 Frequencies --   3171.9709              3182.4871              3184.0123
 Red. masses --      1.0865                 1.0880                 1.0986
 Frc consts  --      6.4407                 6.4925                 6.5623
 IR Inten    --     13.0572                15.8699                 4.9506

                     73                     74                     75
                      A                      A                      A
 Frequencies --   3199.8858              3208.5219              3361.1309
 Red. masses --      1.0923                 1.0965                 1.0624
 Frc consts  --      6.5894                 6.6506                 7.0713
 IR Inten    --     32.3513                21.6548               282.9673

                     76                     77                     78
                      A                      A                      A
 Frequencies --   3583.3271              3673.3274              3705.4777
 Red. masses --      1.0454                 1.0897                 1.1027
 Frc consts  --      7.9088                 8.6634                 8.9210
 IR Inten    --     28.2851                74.7214                43.5789

 - Thermochemistry -
 -------------------
 Temperature   298.150 Kelvin.  Pressure   1.00000 Atm.
 Atom     1 has atomic number  6 and mass  12.00000

 Molecular mass:   190.12185 amu.
 Principal axes and moments of inertia in atomic units:
                           1         2         3
     Eigenvalues --  1181.861124752.921085411.43046
           X            0.99999  -0.00348   0.00388
           Y            0.00344   0.99993   0.01121
           Z           -0.00391  -0.01119   0.99993
 This molecule is an asymmetric top.
 Rotational symmetry number  1.
 Warning -- assumption of classical behavior for rotation
           may cause significant error
 Rotational temperatures (Kelvin)      0.07329     0.01822     0.01601
 Rotational constants (GHZ):           1.52703     0.37971     0.33351
 Zero-point vibrational energy     615931.8 (Joules/Mol)
                                  147.21123 (Kcal/Mol)
 Warning -- explicit consideration of  23 degrees of freedom as
           vibrations may cause significant error
 Vibrational temperatures:     40.52    76.63    97.09   107.29   132.54
          (Kelvin)            192.35   249.01   281.10   313.18   408.61
                              440.15   469.43   500.41   599.86   638.88
                              655.43   660.67   725.16   764.28   795.18
                              816.21   859.01   875.44  1005.85  1056.02
                             1065.48  1101.06  1162.19  1174.25  1227.52
                             1266.37  1310.42  1348.55  1395.41  1424.04
                             1462.41  1485.01  1545.18  1546.69  1552.10
                             1585.44  1656.31  1716.47  1717.24  1765.47
                             1866.27  1890.13  1942.08  2017.36  2033.38
                             2076.10  2086.34  2139.72  2164.34  2169.24
                             2180.92  2192.45  2213.28  2255.88  2326.00
                             2347.94  2381.80  2408.74  2455.29  4380.83
                             4392.58  4453.76  4470.46  4494.34  4563.76
                             4578.89  4581.08  4603.92  4616.35  4835.92
                             5155.61  5285.10  5331.36

 Zero-point correction=                           0.234596 (Hartree/Particle)
 Thermal correction to Energy=                    0.248835
 Thermal correction to Enthalpy=                  0.249779
 Thermal correction to Gibbs Free Energy=         0.192635
 Sum of electronic and zero-point Energies=           -608.338303
 Sum of electronic and thermal Energies=              -608.324064
 Sum of electronic and thermal Enthalpies=            -608.323120
 Sum of electronic and thermal Free Energies=         -608.380264

                     E (Thermal)             CV                S
                      KCal/Mol        Cal/Mol-Kelvin    Cal/Mol-Kelvin
 Total                  156.146             53.436            120.271
 Electronic               0.000              0.000              0.000
 Translational            0.889              2.981             41.633
 Rotational               0.889              2.981             31.786
 Vibrational            154.369             47.475             46.851
 Vibration     1          0.593              1.984              5.955
 Vibration     2          0.596              1.976              4.692
 Vibration     3          0.598              1.970              4.225
 Vibration     4          0.599              1.966              4.029
 Vibration     5          0.602              1.955              3.615
 Vibration     6          0.613              1.920              2.892
 Vibration     7          0.627              1.876              2.402
 Vibration     8          0.636              1.846              2.176
 Vibration     9          0.646              1.814              1.978
 Vibration    10          0.682              1.703              1.509
 Vibration    11          0.696              1.662              1.384
 Vibration    12          0.710              1.623              1.279
 Vibration    13          0.725              1.580              1.176
 Vibration    14          0.780              1.433              0.902
 Vibration    15          0.804              1.374              0.814
 Vibration    16          0.814              1.349              0.779
 Vibration    17          0.817              1.341              0.768
 Vibration    18          0.859              1.241              0.648
 Vibration    19          0.886              1.181              0.585
 Vibration    20          0.908              1.134              0.539
 Vibration    21          0.923              1.102              0.509
 Vibration    22          0.955              1.038              0.455
 Vibration    23          0.967              1.014              0.435

 Optimization completed.
    -- Stationary point found.
 Normal termination of Gaussian 16 at Thu Dec 10 09:33:47 2020.

 ----------------------------------------------------------------------
 # B3LYP/6-311++G(d,p) empiricaldispersion=gd3bj scf=xqc pop=npa geom=c
 heck
 ----------------------------------------------------------------------

 --------------------------------------
 CID_89374245_JID_4206_Energie_neutraal
 --------------------------------------
 Structure from the checkpoint file:  "JID_4206.chk"
 Charge =  0 Multiplicity = 1

 SCF Done:  E(RB3LYP) =  -608.750488560     A.U. after   15 cycles
 Normal termination of Gaussian 16 at Thu Dec 10 09:37:11 2020.

 ----------------------------------------------------------------------
 # B3LYP/6-311++G(d,p) empiricaldispersion=gd3bj scf=xqc pop=npa geom=c
 heck
 ----------------------------------------------------------------------

 ------------------------------------
 CID_89374245_JID_4206_Energie_kation
 ------------------------------------
 Structure from the checkpoint file:  "JID_4206.chk"
 Charge =  1 Multiplicity = 2

 SCF Done:  E(UB3LYP) =  -608.479467258     A.U. after   21 cycles
 Normal termination of Gaussian 16 at Thu Dec 10 09:43:32 2020.
 Gaussian 16:  ES64L-G16RevA.03 25-Dec-2016

 ----------------------------------------------------------------------
 # B3LYP/6-311++G(d,p) empiricaldispersion=gd3bj scf=xqc pop=npa geom=c
 heck
 ----------------------------------------------------------------------

 -----------------------------------
 CID_89374245_JID_4206_Energie_anion
 -----------------------------------
 Structure from the checkpoint file:  "JID_4206.chk"
 Charge = -1 Multiplicity = 2

                         Standard orientation:
 ---------------------------------------------------------------------
 Center     Atomic      Atomic             Coordinates (Angstroms)
 Number     Number       Type             X           Y           Z
 ---------------------------------------------------------------------
      1          6           0        1.191416    2.261003    0.797543
      2          6           0        1.879241    1.030785    0.265511
      3          6           0        3.271824    0.943432    0.212814
      4          6           0        3.916626   -0.191629   -0.282522
      5          6           0        3.154594   -1.265591   -0.739601
      6          6           0        1.762573   -1.201960   -0.693540
      7          6           0        1.109011   -0.064639   -0.188530
      8          7           0       -0.289960    0.061690   -0.194289
      9          6           0       -1.056827   -0.815589    0.394810
     10          7           0       -0.591988   -1.913801    1.083421
     11          7           0       -2.443057   -0.772822    0.404993
     12          6           0       -3.102907    0.163806   -0.223259
     13          6           0       -4.609352    0.124796   -0.151613
     14          7           0       -2.565002    1.171092   -0.937762
     15          1           0        0.537061    2.021631    1.643804
     16          1           0        1.920625    3.008565    1.125323
     17          1           0        0.549793    2.717917    0.034210
     18          1           0        3.862127    1.785233    0.568089
     19          1           0        5.001675   -0.232115   -0.314249
     20          1           0        3.639603   -2.152934   -1.137987
     21          1           0        1.162327   -2.028266   -1.062507
     22          1           0       -1.262812   -2.339404    1.706165
     23          1           0        0.376198   -1.915285    1.372449
     24          1           0       -5.001193    1.048085    0.292084
     25          1           0       -5.041542    0.028551   -1.155011
     26          1           0       -4.920386   -0.725464    0.454834
     27          1           0       -1.541428    1.199651   -0.976896
     28          1           0       -3.149193    1.854237   -1.394530
 ---------------------------------------------------------------------

 SCF Done:  E(UB3LYP) =  -608.737918452     A.U. after   33 cycles
 SCF Done:  E(UB3LYP) =  -608.737918452     a.u. after    1 cycles

 The electronic state is 2-A.
 Alpha  occ. eigenvalues --  -14.22469 -14.22032 -14.18495 -14.18211 -10.17022
 Alpha  occ. eigenvalues --  -10.15448 -10.10764 -10.08246 -10.08008 -10.07730
 Alpha  occ. eigenvalues --  -10.07610 -10.07417 -10.06603 -10.06578  -0.88766
 Alpha  occ. eigenvalues --   -0.83738  -0.78854  -0.75501  -0.74222  -0.67534
 Alpha  occ. eigenvalues --   -0.64887  -0.62839  -0.58734  -0.54102  -0.51291
 Alpha  occ. eigenvalues --   -0.48807  -0.46417  -0.43981  -0.43686  -0.41494
 Alpha  occ. eigenvalues --   -0.39661  -0.37566  -0.37006  -0.34282  -0.33736
 Alpha  occ. eigenvalues --   -0.32224  -0.31729  -0.30039  -0.29764  -0.29395
 Alpha  occ. eigenvalues --   -0.29189  -0.26724  -0.26002  -0.25121  -0.23548
 Alpha  occ. eigenvalues --   -0.20551  -0.16700  -0.15919  -0.15231  -0.14460
 Alpha  occ. eigenvalues --   -0.11615   0.04379
 Alpha virt. eigenvalues --    0.06030   0.06839   0.07075   0.07373   0.08171
 Alpha virt. eigenvalues --    0.08519   0.09146   0.09383   0.10072   0.10610
 Alpha virt. eigenvalues --    0.11077   0.11575   0.11993   0.12506   0.13226

  Beta  occ. eigenvalues --  -14.22448 -14.21969 -14.18492 -14.18203 -10.17012
  Beta  occ. eigenvalues --  -10.15439 -10.10758 -10.08242 -10.08005 -10.07723
  Beta  occ. eigenvalues --  -10.07599 -10.07410 -10.06557 -10.06551  -0.88741
  Beta  occ. eigenvalues --   -0.83685  -0.78833  -0.75444  -0.74202  -0.67514
  Beta  occ. eigenvalues --   -0.64846  -0.62787  -0.58700  -0.54047  -0.51257
  Beta  occ. eigenvalues --   -0.48779  -0.46354  -0.43954  -0.43607  -0.41438
  Beta  occ. eigenvalues --   -0.39629  -0.37549  -0.36979  -0.34240  -0.33698
  Beta  occ. eigenvalues --   -0.32195  -0.31707  -0.29978  -0.29724  -0.29342
  Beta  occ. eigenvalues --   -0.29166  -0.26694  -0.25982  -0.25102  -0.23484
  Beta  occ. eigenvalues --   -0.20521  -0.16671  -0.15893  -0.15202  -0.14433
  Beta  occ. eigenvalues --   -0.11582
  Beta virt. eigenvalues --    0.06142   0.06953   0.07153   0.07437   0.07959
  Beta virt. eigenvalues --    0.08367   0.08844   0.09758   0.09952   0.10225
  Beta virt. eigenvalues --    0.10956   0.11518   0.12034   0.12279   0.12728

 Mulliken charges and spin densities:
               1          2
     1  C    0.942673  -1.578254
     2  C   -0.209317   1.554731
     3  C    0.297084  -0.452135
     4  C    0.297425  -0.678043
     5  C    0.168712  -0.436848
     6  C   -0.005999  -0.283168
     7  C   -1.367299   0.253590
     8  N    0.191396  -0.132361
     9  C   -0.708362   0.527156
    10  N   -0.341660   0.015330
    11  N   -0.210773   0.051016
    12  C   -0.920861   1.224421
    13  C    2.943104  -3.551781
    14  N   -0.500424   0.092190
    15  H   -0.011720   0.188023
    16  H   -0.186487   0.322086
    17  H    0.012314   0.133756
    18  H   -0.131935   0.260407
    19  H   -0.091165   0.229421
    20  H   -0.025626   0.173902
    21  H    0.068112   0.111909
    22  H    0.021168   0.252571
    23  H    0.152757   0.107183
    24  H   -0.429886   0.596757
    25  H   -0.506508   0.677987
    26  H   -0.062119   0.218773
    27  H    0.236316   0.187663
    28  H   -0.620923   0.933717
 Sum of Mulliken charges =  -1.00000   1.00000

 Dipole moment (field-independent basis, Debye):
    X=              7.3133    Y=             -3.8495    Z=              2.2071  Tot=              8.5542
 Quadrupole moment (field-independent basis, Debye-Ang):
   XX=           -172.6875   YY=           -123.1062   ZZ=           -114.7857
   XY=             10.8586   XZ=            -10.3769   YZ=              4.4399

 Summary of Natural Population Analysis:

                                       Natural Population
                Natural  -----------------------------------------------
    Atom  No    Charge         Core      Valence    Rydberg      Total
 -----------------------------------------------------------------------
      C    1   -0.29112      0.99964     2.28638    0.00511     3.29112
      C    2   -0.02194      0.99948     2.01214    0.01033     3.02194
      C    3   -0.09971      0.99952     2.09111    0.00908     3.09971
      C    4   -0.11454      0.99956     2.10469    0.01028     3.11454
      C    5   -0.10615      0.99957     2.09678    0.00981     3.10615
      C    6   -0.11860      0.99952     2.11050    0.00858     3.11860
      C    7    0.07779      0.99943     1.91046    0.01232     2.92221
      N    8   -0.32790      0.99961     2.81612    0.01217     3.82790
      C    9    0.31679      0.99959     1.66727    0.01634     2.68321
      N   10   -0.40210      0.99970     2.89433    0.00806     3.90210
      N   11   -0.32509      0.99963     2.81365    0.01181     3.82509
      C   12    0.25638      0.99963     1.72767    0.01632     2.74362
      C   13   -0.30760      0.99963     2.30183    0.00615     3.30760
      N   14   -0.38491      0.99968     2.87678    0.00844     3.88491
      H   15    0.10730      0.00000     0.39117    0.00153     0.39270
      H   16    0.09716      0.00000     0.40183    0.00102     0.40284
      H   17    0.10807      0.00000     0.39028    0.00165     0.39193
      H   18    0.09735      0.00000     0.40167    0.00098     0.40265
      H   19    0.09764      0.00000     0.40153    0.00082     0.40236
      H   20    0.09766      0.00000     0.40151    0.00084     0.40234
      H   21    0.10486      0.00000     0.39377    0.00136     0.39514
      H   22    0.19673      0.00000     0.30122    0.00205     0.30327
      H   23    0.19321      0.00000     0.30529    0.00151     0.30679
      H   24    0.10919      0.00000     0.38915    0.00166     0.39081
      H   25    0.11044      0.00000     0.38716    0.00241     0.38956
      H   26    0.11080      0.00000     0.38757    0.00163     0.38920
      H   27    0.21807      0.00000     0.27930    0.00263     0.28193
      H   28    0.20023      0.00000     0.28601    0.01376     0.29977
 =======================================================================
   * Total *    0.00000     13.99418    36.82718    0.17863    51.00000

 Normal termination of Gaussian 16 at Thu Dec 10 09:54:05 2020.
