 Gaussian 16, Revision A.03,

 -----------------------------------------------------------
 # opt freq B3LYP/6-31G(d) empiricaldispersion=gd3bj scf=xqc
 -----------------------------------------------------------

 -------------------------------
 CID_122096624_JID_6633_neutraal
 -------------------------------
 Symbolic Z-matrix:
 Charge =  0 Multiplicity = 1

 SCF Done:  E(RB3LYP) =  -674.687834734     A.U. after   13 cycles
 SCF Done:  E(RB3LYP) =  -674.698071965     A.U. after   12 cycles
 SCF Done:  E(RB3LYP) =  -674.688716315     A.U. after   14 cycles
 SCF Done:  E(RB3LYP) =  -674.696993020     A.U. after   12 cycles
 SCF Done:  E(RB3LYP) =  -674.699868519     A.U. after    9 cycles
 SCF Done:  E(RB3LYP) =  -674.701074576     A.U. after   12 cycles
 SCF Done:  E(RB3LYP) =  -674.701103566     A.U. after   12 cycles
 SCF Done:  E(RB3LYP) =  -674.702080956     A.U. after   11 cycles
 SCF Done:  E(RB3LYP) =  -674.702192700     A.U. after   10 cycles
 SCF Done:  E(RB3LYP) =  -674.702288957     A.U. after   10 cycles
 SCF Done:  E(RB3LYP) =  -674.702311334     A.U. after   10 cycles
 SCF Done:  E(RB3LYP) =  -674.702320567     A.U. after    9 cycles
 SCF Done:  E(RB3LYP) =  -674.702323752     A.U. after    8 cycles
 SCF Done:  E(RB3LYP) =  -674.702324634     A.U. after    7 cycles
 SCF Done:  E(RB3LYP) =  -674.702324792     A.U. after    6 cycles
 Optimization completed.
    -- Stationary point found.
 Normal termination of Gaussian 16 at Fri Dec 11 00:03:57 2020.

 --------------------------------------------------------------------
 #N Geom=AllCheck Guess=TCheck SCRF=Check GenChk RB3LYP/6-31G(d) Freq
 --------------------------------------------------------------------

 Structure from the checkpoint file:  "JID_6633.chk"
 -------------------------------
 CID_122096624_JID_6633_neutraal
 -------------------------------
 Charge =  0 Multiplicity = 1

 SCF Done:  E(RB3LYP) =  -674.702324792     A.U. after    1 cycles

  Exact polarizability: 166.627   6.554 149.651   7.974  -2.543 139.181
 Approx polarizability: 211.399   6.394 210.446  17.360  -9.753 218.341

                      1                      2                      3
                      A                      A                      A
 Frequencies --     30.2473                45.9917                64.6717
 Red. masses --      3.7553                 3.2080                 4.0996
 Frc consts  --      0.0020                 0.0040                 0.0101
 IR Inten    --      0.7128                 0.1188                 0.5844

                      4                      5                      6
                      A                      A                      A
 Frequencies --     85.1420                87.6278                93.0697
 Red. masses --      2.7521                 3.0180                 3.0485
 Frc consts  --      0.0118                 0.0137                 0.0156
 IR Inten    --      0.9163                 1.7309                 0.8230

                      7                      8                      9
                      A                      A                      A
 Frequencies --    122.5278               154.4764               198.0775
 Red. masses --      3.3709                 2.5316                 2.7924
 Frc consts  --      0.0298                 0.0356                 0.0646
 IR Inten    --      3.6356                 0.0545                 1.1045

                     10                     11                     12
                      A                      A                      A
 Frequencies --    233.2932               242.0698               263.3561
 Red. masses --      2.2379                 2.1556                 1.3149
 Frc consts  --      0.0718                 0.0744                 0.0537
 IR Inten    --      2.1732                 0.7212                 1.4233

                     13                     14                     15
                      A                      A                      A
 Frequencies --    286.5327               303.2786               316.1936
 Red. masses --      2.4469                 1.3445                 1.9760
 Frc consts  --      0.1184                 0.0729                 0.1164
 IR Inten    --      1.2060                 1.1234                 7.6270

                     16                     17                     18
                      A                      A                      A
 Frequencies --    331.3792               342.1911               352.5476
 Red. masses --      2.1954                 1.7028                 1.5592
 Frc consts  --      0.1420                 0.1175                 0.1142
 IR Inten    --      3.3487                 7.8797                12.5561

                     19                     20                     21
                      A                      A                      A
 Frequencies --    377.9087               389.7501               406.2044
 Red. masses --      2.4892                 2.9860                 2.6455
 Frc consts  --      0.2095                 0.2672                 0.2572
 IR Inten    --      0.2730                 3.1255                 4.0621

                     22                     23                     24
                      A                      A                      A
 Frequencies --    467.0727               479.1161               491.5371
 Red. masses --      2.3289                 2.3372                 2.2017
 Frc consts  --      0.2993                 0.3161                 0.3134
 IR Inten    --      3.3970                 0.1940                 4.8620

                     25                     26                     27
                      A                      A                      A
 Frequencies --    529.9556               561.2914               624.4809
 Red. masses --      1.5688                 2.4941                 2.3407
 Frc consts  --      0.2596                 0.4630                 0.5378
 IR Inten    --    101.1061                 3.9965                13.9216

                     28                     29                     30
                      A                      A                      A
 Frequencies --    644.4293               667.6879               739.3095
 Red. masses --      1.8956                 2.5736                 2.2385
 Frc consts  --      0.4638                 0.6760                 0.7209
 IR Inten    --    192.0336                 2.8307                50.5649

                     31                     32                     33
                      A                      A                      A
 Frequencies --    757.9136               776.5948               796.2404
 Red. masses --      1.8783                 2.4704                 1.1795
 Frc consts  --      0.6357                 0.8778                 0.4406
 IR Inten    --    133.6498                29.5851                 2.6431

                     34                     35                     36
                      A                      A                      A
 Frequencies --    804.2536               825.0245               837.4994
 Red. masses --      1.1926                 1.7878                 2.4540
 Frc consts  --      0.4545                 0.7170                 1.0141
 IR Inten    --      2.2139                 8.6167                 2.2060

                     37                     38                     39
                      A                      A                      A
 Frequencies --    846.8814               904.3243               919.5500
 Red. masses --      1.2798                 2.3048                 2.3598
 Frc consts  --      0.5408                 1.1105                 1.1757
 IR Inten    --      8.4674                 0.7832                 2.0737

                     40                     41                     42
                      A                      A                      A
 Frequencies --    926.7240               934.3227               952.3952
 Red. masses --      2.6427                 2.5364                 2.1882
 Frc consts  --      1.3372                 1.3045                 1.1694
 IR Inten    --      3.4070                 0.5088                 2.6602

                     43                     44                     45
                      A                      A                      A
 Frequencies --    956.5382               964.3888               975.5672
 Red. masses --      1.7399                 1.4340                 1.8221
 Frc consts  --      0.9380                 0.7858                 1.0217
 IR Inten    --      3.4246                 9.0301                 1.3252

                     46                     47                     48
                      A                      A                      A
 Frequencies --    986.0404              1019.4261              1035.2337
 Red. masses --      2.5327                 1.9048                 1.5354
 Frc consts  --      1.4508                 1.1663                 0.9695
 IR Inten    --      1.7842                 2.5308                 1.9739

                     49                     50                     51
                      A                      A                      A
 Frequencies --   1053.4166              1058.1313              1065.8111
 Red. masses --      1.7246                 1.7206                 1.5716
 Frc consts  --      1.1275                 1.1350                 1.0519
 IR Inten    --      1.5904                 2.7787                 9.9640

                     52                     53                     54
                      A                      A                      A
 Frequencies --   1081.6926              1084.0816              1115.9150
 Red. masses --      1.3980                 1.9237                 1.5293
 Frc consts  --      0.9638                 1.3320                 1.1220
 IR Inten    --      1.4812                 3.1046                 0.3342

                     55                     56                     57
                      A                      A                      A
 Frequencies --   1143.8884              1161.3699              1187.2983
 Red. masses --      2.4023                 1.0988                 1.9916
 Frc consts  --      1.8520                 0.8732                 1.6542
 IR Inten    --     19.3511                 2.2975                10.0303

                     58                     59                     60
                      A                      A                      A
 Frequencies --   1195.3817              1203.7133              1212.8029
 Red. masses --      2.7871                 1.6311                 1.7170
 Frc consts  --      2.3465                 1.3925                 1.4880
 IR Inten    --      8.0171                13.2296                34.8238

                     61                     62                     63
                      A                      A                      A
 Frequencies --   1213.9551              1235.8775              1243.0262
 Red. masses --      1.4399                 2.2006                 2.3043
 Frc consts  --      1.2503                 1.9804                 2.0977
 IR Inten    --      3.5205                 1.2131                 6.0731

                     64                     65                     66
                      A                      A                      A
 Frequencies --   1264.3069              1267.1874              1269.7268
 Red. masses --      1.5692                 1.6069                 1.3418
 Frc consts  --      1.4778                 1.5203                 1.2745
 IR Inten    --      0.5308                 0.7473                 0.2497

                     67                     68                     69
                      A                      A                      A
 Frequencies --   1277.4259              1294.2026              1302.7955
 Red. masses --      1.1428                 1.3847                 1.4179
 Frc consts  --      1.0987                 1.3665                 1.4179
 IR Inten    --      1.3500                12.0457                 1.7567

                     70                     71                     72
                      A                      A                      A
 Frequencies --   1307.1701              1343.8992              1352.5441
 Red. masses --      1.4034                 1.4010                 2.2322
 Frc consts  --      1.4129                 1.4908                 2.4059
 IR Inten    --      0.3024                 8.8594               124.0954

                     73                     74                     75
                      A                      A                      A
 Frequencies --   1402.1955              1415.5487              1424.5492
 Red. masses --      1.4446                 1.3570                 1.3319
 Frc consts  --      1.6734                 1.6020                 1.5925
 IR Inten    --      2.2659                13.3185                 9.8124

                     76                     77                     78
                      A                      A                      A
 Frequencies --   1427.3155              1430.4571              1452.6165
 Red. masses --      1.3388                 1.3559                 1.2762
 Frc consts  --      1.6069                 1.6347                 1.5867
 IR Inten    --     11.5522                69.3702                15.2673

                     79                     80                     81
                      A                      A                      A
 Frequencies --   1492.3611              1499.9846              1501.2466
 Red. masses --      1.0862                 1.0890                 1.0908
 Frc consts  --      1.4253                 1.4436                 1.4484
 IR Inten    --      1.1828                 2.9656                 5.5608

                     82                     83                     84
                      A                      A                      A
 Frequencies --   1513.6134              1518.0904              1523.0356
 Red. masses --      1.0888                 1.0730                 1.0647
 Frc consts  --      1.4698                 1.4569                 1.4551
 IR Inten    --      2.7848                19.3671                 1.5589

                     85                     86                     87
                      A                      A                      A
 Frequencies --   1529.6092              1536.0866              1540.2946
 Red. masses --      1.1035                 1.1718                 1.1254
 Frc consts  --      1.5211                 1.6290                 1.5732
 IR Inten    --      6.6290                12.2596                 7.0044

                     88                     89                     90
                      A                      A                      A
 Frequencies --   1544.5273              1548.9910              1557.7043
 Red. masses --      1.2100                 1.0767                 1.5821
 Frc consts  --      1.7007                 1.5221                 2.2619
 IR Inten    --     10.3186                 5.2087               134.7944

                     91                     92                     93
                      A                      A                      A
 Frequencies --   1671.0775              1762.5947              2966.0617
 Red. masses --      1.1721                 5.5814                 1.0689
 Frc consts  --      1.9284                10.2164                 5.5407
 IR Inten    --     83.6218               311.9037                81.5130

                     94                     95                     96
                      A                      A                      A
 Frequencies --   3019.6646              3033.3957              3040.2460
 Red. masses --      1.0747                 1.0779                 1.0365
 Frc consts  --      5.7736                 5.8439                 5.6446
 IR Inten    --      9.0398                80.4451                32.4517

                     97                     98                     99
                      A                      A                      A
 Frequencies --   3051.7920              3062.3624              3067.9856
 Red. masses --      1.0364                 1.0852                 1.0624
 Frc consts  --      5.6872                 5.9959                 5.8917
 IR Inten    --     33.7587                26.5561                29.6453

                    100                    101                    102
                      A                      A                      A
 Frequencies --   3076.3334              3080.0872              3083.5620
 Red. masses --      1.0662                 1.0981                 1.0690
 Frc consts  --      5.9451                 6.1376                 5.9886
 IR Inten    --     93.2778                32.0409                42.2429

                    103                    104                    105
                      A                      A                      A
 Frequencies --   3104.9611              3112.9715              3115.4999
 Red. masses --      1.1004                 1.1009                 1.1015
 Frc consts  --      6.2507                 6.2857                 6.2995
 IR Inten    --     15.8297                50.6344                29.6616

                    106                    107                    108
                      A                      A                      A
 Frequencies --   3122.0868              3122.1533              3145.8990
 Red. masses --      1.1026                 1.1035                 1.0539
 Frc consts  --      6.3321                 6.3377                 6.1453
 IR Inten    --     13.4140                35.7102                30.5295

                    109                    110                    111
                      A                      A                      A
 Frequencies --   3153.8788              3162.0164              3190.0311
 Red. masses --      1.0562                 1.1010                 1.0959
 Frc consts  --      6.1900                 6.4857                 6.5708
 IR Inten    --     16.1629                17.2946                10.0126

                    112                    113                    114
                      A                      A                      A
 Frequencies --   3198.3643              3217.7566              3234.2690
 Red. masses --      1.0888                 1.1175                 1.1143
 Frc consts  --      6.5625                 6.8170                 6.8674
 IR Inten    --      1.2938                 2.6360                29.2801

                    115                    116                    117
                      A                      A                      A
 Frequencies --   3542.3327              3571.5531              3649.7269
 Red. masses --      1.0506                 1.0751                 1.0938
 Frc consts  --      7.7675                 8.0799                 8.5843
 IR Inten    --      7.6933                 7.6719                 9.5461

 - Thermochemistry -
 -------------------
 Temperature   298.150 Kelvin.  Pressure   1.00000 Atm.
 Atom     1 has atomic number  6 and mass  12.00000

 Molecular mass:   223.20485 amu.
 Principal axes and moments of inertia in atomic units:
                           1         2         3
     Eigenvalues --  2486.428565028.984086050.22950
           X            0.99990   0.01410  -0.00081
           Y           -0.01410   0.99989  -0.00382
           Z            0.00076   0.00383   0.99999
 This molecule is an asymmetric top.
 Rotational symmetry number  1.
 Warning -- assumption of classical behavior for rotation
           may cause significant error
 Rotational temperatures (Kelvin)      0.03483     0.01722     0.01432
 Rotational constants (GHZ):           0.72584     0.35887     0.29829
 Zero-point vibrational energy     983945.5 (Joules/Mol)
                                  235.16863 (Kcal/Mol)
 Warning -- explicit consideration of  26 degrees of freedom as
           vibrations may cause significant error
 Vibrational temperatures:     43.52    66.17    93.05   122.50   126.08
          (Kelvin)            133.91   176.29   222.26   284.99   335.66
                              348.28   378.91   412.26   436.35   454.93
                              476.78   492.34   507.24   543.73   560.76
                              584.44   672.01   689.34   707.21   762.49
                              807.57   898.49   927.19   960.65  1063.70
                             1090.47  1117.35  1145.61  1157.14  1187.03
                             1204.97  1218.47  1301.12  1323.03  1333.35
                             1344.28  1370.28  1376.25  1387.54  1403.62
                             1418.69  1466.73  1489.47  1515.63  1522.41
                             1533.46  1556.31  1559.75  1605.55  1645.80
                             1670.95  1708.26  1719.89  1731.87  1744.95
                             1746.61  1778.15  1788.44  1819.06  1823.20
                             1826.85  1837.93  1862.07  1874.43  1880.73
                             1933.57  1946.01  2017.45  2036.66  2049.61
                             2053.59  2058.11  2089.99  2147.17  2158.14
                             2159.96  2177.75  2184.19  2191.31  2200.77
                             2210.09  2216.14  2222.23  2228.65  2241.19
                             2404.31  2535.98  4267.50  4344.62  4364.38
                             4374.24  4390.85  4406.06  4414.15  4426.16
                             4431.56  4436.56  4467.35  4478.87  4482.51
                             4491.99  4492.08  4526.25  4537.73  4549.44
                             4589.74  4601.73  4629.63  4653.39  5096.63
                             5138.67  5251.14

 Zero-point correction=                           0.374765 (Hartree/Particle)
 Thermal correction to Energy=                    0.392224
 Thermal correction to Enthalpy=                  0.393168
 Thermal correction to Gibbs Free Energy=         0.329751
 Sum of electronic and zero-point Energies=           -674.327560
 Sum of electronic and thermal Energies=              -674.310101
 Sum of electronic and thermal Enthalpies=            -674.309157
 Sum of electronic and thermal Free Energies=         -674.372574

                     E (Thermal)             CV                S
                      KCal/Mol        Cal/Mol-Kelvin    Cal/Mol-Kelvin
 Total                  246.124             68.386            133.472
 Electronic               0.000              0.000              0.000
 Translational            0.889              2.981             42.111
 Rotational               0.889              2.981             32.692
 Vibrational            244.347             62.425             58.668
 Vibration     1          0.594              1.984              5.813
 Vibration     2          0.595              1.979              4.983
 Vibration     3          0.597              1.971              4.309
 Vibration     4          0.601              1.959              3.769
 Vibration     5          0.601              1.958              3.712
 Vibration     6          0.602              1.954              3.594
 Vibration     7          0.610              1.930              3.060
 Vibration     8          0.620              1.898              2.616
 Vibration     9          0.637              1.843              2.151
 Vibration    10          0.654              1.790              1.853
 Vibration    11          0.658              1.776              1.788
 Vibration    12          0.670              1.740              1.639
 Vibration    13          0.684              1.699              1.494
 Vibration    14          0.695              1.667              1.399
 Vibration    15          0.703              1.643              1.330
 Vibration    16          0.714              1.613              1.253
 Vibration    17          0.721              1.591              1.202
 Vibration    18          0.729              1.570              1.155
 Vibration    19          0.748              1.517              1.048
 Vibration    20          0.758              1.492              1.001
 Vibration    21          0.771              1.457              0.940
 Vibration    22          0.824              1.323              0.746
 Vibration    23          0.836              1.296              0.712
 Vibration    24          0.847              1.269              0.680
 Vibration    25          0.885              1.184              0.587
 Vibration    26          0.917              1.115              0.521

                           ! Non-Optimized Parameters !
 Normal termination of Gaussian 16 at Fri Dec 11 00:20:17 2020.

 ----------------------------------------------------------------------
 # B3LYP/6-311++G(d,p) empiricaldispersion=gd3bj scf=xqc pop=npa geom=c
 heck
 ----------------------------------------------------------------------

 ---------------------------------------
 CID_122096624_JID_6633_Energie_neutraal
 ---------------------------------------
 Structure from the checkpoint file:  "JID_6633.chk"
 Charge =  0 Multiplicity = 1

 SCF Done:  E(RB3LYP) =  -674.896047024     A.U. after   13 cycles
 Normal termination of Gaussian 16 at Fri Dec 11 00:27:23 2020.

 ----------------------------------------------------------------------
 # B3LYP/6-311++G(d,p) empiricaldispersion=gd3bj scf=xqc pop=npa geom=c
 heck
 ----------------------------------------------------------------------

 -------------------------------------
 CID_122096624_JID_6633_Energie_kation
 -------------------------------------
 Structure from the checkpoint file:  "JID_6633.chk"
 Charge =  1 Multiplicity = 2

 SCF Done:  E(UB3LYP) =  -674.609495263     A.U. after   22 cycles
 Normal termination of Gaussian 16 at Fri Dec 11 00:44:10 2020.
 Gaussian 16:  ES64L-G16RevA.03 25-Dec-2016

 ----------------------------------------------------------------------
 # B3LYP/6-311++G(d,p) empiricaldispersion=gd3bj scf=xqc pop=npa geom=c
 heck
 ----------------------------------------------------------------------

 ------------------------------------
 CID_122096624_JID_6633_Energie_anion
 ------------------------------------
 Structure from the checkpoint file:  "JID_6633.chk"
 Charge = -1 Multiplicity = 2

                         Standard orientation:
 ---------------------------------------------------------------------
 Center     Atomic      Atomic             Coordinates (Angstroms)
 Number     Number       Type             X           Y           Z
 ---------------------------------------------------------------------
      1          6           0        2.731978    1.286375   -0.669093
      2          6           0        2.400409    0.105318    0.261828
      3          6           0        3.723589   -0.498251    0.767307
      4          6           0        1.611080    0.577526    1.515093
      5          6           0        0.456565    1.572647    1.316591
      6          7           0       -0.692972    0.986095    0.663518
      7          6           0       -1.214590    1.499113   -0.387432
      8          7           0       -0.890778    2.723477   -1.004696
      9          7           0       -2.238612    0.858952   -1.078232
     10          6           0       -2.951319   -0.298012   -0.559452
     11          6           0       -2.197616   -1.613470   -0.246639
     12          6           0       -3.214880   -1.853986    0.901943
     13          6           0       -3.552428   -0.339128    0.874720
     14          6           0        1.569041   -0.905239   -0.535196
     15          6           0        2.162809   -1.867698   -1.533586
     16          6           0        1.553576   -2.385119   -0.249977
     17          1           0        3.233494    2.097632   -0.126273
     18          1           0        1.828652    1.694959   -1.135262
     19          1           0        3.395501    0.958155   -1.476737
     20          1           0        4.331879    0.279471    1.242938
     21          1           0        3.550519   -1.281185    1.513465
     22          1           0        4.318386   -0.926470   -0.046323
     23          1           0        1.221842   -0.307767    2.032947
     24          1           0        2.323245    1.058826    2.200526
     25          1           0        0.141834    1.904839    2.316204
     26          1           0        0.859050    2.475216    0.825050
     27          1           0       -0.859156    2.661008   -2.016897
     28          1           0       -0.048323    3.152649   -0.645320
     29          1           0       -2.842987    1.520303   -1.551007
     30          1           0       -3.740687   -0.503870   -1.290835
     31          1           0       -2.129520   -2.355135   -1.049653
     32          1           0       -1.207493   -1.400691    0.152154
     33          1           0       -2.818601   -2.258758    1.836938
     34          1           0       -4.061520   -2.471380    0.582785
     35          1           0       -2.920465    0.219196    1.566488
     36          1           0       -4.598406   -0.036762    0.992396
     37          1           0        0.605862   -0.499700   -0.826601
     38          1           0        1.626896   -2.031003   -2.464779
     39          1           0        3.242850   -1.925119   -1.634739
     40          1           0        2.232863   -2.778979    0.500163
     41          1           0        0.601544   -2.905564   -0.298409
 ---------------------------------------------------------------------

 SCF Done:  E(UB3LYP) =  -674.883901475     A.U. after   30 cycles

 The electronic state is 2-A.
 Alpha  occ. eigenvalues --  -14.21616 -14.21236 -14.16673 -10.15993 -10.10252
 Alpha  occ. eigenvalues --  -10.09054 -10.08791 -10.07333 -10.07295 -10.07261
 Alpha  occ. eigenvalues --  -10.06944 -10.06631 -10.06445 -10.05916 -10.05890
 Alpha  occ. eigenvalues --  -10.05557  -0.87393  -0.78828  -0.77000  -0.76001
 Alpha  occ. eigenvalues --   -0.72612  -0.70373  -0.63078  -0.59138  -0.56639
 Alpha  occ. eigenvalues --   -0.55648  -0.54116  -0.51029  -0.50427  -0.47621
 Alpha  occ. eigenvalues --   -0.44055  -0.43504  -0.42383  -0.41534  -0.39529
 Alpha  occ. eigenvalues --   -0.38263  -0.37730  -0.36990  -0.35678  -0.35060
 Alpha  occ. eigenvalues --   -0.33593  -0.31221  -0.30645  -0.29625  -0.29524
 Alpha  occ. eigenvalues --   -0.28429  -0.28227  -0.27721  -0.27349  -0.26242
 Alpha  occ. eigenvalues --   -0.25409  -0.23917  -0.23519  -0.23223  -0.22277
 Alpha  occ. eigenvalues --   -0.21519  -0.21014  -0.19357  -0.18310  -0.15513
 Alpha  occ. eigenvalues --   -0.14212  -0.11948   0.04342
 Alpha virt. eigenvalues --    0.06184   0.06815   0.07456   0.08080   0.08503
 Alpha virt. eigenvalues --    0.08776   0.09134   0.09789   0.10427   0.10681
 Alpha virt. eigenvalues --    0.10781   0.11358   0.11995   0.12583   0.12986

  Beta  occ. eigenvalues --  -14.21586 -14.21168 -14.16669 -10.15989 -10.10236
  Beta  occ. eigenvalues --  -10.09039 -10.08788 -10.07329 -10.07288 -10.07258
  Beta  occ. eigenvalues --  -10.06939 -10.06619 -10.06440 -10.05909 -10.05885
  Beta  occ. eigenvalues --  -10.05526  -0.87350  -0.78779  -0.76976  -0.75957
  Beta  occ. eigenvalues --   -0.72575  -0.70358  -0.63049  -0.59096  -0.56603
  Beta  occ. eigenvalues --   -0.55630  -0.54080  -0.51003  -0.50407  -0.47586
  Beta  occ. eigenvalues --   -0.43977  -0.43469  -0.42329  -0.41474  -0.39508
  Beta  occ. eigenvalues --   -0.38231  -0.37694  -0.36944  -0.35653  -0.35024
  Beta  occ. eigenvalues --   -0.33566  -0.31199  -0.30624  -0.29594  -0.29487
  Beta  occ. eigenvalues --   -0.28415  -0.28205  -0.27703  -0.27332  -0.26225
  Beta  occ. eigenvalues --   -0.25385  -0.23897  -0.23500  -0.23207  -0.22261
  Beta  occ. eigenvalues --   -0.21498  -0.20991  -0.19346  -0.18299  -0.15469
  Beta  occ. eigenvalues --   -0.14189  -0.11928
  Beta virt. eigenvalues --    0.06374   0.06931   0.07473   0.07669   0.08472
  Beta virt. eigenvalues --    0.08900   0.08942   0.09437   0.10151   0.10589
  Beta virt. eigenvalues --    0.11002   0.11108   0.11527   0.12292   0.12865

 Mulliken charges and spin densities:
               1          2
     1  C    0.818554  -1.494367
     2  C   -0.190373   1.143404
     3  C   -0.093579  -0.370941
     4  C   -0.030959  -0.348933
     5  C   -0.103679  -0.489936
     6  N    0.155998  -0.097566
     7  C    0.305604  -0.775857
     8  N   -0.340912   0.072981
     9  N   -0.070774   0.001484
    10  C   -0.642828   0.513974
    11  C    0.555858  -0.712813
    12  C   -0.297082  -0.019610
    13  C    0.364394  -0.688339
    14  C    0.028756  -0.025345
    15  C    0.001283  -0.486653
    16  C   -0.702774   0.152350
    17  H   -0.184231   0.345641
    18  H    0.028597   0.139531
    19  H   -0.165554   0.308545
    20  H    0.018110   0.123930
    21  H    0.046037   0.084003
    22  H    0.032383   0.087982
    23  H    0.221686  -0.059311
    24  H   -0.044638   0.190145
    25  H    0.013779   0.164848
    26  H    0.046707   0.011496
    27  H   -0.390950   0.653229
    28  H   -0.162343   0.407876
    29  H   -0.401508   0.681955
    30  H   -0.618895   0.815331
    31  H    0.040142   0.102548
    32  H    0.181234  -0.172632
    33  H    0.142993  -0.015937
    34  H   -0.029614   0.153285
    35  H    0.083035   0.071589
    36  H    0.011997   0.124927
    37  H    0.069403   0.164301
    38  H   -0.072965   0.217299
    39  H    0.175101  -0.039594
    40  H    0.078154   0.045064
    41  H    0.123853   0.020115
 Sum of Mulliken charges =  -1.00000   1.00000

 Dipole moment (field-independent basis, Debye):
    X=              2.6934    Y=             -5.4466    Z=              5.1778  Tot=              7.9830
 Quadrupole moment (field-independent basis, Debye-Ang):
   XX=           -169.3474   YY=           -150.7393   ZZ=           -144.0891
   XY=             -1.1984   XZ=             -9.0625   YZ=              8.5974

 Summary of Natural Population Analysis:

                                       Natural Population
                Natural  -----------------------------------------------
    Atom  No    Charge         Core      Valence    Rydberg      Total
 -----------------------------------------------------------------------
      C    1   -0.28493      0.99963     2.27755    0.00775     3.28493
      C    2   -0.04648      0.99955     2.03388    0.01305     3.04648
      C    3   -0.28504      0.99963     2.27844    0.00697     3.28504
      C    4   -0.18299      0.99958     2.17331    0.01010     3.18299
      C    5   -0.09090      0.99959     2.07908    0.01222     3.09090
      N    6   -0.31679      0.99962     2.80690    0.01027     3.81679
      C    7    0.31383      0.99959     1.66964    0.01694     2.68617
      N    8   -0.41658      0.99972     2.90755    0.00931     3.91658
      N    9   -0.32559      0.99966     2.81252    0.01341     3.82559
      C   10   -0.00628      0.99958     1.99061    0.01609     3.00628
      C   11   -0.19654      0.99961     2.18838    0.00855     3.19654
      C   12   -0.19152      0.99965     2.18435    0.00752     3.19152
      C   13   -0.19693      0.99962     2.18961    0.00770     3.19693
      C   14   -0.11533      0.99954     2.10303    0.01275     3.11533
      C   15   -0.19932      0.99962     2.19275    0.00695     3.19932
      C   16   -0.20072      0.99961     2.19489    0.00621     3.20072
      H   17    0.09793      0.00000     0.40092    0.00115     0.40207
      H   18    0.10199      0.00000     0.39589    0.00213     0.39801
      H   19    0.10075      0.00000     0.39819    0.00106     0.39925
      H   20    0.10076      0.00000     0.39845    0.00079     0.39924
      H   21    0.09769      0.00000     0.40152    0.00079     0.40231
      H   22    0.09810      0.00000     0.40107    0.00083     0.40190
      H   23    0.09988      0.00000     0.39899    0.00113     0.40012
      H   24    0.09463      0.00000     0.40431    0.00107     0.40537
      H   25    0.09195      0.00000     0.40700    0.00105     0.40805
      H   26    0.07626      0.00000     0.42172    0.00201     0.42374
      H   27    0.19449      0.00000     0.29801    0.00750     0.30551
      H   28    0.18908      0.00000     0.30827    0.00265     0.31092
      H   29    0.19257      0.00000     0.30262    0.00482     0.30743
      H   30    0.09653      0.00000     0.40131    0.00216     0.40347
      H   31    0.09185      0.00000     0.40707    0.00108     0.40815
      H   32    0.11372      0.00000     0.38437    0.00190     0.38628
      H   33    0.09361      0.00000     0.40566    0.00073     0.40639
      H   34    0.09186      0.00000     0.40711    0.00104     0.40814
      H   35    0.11005      0.00000     0.38846    0.00149     0.38995
      H   36    0.09179      0.00000     0.40718    0.00103     0.40821
      H   37    0.11606      0.00000     0.38120    0.00274     0.38394
      H   38    0.10205      0.00000     0.39712    0.00083     0.39795
      H   39    0.09807      0.00000     0.40108    0.00085     0.40193
      H   40    0.09808      0.00000     0.40101    0.00091     0.40192
      H   41    0.10237      0.00000     0.39669    0.00094     0.39763
 =======================================================================
   * Total *   -0.00000     15.99381    45.79771    0.20849    62.00000

 Normal termination of Gaussian 16 at Fri Dec 11 01:06:02 2020.
