 Gaussian 16, Revision A.03,

 -----------------------------------------------------------
 # opt freq B3LYP/6-31G(d) empiricaldispersion=gd3bj scf=xqc
 -----------------------------------------------------------

 -------------------------------
 CID_131558674_JID_5831_neutraal
 -------------------------------
 Symbolic Z-matrix:
 Charge =  0 Multiplicity = 1

 SCF Done:  E(RB3LYP) =  -1692.40166052     A.U. after   15 cycles
 SCF Done:  E(RB3LYP) =  -1692.40806090     A.U. after   12 cycles
 SCF Done:  E(RB3LYP) =  -1692.40968758     A.U. after   12 cycles
 SCF Done:  E(RB3LYP) =  -1692.41016653     A.U. after   12 cycles
 SCF Done:  E(RB3LYP) =  -1692.41041034     A.U. after   12 cycles
 SCF Done:  E(RB3LYP) =  -1692.41055695     A.U. after   12 cycles
 SCF Done:  E(RB3LYP) =  -1692.41068623     A.U. after   13 cycles
 SCF Done:  E(RB3LYP) =  -1692.41081151     A.U. after   12 cycles
 SCF Done:  E(RB3LYP) =  -1692.41084466     A.U. after   12 cycles
 SCF Done:  E(RB3LYP) =  -1692.41087270     A.U. after   10 cycles
 SCF Done:  E(RB3LYP) =  -1692.41088810     A.U. after   10 cycles
 SCF Done:  E(RB3LYP) =  -1692.41088886     A.U. after    8 cycles
 SCF Done:  E(RB3LYP) =  -1692.41088904     A.U. after    8 cycles
 SCF Done:  E(RB3LYP) =  -1692.41088915     A.U. after    8 cycles
 SCF Done:  E(RB3LYP) =  -1692.41088917     A.U. after    7 cycles
 Optimization completed.
    -- Stationary point found.
 Normal termination of Gaussian 16 at Thu Dec 10 17:16:21 2020.

 --------------------------------------------------------------------
 #N Geom=AllCheck Guess=TCheck SCRF=Check GenChk RB3LYP/6-31G(d) Freq
 --------------------------------------------------------------------

 Structure from the checkpoint file:  "JID_5831.chk"
 -------------------------------
 CID_131558674_JID_5831_neutraal
 -------------------------------
 Charge =  0 Multiplicity = 1

 SCF Done:  E(RB3LYP) =  -1692.41088917     A.U. after    1 cycles

  Exact polarizability: 187.393   4.554 181.588  -0.644  -0.487 119.967
 Approx polarizability: 257.235   3.681 336.060  -6.496  -9.291 201.535

                      1                      2                      3
                      A                      A                      A
 Frequencies --     19.9334                36.1155                44.6516
 Red. masses --      6.4048                 6.3315                 5.3610
 Frc consts  --      0.0015                 0.0049                 0.0063
 IR Inten    --      0.2734                 0.3568                 0.2200

                      4                      5                      6
                      A                      A                      A
 Frequencies --     78.0032                82.8981                99.8300
 Red. masses --      1.1089                 3.4826                 5.2447
 Frc consts  --      0.0040                 0.0141                 0.0308
 IR Inten    --      0.2028                 1.7951                 0.8413

                      7                      8                      9
                      A                      A                      A
 Frequencies --    129.8577               164.6789               178.0309
 Red. masses --      4.3015                 3.1315                 1.2510
 Frc consts  --      0.0427                 0.0500                 0.0234
 IR Inten    --      0.7925                 3.2593                 0.5155

                     10                     11                     12
                      A                      A                      A
 Frequencies --    200.5719               244.1709               268.1363
 Red. masses --      4.0243                 3.8610                 5.8347
 Frc consts  --      0.0954                 0.1356                 0.2472
 IR Inten    --      0.8620                 6.4330                 2.9460

                     13                     14                     15
                      A                      A                      A
 Frequencies --    283.3977               317.5749               334.5472
 Red. masses --      2.6800                 3.1188                 2.4979
 Frc consts  --      0.1268                 0.1853                 0.1647
 IR Inten    --      7.6004                 7.1768                16.8570

                     16                     17                     18
                      A                      A                      A
 Frequencies --    353.2880               354.7106               402.0944
 Red. masses --      1.9395                 2.6330                 5.6946
 Frc consts  --      0.1426                 0.1952                 0.5425
 IR Inten    --     16.7382                 2.8630                 1.1569

                     19                     20                     21
                      A                      A                      A
 Frequencies --    470.4402               496.8161               512.9930
 Red. masses --      4.8624                 4.9785                 4.6873
 Frc consts  --      0.6340                 0.7240                 0.7268
 IR Inten    --      0.5591                 5.1527                 3.2197

                     22                     23                     24
                      A                      A                      A
 Frequencies --    567.7247               577.9507               612.7676
 Red. masses --      8.8757                 5.5202                 4.5458
 Frc consts  --      1.6855                 1.0864                 1.0057
 IR Inten    --      3.0950                 1.3344                 3.9850

                     25                     26                     27
                      A                      A                      A
 Frequencies --    631.2291               644.2688               673.6767
 Red. masses --      5.3650                 1.9948                 4.3335
 Frc consts  --      1.2595                 0.4879                 1.1588
 IR Inten    --     15.5884                14.1637                19.9600

                     28                     29                     30
                      A                      A                      A
 Frequencies --    682.7193               693.1744               712.3461
 Red. masses --      1.9871                 6.1064                 4.7688
 Frc consts  --      0.5457                 1.7287                 1.4257
 IR Inten    --     34.6699                 3.2420                11.8843

                     31                     32                     33
                      A                      A                      A
 Frequencies --    773.2610               781.3470               793.8002
 Red. masses --      4.1295                 2.1811                 3.7446
 Frc consts  --      1.4548                 0.7845                 1.3902
 IR Inten    --     46.8536               170.0786                28.1900

                     34                     35                     36
                      A                      A                      A
 Frequencies --    865.5356               867.6051               969.9493
 Red. masses --      3.6504                 1.4691                 2.3960
 Frc consts  --      1.6112                 0.6515                 1.3281
 IR Inten    --     10.3950                14.2765                 1.9924

                     37                     38                     39
                      A                      A                      A
 Frequencies --    995.5542               998.9647              1012.1501
 Red. masses --      1.7927                 1.1832                 1.3419
 Frc consts  --      1.0469                 0.6957                 0.8100
 IR Inten    --     20.4374                 3.8479                21.8276

                     40                     41                     42
                      A                      A                      A
 Frequencies --   1061.8030              1064.3394              1136.4539
 Red. masses --      4.2626                 1.4134                 1.4983
 Frc consts  --      2.8314                 0.9434                 1.1401
 IR Inten    --      1.5985                 0.8313                 2.2285

                     43                     44                     45
                      A                      A                      A
 Frequencies --   1147.7301              1174.9370              1189.7457
 Red. masses --      2.6217                 3.4548                 2.8897
 Frc consts  --      2.0348                 2.8100                 2.4100
 IR Inten    --      5.3157                30.3567                37.3805

                     46                     47                     48
                      A                      A                      A
 Frequencies --   1219.0688              1222.6961              1261.6554
 Red. masses --      3.0048                 1.6820                 1.5014
 Frc consts  --      2.6310                 1.4815                 1.4081
 IR Inten    --      3.9998                13.7078                 4.6253

                     49                     50                     51
                      A                      A                      A
 Frequencies --   1337.7385              1363.1635              1383.5494
 Red. masses --      1.6249                 1.5725                 1.1541
 Frc consts  --      1.7132                 1.7216                 1.3016
 IR Inten    --      2.7892                 7.4768                 3.4987

                     52                     53                     54
                      A                      A                      A
 Frequencies --   1433.2679              1443.8502              1492.1910
 Red. masses --      1.2638                 3.5253                 1.0944
 Frc consts  --      1.5296                 4.3301                 1.4358
 IR Inten    --      0.4062                30.6134                 9.0322

                     55                     56                     57
                      A                      A                      A
 Frequencies --   1496.7003              1504.9392              1507.6361
 Red. masses --      1.0641                 1.1990                 1.0433
 Frc consts  --      1.4045                 1.6000                 1.3972
 IR Inten    --      8.2241                15.2246                 8.6143

                     58                     59                     60
                      A                      A                      A
 Frequencies --   1522.0431              1526.6284              1555.1300
 Red. masses --      1.0587                 6.6204                 4.7705
 Frc consts  --      1.4450                 9.0907                 6.7975
 IR Inten    --      8.1393                 5.7498                11.1271

                     61                     62                     63
                      A                      A                      A
 Frequencies --   1601.6891              1618.6719              1682.5115
 Red. masses --      5.8791                 4.4240                 1.2580
 Frc consts  --      8.8862                 6.8295                 2.0982
 IR Inten    --     16.9049                27.2691               102.8844

                     64                     65                     66
                      A                      A                      A
 Frequencies --   3052.5179              3054.9389              3070.6399
 Red. masses --      1.0616                 1.0371                 1.0288
 Frc consts  --      5.8283                 5.7028                 5.7153
 IR Inten    --     18.3216                21.3717                30.8665

                     67                     68                     69
                      A                      A                      A
 Frequencies --   3100.4989              3109.3098              3157.5664
 Red. masses --      1.1010                 1.1016                 1.1007
 Frc consts  --      6.2360                 6.2748                 6.4659
 IR Inten    --      3.4849                11.8453                 4.9394

                     70                     71                     72
                      A                      A                      A
 Frequencies --   3160.8557              3168.1905              3231.4061
 Red. masses --      1.1065                 1.1077                 1.0935
 Frc consts  --      6.5134                 6.5510                 6.7275
 IR Inten    --      8.5530                 1.9673                 8.2867

                     73                     74                     75
                      A                      A                      A
 Frequencies --   3265.4435              3505.0528              3615.8440
 Red. masses --      1.0935                 1.0507                 1.0940
 Frc consts  --      6.8698                 7.6055                 8.4276
 IR Inten    --      2.6599                 8.8608                12.7841

 - Thermochemistry -
 -------------------
 Temperature   298.150 Kelvin.  Pressure   1.00000 Atm.
 Atom     1 has atomic number  6 and mass  12.00000

 Molecular mass:   256.01626 amu.
 Principal axes and moments of inertia in atomic units:
                           1         2         3
     Eigenvalues --  2548.054676447.844347716.42198
           X            0.99990   0.01249   0.00630
           Y           -0.01268   0.99946   0.03046
           Z           -0.00592  -0.03054   0.99952
 This molecule is an asymmetric top.
 Rotational symmetry number  1.
 Warning -- assumption of classical behavior for rotation
           may cause significant error
 Rotational temperatures (Kelvin)      0.03399     0.01343     0.01122
 Rotational constants (GHZ):           0.70828     0.27990     0.23388
 Zero-point vibrational energy     540515.7 (Joules/Mol)
                                  129.18635 (Kcal/Mol)
 Warning -- explicit consideration of  24 degrees of freedom as
           vibrations may cause significant error
 Vibrational temperatures:     28.68    51.96    64.24   112.23   119.27
          (Kelvin)            143.63   186.84   236.94   256.15   288.58
                              351.31   385.79   407.75   456.92   481.34
                              508.30   510.35   578.52   676.86   714.81
                              738.08   816.83   831.54   881.64   908.20
                              926.96   969.27   982.28   997.32  1024.91
                             1112.55  1124.18  1142.10  1245.31  1248.29
                             1395.54  1432.38  1437.29  1456.26  1527.70
                             1531.35  1635.10  1651.33  1690.47  1711.78
                             1753.97  1759.19  1815.24  1924.71  1961.29
                             1990.62  2062.15  2077.38  2146.93  2153.42
                             2165.27  2169.15  2189.88  2196.48  2237.49
                             2304.47  2328.91  2420.76  4391.89  4395.38
                             4417.97  4460.93  4473.60  4543.03  4547.77
                             4558.32  4649.27  4698.24  5042.99  5202.39

 Zero-point correction=                           0.205872 (Hartree/Particle)
 Thermal correction to Energy=                    0.221967
 Thermal correction to Enthalpy=                  0.222911
 Thermal correction to Gibbs Free Energy=         0.160086
 Sum of electronic and zero-point Energies=          -1692.205018
 Sum of electronic and thermal Energies=             -1692.188922
 Sum of electronic and thermal Enthalpies=           -1692.187978
 Sum of electronic and thermal Free Energies=        -1692.250803

                     E (Thermal)             CV                S
                      KCal/Mol        Cal/Mol-Kelvin    Cal/Mol-Kelvin
 Total                  139.286             58.591            132.227
 Electronic               0.000              0.000              0.000
 Translational            0.889              2.981             42.520
 Rotational               0.889              2.981             33.205
 Vibrational            137.509             52.630             56.501
 Vibration     1          0.593              1.986              6.641
 Vibration     2          0.594              1.982              5.462
 Vibration     3          0.595              1.980              5.041
 Vibration     4          0.599              1.964              3.941
 Vibration     5          0.600              1.961              3.821
 Vibration     6          0.604              1.949              3.458
 Vibration     7          0.612              1.923              2.948
 Vibration     8          0.623              1.886              2.495
 Vibration     9          0.628              1.869              2.349
 Vibration    10          0.638              1.839              2.128
 Vibration    11          0.659              1.772              1.772
 Vibration    12          0.673              1.732              1.608
 Vibration    13          0.682              1.704              1.513
 Vibration    14          0.704              1.640              1.323
 Vibration    15          0.716              1.607              1.238
 Vibration    16          0.729              1.569              1.151
 Vibration    17          0.731              1.566              1.145
 Vibration    18          0.768              1.466              0.955
 Vibration    19          0.827              1.316              0.736
 Vibration    20          0.852              1.257              0.666
 Vibration    21          0.868              1.221              0.626
 Vibration    22          0.924              1.101              0.509
 Vibration    23          0.934              1.079              0.489
 Vibration    24          0.972              1.005              0.428

                           ! Non-Optimized Parameters !
 Normal termination of Gaussian 16 at Thu Dec 10 17:25:22 2020.

 ----------------------------------------------------------------------
 # B3LYP/6-311++G(d,p) empiricaldispersion=gd3bj scf=xqc pop=npa geom=c
 heck
 ----------------------------------------------------------------------

 ---------------------------------------
 CID_131558674_JID_5831_Energie_neutraal
 ---------------------------------------
 Structure from the checkpoint file:  "JID_5831.chk"
 Charge =  0 Multiplicity = 1

 SCF Done:  E(RB3LYP) =  -1692.62838167     A.U. after   17 cycles
 Normal termination of Gaussian 16 at Thu Dec 10 17:30:33 2020.

 ----------------------------------------------------------------------
 # B3LYP/6-311++G(d,p) empiricaldispersion=gd3bj scf=xqc pop=npa geom=c
 heck
 ----------------------------------------------------------------------

 -------------------------------------
 CID_131558674_JID_5831_Energie_kation
 -------------------------------------
 Structure from the checkpoint file:  "JID_5831.chk"
 Charge =  1 Multiplicity = 2

 SCF Done:  E(UB3LYP) =  -1692.35200290     A.U. after   30 cycles
 Normal termination of Gaussian 16 at Thu Dec 10 17:41:56 2020.
 Gaussian 16:  ES64L-G16RevA.03 25-Dec-2016

 ----------------------------------------------------------------------
 # B3LYP/6-311++G(d,p) empiricaldispersion=gd3bj scf=xqc pop=npa geom=c
 heck
 ----------------------------------------------------------------------

 ------------------------------------
 CID_131558674_JID_5831_Energie_anion
 ------------------------------------
 Structure from the checkpoint file:  "JID_5831.chk"
 Charge = -1 Multiplicity = 2

                         Standard orientation:
 ---------------------------------------------------------------------
 Center     Atomic      Atomic             Coordinates (Angstroms)
 Number     Number       Type             X           Y           Z
 ---------------------------------------------------------------------
      1          6           0        4.778477    0.050033    1.350301
      2          6           0        3.583000   -0.284874    0.514799
      3          7           0        3.245144   -1.490793    0.162088
      4          6           0        2.097792   -1.486622   -0.601766
      5          6           0        1.533881   -0.269895   -0.856105
      6         16           0        2.489170    0.970131   -0.077482
      7          6           0        0.282242    0.030764   -1.633813
      8          6           0       -0.825917    0.576373   -0.775017
      9          6           0       -1.671575   -0.124704    0.049565
     10          6           0       -2.570310    0.724234    0.801072
     11          6           0       -2.381644    2.051182    0.516573
     12         16           0       -1.112854    2.285992   -0.655081
     13          7           0       -3.539471    0.182074    1.651138
     14         16           0       -1.633881   -1.890134    0.227813
     15          6           0       -3.245767   -2.316255   -0.547219
     16          1           0        5.469322    0.713562    0.817631
     17          1           0        4.490474    0.549113    2.282655
     18          1           0        5.299252   -0.878667    1.594201
     19          1           0        1.691838   -2.427716   -0.955060
     20          1           0        0.496114    0.727770   -2.453068
     21          1           0       -0.056505   -0.907246   -2.086854
     22          1           0       -2.916952    2.901156    0.916260
     23          1           0       -3.212632   -0.669848    2.100097
     24          1           0       -3.887174    0.839086    2.340190
     25          1           0       -4.054216   -1.766608   -0.060726
     26          1           0       -3.227003   -2.086268   -1.614843
     27          1           0       -3.392264   -3.390539   -0.407410
 ---------------------------------------------------------------------

 SCF Done:  E(UB3LYP) =  -1692.62070590     A.U. after   33 cycles
 SCF Done:  E(UB3LYP) =  -1692.62070590     a.u. after    1 cycles

 The electronic state is 2-A.
 Alpha  occ. eigenvalues --  -88.76235 -88.76047 -88.73904 -14.21121 -14.19941
 Alpha  occ. eigenvalues --  -10.12165 -10.10524 -10.09157 -10.08971 -10.08747
 Alpha  occ. eigenvalues --  -10.08541 -10.08309 -10.08240 -10.08108 -10.07251
 Alpha  occ. eigenvalues --   -7.84894  -7.84663  -7.82450  -5.81162  -5.80960
 Alpha  occ. eigenvalues --   -5.80827  -5.80608  -5.80501  -5.80241  -5.78846
 Alpha  occ. eigenvalues --   -5.78479  -5.77836  -0.84923  -0.81744  -0.76014
 Alpha  occ. eigenvalues --   -0.70342  -0.68582  -0.67133  -0.64239  -0.60872
 Alpha  occ. eigenvalues --   -0.59316  -0.56189  -0.52568  -0.47024  -0.45791
 Alpha  occ. eigenvalues --   -0.43518  -0.42221  -0.39411  -0.37634  -0.37235
 Alpha  occ. eigenvalues --   -0.34468  -0.34049  -0.33720  -0.32185  -0.31724
 Alpha  occ. eigenvalues --   -0.31024  -0.30186  -0.28830  -0.27904  -0.27383
 Alpha  occ. eigenvalues --   -0.27023  -0.26171  -0.24493  -0.23985  -0.21693
 Alpha  occ. eigenvalues --   -0.20693  -0.16968  -0.16552  -0.14212  -0.13239
 Alpha  occ. eigenvalues --   -0.11522  -0.09913   0.04352
 Alpha virt. eigenvalues --    0.06194   0.06824   0.07119   0.08436   0.08765
 Alpha virt. eigenvalues --    0.08980   0.09956   0.10207   0.10325   0.10985
 Alpha virt. eigenvalues --    0.11563   0.11949   0.12490   0.12723   0.12939

  Beta  occ. eigenvalues --  -88.76222 -88.76035 -88.73902 -14.21079 -14.19953
  Beta  occ. eigenvalues --  -10.12001 -10.10531 -10.08985 -10.08836 -10.08762
  Beta  occ. eigenvalues --  -10.08550 -10.08278 -10.08163 -10.08085 -10.07194
  Beta  occ. eigenvalues --   -7.84882  -7.84652  -7.82448  -5.81159  -5.80957
  Beta  occ. eigenvalues --   -5.80824  -5.80601  -5.80450  -5.80200  -5.78835
  Beta  occ. eigenvalues --   -5.78478  -5.77837  -0.84813  -0.81683  -0.75864
  Beta  occ. eigenvalues --   -0.70184  -0.68485  -0.66998  -0.64112  -0.60765
  Beta  occ. eigenvalues --   -0.59197  -0.56114  -0.52466  -0.46854  -0.45641
  Beta  occ. eigenvalues --   -0.43372  -0.42133  -0.39300  -0.37532  -0.37120
  Beta  occ. eigenvalues --   -0.34244  -0.33954  -0.33589  -0.32093  -0.31653
  Beta  occ. eigenvalues --   -0.30874  -0.30105  -0.28669  -0.27790  -0.27304
  Beta  occ. eigenvalues --   -0.26810  -0.26054  -0.24380  -0.23879  -0.21595
  Beta  occ. eigenvalues --   -0.20497  -0.16684  -0.16526  -0.14023  -0.12633
  Beta  occ. eigenvalues --   -0.11199  -0.09583
  Beta virt. eigenvalues --    0.06707   0.06994   0.07372   0.07910   0.08795
  Beta virt. eigenvalues --    0.09233   0.09581   0.10075   0.10177   0.10682
  Beta virt. eigenvalues --    0.11144   0.11860   0.12062   0.12635   0.12847

 Mulliken charges and spin densities:
               1          2
     1  C   -0.237356  -0.245462
     2  C   -0.223331   0.141703
     3  N   -0.014298   0.002713
     4  C   -0.671890   0.135021
     5  C    0.847147  -0.041684
     6  S   -0.268544   0.038623
     7  C    0.270859  -0.686457
     8  C    0.109329   0.604710
     9  C   -0.003877   0.264531
    10  C    0.175069  -0.495734
    11  C   -0.016773  -0.015322
    12  S   -0.172065  -0.252331
    13  N   -0.406438   0.051632
    14  S   -0.259985  -0.195111
    15  C    0.117861  -0.784279
    16  H    0.042140   0.112878
    17  H    0.159972  -0.002819
    18  H    0.136621   0.012285
    19  H   -0.000859   0.138146
    20  H   -0.157022   0.381158
    21  H    0.173921   0.003373
    22  H   -0.061177   0.270563
    23  H    0.060505   0.192486
    24  H   -0.182579   0.433540
    25  H    0.003310   0.195127
    26  H   -0.103026   0.263414
    27  H   -0.317513   0.477295
 Sum of Mulliken charges =  -1.00000   1.00000

 Dipole moment (field-independent basis, Debye):
    X=              3.6460    Y=              2.6573    Z=              0.0043  Tot=              4.5116
 Quadrupole moment (field-independent basis, Debye-Ang):
   XX=           -176.4838   YY=           -147.3106   ZZ=           -136.9928
   XY=             -1.2759   XZ=              8.8858   YZ=              0.0093

 Summary of Natural Population Analysis:

                                       Natural Population
                Natural  -----------------------------------------------
    Atom  No    Charge         Core      Valence    Rydberg      Total
 -----------------------------------------------------------------------
      C    1   -0.30683      0.99961     2.30173    0.00549     3.30683
      C    2    0.05910      0.99964     1.92503    0.01622     2.94090
      N    3   -0.25301      0.99965     2.74141    0.01195     3.75301
      C    4   -0.02282      0.99944     2.00800    0.01537     3.02282
      C    5   -0.08131      0.99948     2.06948    0.01235     3.08131
      S    6    0.17803      4.99939     2.80383    0.01876     7.82197
      C    7   -0.22365      0.99953     2.21145    0.01267     3.22365
      C    8   -0.05934      0.99939     2.04489    0.01506     3.05934
      C    9   -0.13152      0.99923     2.11778    0.01451     3.13152
      C   10    0.05929      0.99939     1.92885    0.01248     2.94071
      C   11   -0.22630      0.99947     2.21592    0.01090     3.22630
      S   12    0.20440      4.99941     2.77586    0.02034     7.79560
      N   13   -0.40200      0.99971     2.89191    0.01038     3.90200
      S   14    0.10806      4.99956     2.87104    0.02134     7.89194
      C   15   -0.34464      0.99962     2.33877    0.00626     3.34464
      H   16    0.10405      0.00000     0.39458    0.00137     0.39595
      H   17    0.10436      0.00000     0.39470    0.00094     0.39564
      H   18    0.11067      0.00000     0.38798    0.00135     0.38933
      H   19    0.10002      0.00000     0.39824    0.00174     0.39998
      H   20    0.11117      0.00000     0.38718    0.00165     0.38883
      H   21    0.12137      0.00000     0.37699    0.00164     0.37863
      H   22    0.10536      0.00000     0.39368    0.00096     0.39464
      H   23    0.18871      0.00000     0.30898    0.00231     0.31129
      H   24    0.18473      0.00000     0.31220    0.00307     0.31527
      H   25    0.10831      0.00000     0.38980    0.00189     0.39169
      H   26    0.10017      0.00000     0.39822    0.00161     0.39983
      H   27    0.10362      0.00000     0.39458    0.00180     0.39638
 =======================================================================
   * Total *   -0.00000     26.99251    39.78309    0.22440    67.00000

 Normal termination of Gaussian 16 at Thu Dec 10 17:57:09 2020.
