 Gaussian 16, Revision A.03,

 -----------------------------------------------------------
 # opt freq B3LYP/6-31G(d) empiricaldispersion=gd3bj scf=xqc
 -----------------------------------------------------------

 -------------------------------
 CID_18550178_JID_10173_neutraal
 -------------------------------
 Symbolic Z-matrix:
 Charge =  0 Multiplicity = 1

 SCF Done:  E(RB3LYP) =  -1346.92747693     A.U. after   16 cycles
 SCF Done:  E(RB3LYP) =  -1346.91181947     A.U. after   14 cycles
 SCF Done:  E(RB3LYP) =  -1346.94104330     A.U. after   12 cycles
 SCF Done:  E(RB3LYP) =  -1346.94202713     A.U. after   14 cycles
 SCF Done:  E(RB3LYP) =  -1346.94425597     A.U. after   13 cycles
 SCF Done:  E(RB3LYP) =  -1346.94461954     A.U. after   12 cycles
 SCF Done:  E(RB3LYP) =  -1346.94518852     A.U. after   12 cycles
 SCF Done:  E(RB3LYP) =  -1346.94534392     A.U. after   12 cycles
 SCF Done:  E(RB3LYP) =  -1346.94549787     A.U. after   12 cycles
 SCF Done:  E(RB3LYP) =  -1346.94561765     A.U. after   11 cycles
 SCF Done:  E(RB3LYP) =  -1346.94654514     A.U. after    9 cycles
 SCF Done:  E(RB3LYP) =  -1346.94654668     A.U. after    8 cycles
 SCF Done:  E(RB3LYP) =  -1346.94654757     A.U. after    8 cycles
 SCF Done:  E(RB3LYP) =  -1346.94654843     A.U. after    8 cycles
 SCF Done:  E(RB3LYP) =  -1346.94654916     A.U. after    8 cycles
 SCF Done:  E(RB3LYP) =  -1346.94654937     A.U. after    8 cycles
 Optimization completed.
    -- Stationary point found.
 Normal termination of Gaussian 16 at Sat Dec 12 15:35:30 2020.

 --------------------------------------------------------------------
 #N Geom=AllCheck Guess=TCheck SCRF=Check GenChk RB3LYP/6-31G(d) Freq
 --------------------------------------------------------------------

 Structure from the checkpoint file:  "JID_10173.chk"
 -------------------------------
 CID_18550178_JID_10173_neutraal
 -------------------------------
 Charge =  0 Multiplicity = 1

 SCF Done:  E(RB3LYP) =  -1346.94654937     A.U. after    1 cycles

  Exact polarizability: 160.625  -5.304 170.274 -23.550  -8.126 152.350
 Approx polarizability: 227.094 -19.709 294.840 -52.242 -16.072 250.377

                      1                      2                      3
                      A                      A                      A
 Frequencies --     23.4333                37.0334                52.3835
 Red. masses --      6.8217                 6.5895                 6.6588
 Frc consts  --      0.0022                 0.0053                 0.0108
 IR Inten    --      0.1159                 0.2507                 1.6720

                      4                      5                      6
                      A                      A                      A
 Frequencies --     67.9429                73.8616                86.0832
 Red. masses --      6.7189                 4.1978                 5.8341
 Frc consts  --      0.0183                 0.0135                 0.0255
 IR Inten    --      2.8642                 1.4774                 0.3091

                      7                      8                      9
                      A                      A                      A
 Frequencies --    104.9041               133.2453               136.9960
 Red. masses --      8.9284                 6.2157                 4.4945
 Frc consts  --      0.0579                 0.0650                 0.0497
 IR Inten    --      2.2389                 0.6154                 1.9102

                     10                     11                     12
                      A                      A                      A
 Frequencies --    150.2719               186.3127               195.6503
 Red. masses --      5.3563                 4.0411                 7.4455
 Frc consts  --      0.0713                 0.0826                 0.1679
 IR Inten    --      1.8184                 5.5449                 2.1213

                     13                     14                     15
                      A                      A                      A
 Frequencies --    233.3784               253.5273               279.1950
 Red. masses --      2.5719                 1.9650                 5.8619
 Frc consts  --      0.0825                 0.0744                 0.2692
 IR Inten    --      1.4560                 3.7820                 3.0108

                     16                     17                     18
                      A                      A                      A
 Frequencies --    298.5009               328.7231               374.4881
 Red. masses --      4.0947                 4.7151                 6.6712
 Frc consts  --      0.2150                 0.3002                 0.5512
 IR Inten    --      3.5112                11.7020                 3.6798

                     19                     20                     21
                      A                      A                      A
 Frequencies --    397.2262               415.6296               422.1987
 Red. masses --      2.6561                 5.7363                 2.4542
 Frc consts  --      0.2469                 0.5838                 0.2578
 IR Inten    --     12.5509                 3.2944                 6.8670

                     22                     23                     24
                      A                      A                      A
 Frequencies --    431.8731               445.2017               479.7620
 Red. masses --      1.9310                 1.8988                 2.6419
 Frc consts  --      0.2122                 0.2217                 0.3583
 IR Inten    --     59.9228                 0.3757                 3.4512

                     25                     26                     27
                      A                      A                      A
 Frequencies --    500.6061               520.2783               538.8771
 Red. masses --      4.5224                 2.2680                 5.9946
 Frc consts  --      0.6677                 0.3617                 1.0256
 IR Inten    --     14.9445                21.7234                 1.6126

                     28                     29                     30
                      A                      A                      A
 Frequencies --    571.4654               582.0613               606.7927
 Red. masses --      2.1490                 2.2459                 1.9120
 Frc consts  --      0.4135                 0.4483                 0.4148
 IR Inten    --     82.5592                41.8825                23.1596

                     31                     32                     33
                      A                      A                      A
 Frequencies --    637.0311               659.2158               676.2558
 Red. masses --      2.4589                 1.8768                 3.9751
 Frc consts  --      0.5879                 0.4805                 1.0711
 IR Inten    --     58.4531                99.4606                25.5485

                     34                     35                     36
                      A                      A                      A
 Frequencies --    699.0459               740.6493               758.8495
 Red. masses --      8.2950                 3.3234                 5.4895
 Frc consts  --      2.3882                 1.0741                 1.8625
 IR Inten    --      2.5690                15.3670                18.0714

                     37                     38                     39
                      A                      A                      A
 Frequencies --    773.0554               782.3352               858.0829
 Red. masses --      7.4306                 6.7810                 1.6488
 Frc consts  --      2.6164                 2.4453                 0.7153
 IR Inten    --     59.7555                42.5390                 0.1086

                     40                     41                     42
                      A                      A                      A
 Frequencies --    861.6951               866.4543               877.1341
 Red. masses --      3.2181                 2.3351                 4.8417
 Frc consts  --      1.4079                 1.0329                 2.1947
 IR Inten    --      6.5753                 1.7056                 8.4212

                     43                     44                     45
                      A                      A                      A
 Frequencies --    907.1593               931.0228               935.3460
 Red. masses --      2.7941                 2.5039                 1.4208
 Frc consts  --      1.3548                 1.2787                 0.7324
 IR Inten    --      3.9695                 7.3616                 5.3715

                     46                     47                     48
                      A                      A                      A
 Frequencies --    943.8425               991.9110              1017.0853
 Red. masses --      4.5990                 3.3130                 2.5575
 Frc consts  --      2.4139                 1.9205                 1.5588
 IR Inten    --     20.5925                26.5320                10.9984

                     49                     50                     51
                      A                      A                      A
 Frequencies --   1051.9517              1079.3363              1107.6452
 Red. masses --      2.4421                 2.1716                 1.8739
 Frc consts  --      1.5922                 1.4906                 1.3546
 IR Inten    --     33.7590                10.5538                 1.7862

                     52                     53                     54
                      A                      A                      A
 Frequencies --   1124.3289              1132.0662              1146.4104
 Red. masses --      2.0346                 2.7807                 5.5311
 Frc consts  --      1.5153                 2.0997                 4.2829
 IR Inten    --     24.9945                20.7691                20.6318

                     55                     56                     57
                      A                      A                      A
 Frequencies --   1151.8151              1200.2833              1216.8997
 Red. masses --      4.0591                 1.9888                 2.9360
 Frc consts  --      3.1728                 1.6881                 2.5616
 IR Inten    --    138.9630                15.3314                14.5162

                     58                     59                     60
                      A                      A                      A
 Frequencies --   1237.7370              1246.8771              1256.9447
 Red. masses --      2.1484                 1.7469                 1.0858
 Frc consts  --      1.9392                 1.6002                 1.0107
 IR Inten    --    124.3217                18.5293                 2.9119

                     61                     62                     63
                      A                      A                      A
 Frequencies --   1279.4164              1297.9760              1330.1521
 Red. masses --      1.2283                 1.1651                 2.2433
 Frc consts  --      1.1846                 1.1565                 2.3386
 IR Inten    --      7.2492                18.2030                 3.4100

                     64                     65                     66
                      A                      A                      A
 Frequencies --   1337.7194              1371.0187              1377.6527
 Red. masses --      1.2346                 1.3844                 1.2532
 Frc consts  --      1.3016                 1.5331                 1.4013
 IR Inten    --     11.7148                16.8093                 0.7035

                     67                     68                     69
                      A                      A                      A
 Frequencies --   1383.9926              1406.2231              1407.9577
 Red. masses --      3.8472                 1.3730                 1.2506
 Frc consts  --      4.3417                 1.5997                 1.4606
 IR Inten    --    361.4761                76.6095                 4.6292

                     70                     71                     72
                      A                      A                      A
 Frequencies --   1416.0421              1423.1753              1428.3328
 Red. masses --      1.3222                 1.6070                 1.5237
 Frc consts  --      1.5621                 1.9177                 1.8314
 IR Inten    --     29.7076                38.1261                 5.3332

                     73                     74                     75
                      A                      A                      A
 Frequencies --   1435.5415              1443.3202              1456.9745
 Red. masses --      2.0261                 1.2893                 2.7914
 Frc consts  --      2.4600                 1.5824                 3.4912
 IR Inten    --    107.7820                 7.4285                88.8694

                     76                     77                     78
                      A                      A                      A
 Frequencies --   1479.1868              1495.4288              1498.5784
 Red. masses --      1.3081                 1.1623                 1.3293
 Frc consts  --      1.6863                 1.5314                 1.7589
 IR Inten    --      5.6476                10.0254                 4.3937

                     79                     80                     81
                      A                      A                      A
 Frequencies --   1502.6332              1509.4558              1516.9826
 Red. masses --      2.5520                 1.1732                 1.0933
 Frc consts  --      3.3950                 1.5750                 1.4823
 IR Inten    --     78.1352                20.2404                 1.4043

                     82                     83                     84
                      A                      A                      A
 Frequencies --   1531.2049              1547.5015              1600.5578
 Red. masses --      1.1051                 1.0903                 7.2425
 Frc consts  --      1.5265                 1.5383                10.9316
 IR Inten    --      3.2294                11.0432                57.2494

                     85                     86                     87
                      A                      A                      A
 Frequencies --   1817.3121              1822.0682              3010.3400
 Red. masses --      9.9955                 7.1974                 1.0663
 Frc consts  --     19.4497                14.0785                 5.6934
 IR Inten    --    358.7872               490.5149                44.3052

                     88                     89                     90
                      A                      A                      A
 Frequencies --   3013.9945              3019.8775              3028.1348
 Red. masses --      1.0657                 1.0675                 1.0637
 Frc consts  --      5.7038                 5.7360                 5.7466
 IR Inten    --     37.7730                32.0606                53.6647

                     91                     92                     93
                      A                      A                      A
 Frequencies --   3030.4823              3037.5734              3065.6387
 Red. masses --      1.0694                 1.0619                 1.1023
 Frc consts  --      5.7867                 5.7727                 6.1035
 IR Inten    --     50.0784                50.5976                17.3941

                     94                     95                     96
                      A                      A                      A
 Frequencies --   3080.0567              3090.2904              3103.5031
 Red. masses --      1.0968                 1.0968                 1.1032
 Frc consts  --      6.1303                 6.1715                 6.2607
 IR Inten    --     48.1713                38.6731                50.4213

                     97                     98                     99
                      A                      A                      A
 Frequencies --   3108.6657              3117.4930              3223.9571
 Red. masses --      1.0981                 1.0924                 1.0930
 Frc consts  --      6.2523                 6.2553                 6.6934
 IR Inten    --     65.9306                16.0448                 0.7507

                    100                    101                    102
                      A                      A                      A
 Frequencies --   3584.1854              3588.9431              3695.0437
 Red. masses --      1.0749                 1.0753                 1.0642
 Frc consts  --      8.1359                 8.1606                 8.5604
 IR Inten    --     68.0659                16.5481                73.6434

 - Thermochemistry -
 -------------------
 Temperature   298.150 Kelvin.  Pressure   1.00000 Atm.
 Atom     1 has atomic number  6 and mass  12.00000

 Molecular mass:   300.08923 amu.
 Principal axes and moments of inertia in atomic units:
                           1         2         3
     Eigenvalues --  4287.736486893.301397459.53024
           X            0.99988   0.00083   0.01575
           Y           -0.00099   0.99995   0.01015
           Z           -0.01574  -0.01017   0.99982
 This molecule is an asymmetric top.
 Rotational symmetry number  1.
 Warning -- assumption of classical behavior for rotation
           may cause significant error
 Rotational temperatures (Kelvin)      0.02020     0.01256     0.01161
 Rotational constants (GHZ):           0.42091     0.26181     0.24194
 Zero-point vibrational energy     757899.8 (Joules/Mol)
                                  181.14240 (Kcal/Mol)
 Warning -- explicit consideration of  30 degrees of freedom as
           vibrations may cause significant error
 Vibrational temperatures:     33.72    53.28    75.37    97.75   106.27
          (Kelvin)            123.85   150.93   191.71   197.11   216.21
                              268.06   281.50   335.78   364.77   401.70
                              429.48   472.96   538.80   571.52   598.00
                              607.45   621.37   640.55   690.27   720.26
                              748.56   775.32   822.21   837.46   873.04
                              916.55   948.46   972.98  1005.77  1065.63
                             1091.82  1112.25  1125.61  1234.59  1239.79
                             1246.63  1262.00  1305.20  1339.53  1345.75
                             1357.98  1427.14  1463.36  1513.52  1552.92
                             1593.65  1617.66  1628.79  1649.43  1657.20
                             1726.94  1750.85  1780.83  1793.98  1808.46
                             1840.79  1867.50  1913.79  1924.68  1972.59
                             1982.13  1991.26  2023.24  2025.74  2037.37
                             2047.63  2055.05  2065.42  2076.62  2096.26
                             2128.22  2151.59  2156.12  2161.95  2171.77
                             2182.60  2203.06  2226.51  2302.85  2614.71
                             2621.55  4331.21  4336.47  4344.93  4356.81
                             4360.19  4370.39  4410.77  4431.51  4446.24
                             4465.25  4472.68  4485.38  4638.56  5156.84
                             5163.69  5316.34

 Zero-point correction=                           0.288669 (Hartree/Particle)
 Thermal correction to Energy=                    0.307466
 Thermal correction to Enthalpy=                  0.308410
 Thermal correction to Gibbs Free Energy=         0.240308
 Sum of electronic and zero-point Energies=          -1346.657881
 Sum of electronic and thermal Energies=             -1346.639083
 Sum of electronic and thermal Enthalpies=           -1346.638139
 Sum of electronic and thermal Free Energies=        -1346.706241

                     E (Thermal)             CV                S
                      KCal/Mol        Cal/Mol-Kelvin    Cal/Mol-Kelvin
 Total                  192.938             70.857            143.333
 Electronic               0.000              0.000              0.000
 Translational            0.889              2.981             42.994
 Rotational               0.889              2.981             33.755
 Vibrational            191.160             64.895             66.584
 Vibration     1          0.593              1.985              6.320
 Vibration     2          0.594              1.982              5.412
 Vibration     3          0.596              1.977              4.725
 Vibration     4          0.598              1.969              4.212
 Vibration     5          0.599              1.966              4.048
 Vibration     6          0.601              1.959              3.747
 Vibration     7          0.605              1.945              3.361
 Vibration     8          0.613              1.920              2.899
 Vibration     9          0.614              1.916              2.845
 Vibration    10          0.618              1.902              2.669
 Vibration    11          0.632              1.859              2.264
 Vibration    12          0.636              1.846              2.174
 Vibration    13          0.654              1.790              1.853
 Vibration    14          0.665              1.757              1.706
 Vibration    15          0.680              1.712              1.539
 Vibration    16          0.692              1.677              1.425
 Vibration    17          0.712              1.618              1.266
 Vibration    18          0.746              1.524              1.061
 Vibration    19          0.764              1.476              0.973
 Vibration    20          0.779              1.436              0.907
 Vibration    21          0.785              1.422              0.885
 Vibration    22          0.793              1.401              0.853
 Vibration    23          0.805              1.371              0.810
 Vibration    24          0.836              1.295              0.711
 Vibration    25          0.856              1.249              0.657
 Vibration    26          0.875              1.205              0.609
 Vibration    27          0.894              1.164              0.568
 Vibration    28          0.928              1.093              0.501
 Vibration    29          0.939              1.070              0.482
 Vibration    30          0.966              1.017              0.438

                           ! Non-Optimized Parameters !
 Normal termination of Gaussian 16 at Sat Dec 12 15:58:40 2020.

 ----------------------------------------------------------------------
 # B3LYP/6-311++G(d,p) empiricaldispersion=gd3bj scf=xqc pop=npa geom=c
 heck
 ----------------------------------------------------------------------

 ---------------------------------------
 CID_18550178_JID_10173_Energie_neutraal
 ---------------------------------------
 Structure from the checkpoint file:  "JID_10173.chk"
 Charge =  0 Multiplicity = 1

 SCF Done:  E(RB3LYP) =  -1347.25483694     A.U. after   18 cycles
 Normal termination of Gaussian 16 at Sat Dec 12 16:10:06 2020.

 ----------------------------------------------------------------------
 # B3LYP/6-311++G(d,p) empiricaldispersion=gd3bj scf=xqc pop=npa geom=c
 heck
 ----------------------------------------------------------------------

 -------------------------------------
 CID_18550178_JID_10173_Energie_kation
 -------------------------------------
 Structure from the checkpoint file:  "JID_10173.chk"
 Charge =  1 Multiplicity = 2

 SCF Done:  E(UB3LYP) =  -1346.97149097     A.U. after   30 cycles
 Normal termination of Gaussian 16 at Sat Dec 12 16:36:31 2020.
 Gaussian 16:  ES64L-G16RevA.03 25-Dec-2016

 ----------------------------------------------------------------------
 # B3LYP/6-311++G(d,p) empiricaldispersion=gd3bj scf=xqc pop=npa geom=c
 heck
 ----------------------------------------------------------------------

 ------------------------------------
 CID_18550178_JID_10173_Energie_anion
 ------------------------------------
 Structure from the checkpoint file:  "JID_10173.chk"
 Charge = -1 Multiplicity = 2

                         Standard orientation:
 ---------------------------------------------------------------------
 Center     Atomic      Atomic             Coordinates (Angstroms)
 Number     Number       Type             X           Y           Z
 ---------------------------------------------------------------------
      1          6           0       -2.743884    1.033965   -1.529937
      2          6           0       -2.087520    1.804854   -0.380137
      3          8           0       -2.773677    1.555544    0.839746
      4          6           0       -2.745619    0.172235    1.171878
      5          6           0       -3.418380   -0.653274    0.069642
      6          7           0       -2.867773   -0.394359   -1.256266
      7          6           0       -1.880547   -1.286523   -1.820264
      8          6           0       -0.420691   -1.229906   -1.326315
      9          7           0       -0.295980   -1.777718    0.027354
     10          6           0        0.870744   -2.238353    0.594074
     11          8           0        0.917895   -3.183980    1.362369
     12          7           0        2.052528   -1.581429    0.200387
     13          6           0        2.189955   -0.232174   -0.111227
     14          6           0        1.656584    0.901165    0.480752
     15          6           0        2.036785    2.067000   -0.258323
     16          7           0        2.810428    1.904755   -1.306666
     17         16           0        3.100212    0.255314   -1.513746
     18          6           0        0.874699    1.025775    1.725170
     19          8           0        0.339338    2.055621    2.080849
     20          8           0        0.838629   -0.112479    2.454385
     21          1           0       -3.752648    1.446792   -1.680690
     22          1           0       -2.183573    1.176795   -2.461175
     23          1           0       -1.027865    1.527814   -0.277692
     24          1           0       -2.143179    2.884769   -0.548651
     25          1           0       -3.289547    0.073293    2.117152
     26          1           0       -1.708555   -0.160764    1.319763
     27          1           0       -4.485714   -0.385388    0.055538
     28          1           0       -3.354389   -1.726192    0.288422
     29          1           0       -2.247512   -2.316327   -1.700913
     30          1           0       -1.844950   -1.097212   -2.901189
     31          1           0        0.204845   -1.799428   -2.028376
     32          1           0       -0.073745   -0.193945   -1.349625
     33          1           0       -1.060510   -2.377511    0.313308
     34          1           0        2.871301   -2.056147    0.562972
     35          1           0        1.735654    3.069791    0.028376
     36          1           0        0.292338    0.083655    3.238369
 ---------------------------------------------------------------------

 SCF Done:  E(UB3LYP) =  -1347.28119102     A.U. after   27 cycles

 The electronic state is 2-A.
 Alpha  occ. eigenvalues --  -88.73832 -19.03171 -19.02171 -18.96659 -18.95658
 Alpha  occ. eigenvalues --  -14.21951 -14.21619 -14.21499 -14.17903 -10.17580
 Alpha  occ. eigenvalues --  -10.14925 -10.11448 -10.11268 -10.10913 -10.10869
 Alpha  occ. eigenvalues --  -10.10455 -10.10026 -10.07072 -10.07008 -10.03382
 Alpha  occ. eigenvalues --   -7.82359  -5.78756  -5.78273  -5.77908  -0.96899
 Alpha  occ. eigenvalues --   -0.93834  -0.93402  -0.87441  -0.83859  -0.82537
 Alpha  occ. eigenvalues --   -0.80976  -0.78645  -0.67782  -0.66355  -0.63919
 Alpha  occ. eigenvalues --   -0.61231  -0.58922  -0.56228  -0.52814  -0.51846
 Alpha  occ. eigenvalues --   -0.50013  -0.47206  -0.46619  -0.42750  -0.41051
 Alpha  occ. eigenvalues --   -0.40070  -0.39567  -0.38190  -0.37830  -0.37084
 Alpha  occ. eigenvalues --   -0.36020  -0.35989  -0.34907  -0.33903  -0.32141
 Alpha  occ. eigenvalues --   -0.31364  -0.31054  -0.30515  -0.30318  -0.29927
 Alpha  occ. eigenvalues --   -0.29216  -0.28491  -0.27968  -0.27235  -0.25850
 Alpha  occ. eigenvalues --   -0.25449  -0.24993  -0.22083  -0.21610  -0.19084
 Alpha  occ. eigenvalues --   -0.18092  -0.17282  -0.16593  -0.14930  -0.13955
 Alpha  occ. eigenvalues --   -0.13773  -0.12431  -0.11330  -0.10977   0.03322
 Alpha virt. eigenvalues --    0.06726   0.08089   0.08361   0.09266   0.10113
 Alpha virt. eigenvalues --    0.10233   0.10855   0.11237   0.11441   0.11938
 Alpha virt. eigenvalues --    0.12596   0.13239   0.13524   0.13859   0.14046

  Beta  occ. eigenvalues --  -88.73768 -19.03134 -19.02166 -18.96602 -18.95384
  Beta  occ. eigenvalues --  -14.21944 -14.21686 -14.21499 -14.17690 -10.17501
  Beta  occ. eigenvalues --  -10.14744 -10.11445 -10.11267 -10.10913 -10.10861
  Beta  occ. eigenvalues --  -10.10455 -10.10021 -10.07062 -10.06286 -10.03352
  Beta  occ. eigenvalues --   -7.82301  -5.78733  -5.78255  -5.77678  -0.96684
  Beta  occ. eigenvalues --   -0.93827  -0.93282  -0.87055  -0.83843  -0.82176
  Beta  occ. eigenvalues --   -0.80838  -0.78419  -0.67777  -0.66326  -0.63291
  Beta  occ. eigenvalues --   -0.60830  -0.58900  -0.56223  -0.52792  -0.51390
  Beta  occ. eigenvalues --   -0.49762  -0.47192  -0.46084  -0.42566  -0.41028
  Beta  occ. eigenvalues --   -0.39930  -0.39330  -0.38134  -0.37821  -0.37038
  Beta  occ. eigenvalues --   -0.35952  -0.35913  -0.34642  -0.33737  -0.31941
  Beta  occ. eigenvalues --   -0.31048  -0.30565  -0.30337  -0.30173  -0.29730
  Beta  occ. eigenvalues --   -0.29052  -0.28434  -0.27761  -0.27219  -0.25542
  Beta  occ. eigenvalues --   -0.25099  -0.24650  -0.21621  -0.21563  -0.18130
  Beta  occ. eigenvalues --   -0.17535  -0.17240  -0.16457  -0.14510  -0.13671
  Beta  occ. eigenvalues --   -0.13231  -0.11382  -0.10965  -0.09892
  Beta virt. eigenvalues --    0.06675   0.08003   0.08323   0.09251   0.09761
  Beta virt. eigenvalues --    0.10160   0.10479   0.10941   0.11340   0.11596
  Beta virt. eigenvalues --    0.12606   0.12748   0.13438   0.13607   0.13814

 Mulliken charges and spin densities:
               1          2
     1  C   -0.451301   0.028303
     2  C   -0.187139   0.003544
     3  O   -0.079941  -0.000181
     4  C   -0.499970   0.018495
     5  C   -0.078383  -0.026355
     6  N    0.095697  -0.000745
     7  C   -0.813039  -0.112258
     8  C    0.145603   0.066821
     9  N   -0.158996   0.005470
    10  C    0.106646   0.041631
    11  O   -0.366661   0.024291
    12  N   -0.358129  -0.031082
    13  C    0.711658   0.403091
    14  C    0.064472  -0.002315
    15  C   -0.770659   0.054665
    16  N   -0.115449   0.058903
    17  S    0.039737   0.176382
    18  C   -0.780642   0.106499
    19  O   -0.270207   0.086196
    20  O   -0.101114   0.000692
    21  H    0.142656   0.001117
    22  H    0.107511   0.014355
    23  H    0.366859  -0.057049
    24  H    0.173459   0.002633
    25  H    0.151980   0.000248
    26  H    0.215632  -0.012083
    27  H    0.155722  -0.000826
    28  H    0.081929  -0.000216
    29  H    0.163668  -0.003652
    30  H    0.144594   0.024057
    31  H    0.082919   0.102229
    32  H    0.087209  -0.046072
    33  H    0.264840   0.007309
    34  H    0.282655   0.063308
    35  H    0.169765   0.003898
    36  H    0.276421  -0.001302
 Sum of Mulliken charges =  -1.00000   1.00000

 Dipole moment (field-independent basis, Debye):
    X=             -6.6490    Y=             -2.4409    Z=             -1.8195  Tot=              7.3129
 Quadrupole moment (field-independent basis, Debye-Ang):
   XX=           -161.5045   YY=           -161.8056   ZZ=           -145.4410
   XY=             -0.1098   XZ=              6.5317   YZ=              2.1212

 Summary of Natural Population Analysis:

                                       Natural Population
                Natural  -----------------------------------------------
    Atom  No    Charge         Core      Valence    Rydberg      Total
 -----------------------------------------------------------------------
      C    1   -0.09615      0.99962     2.08766    0.00886     3.09615
      C    2   -0.02268      0.99958     2.01216    0.01094     3.02268
      O    3   -0.29822      0.99989     3.28736    0.01097     4.29822
      C    4   -0.02622      0.99958     2.01563    0.01100     3.02622
      C    5   -0.09423      0.99963     2.08562    0.00898     3.09423
      N    6   -0.28709      0.99972     2.77237    0.01500     3.78709
      C    7   -0.07937      0.99961     2.06874    0.01102     3.07937
      C    8   -0.10306      0.99961     2.09256    0.01088     3.10306
      N    9   -0.33822      0.99966     2.82727    0.01129     3.83822
      C   10    0.43108      0.99971     1.54680    0.02241     2.56892
      O   11   -0.33567      0.99987     3.33008    0.00572     4.33567
      N   12   -0.34270      0.99963     2.83174    0.01133     3.84270
      C   13    0.14756      0.99946     1.83628    0.01671     2.85244
      C   14   -0.15330      0.99936     2.13824    0.01570     3.15330
      C   15    0.01980      0.99960     1.96614    0.01445     2.98020
      N   16   -0.29707      0.99973     2.78545    0.01189     3.79707
      S   17    0.27850      4.99942     2.69336    0.02872     7.72150
      C   18    0.41346      0.99964     1.56296    0.02393     2.58654
      O   19   -0.30071      0.99987     3.29359    0.00726     4.30071
      O   20   -0.34638      0.99988     3.33971    0.00680     4.34638
      H   21    0.08803      0.00000     0.41059    0.00138     0.41197
      H   22    0.09771      0.00000     0.40130    0.00099     0.40229
      H   23    0.09422      0.00000     0.40404    0.00175     0.40578
      H   24    0.08835      0.00000     0.41059    0.00106     0.41165
      H   25    0.08478      0.00000     0.41403    0.00120     0.41522
      H   26    0.09399      0.00000     0.40351    0.00250     0.40601
      H   27    0.08833      0.00000     0.41027    0.00140     0.41167
      H   28    0.09301      0.00000     0.40597    0.00102     0.40699
      H   29    0.08896      0.00000     0.40990    0.00114     0.41104
      H   30    0.09604      0.00000     0.40295    0.00101     0.40396
      H   31    0.09183      0.00000     0.40585    0.00232     0.40817
      H   32    0.10515      0.00000     0.39138    0.00347     0.39485
      H   33    0.18523      0.00000     0.31303    0.00174     0.31477
      H   34    0.20417      0.00000     0.29433    0.00150     0.29583
      H   35    0.09769      0.00000     0.40093    0.00138     0.40231
      H   36    0.23316      0.00000     0.26424    0.00260     0.26684
 =======================================================================
   * Total *   -0.00000     23.99309    54.71661    0.29030    79.00000

 Normal termination of Gaussian 16 at Sat Dec 12 16:59:26 2020.
