 Gaussian 16, Revision A.03,

 -----------------------------------------------------------
 # opt freq B3LYP/6-31G(d) empiricaldispersion=gd3bj scf=xqc
 -----------------------------------------------------------

 ------------------------------
 CID_56622078_JID_3164_neutraal
 ------------------------------
 Symbolic Z-matrix:
 Charge =  0 Multiplicity = 1

 SCF Done:  E(RB3LYP) =  -866.369515635     A.U. after   14 cycles
 SCF Done:  E(RB3LYP) =  -866.371197517     A.U. after   12 cycles
 SCF Done:  E(RB3LYP) =  -866.371403856     A.U. after   11 cycles
 SCF Done:  E(RB3LYP) =  -866.371449440     A.U. after   11 cycles
 SCF Done:  E(RB3LYP) =  -866.371479438     A.U. after   10 cycles
 SCF Done:  E(RB3LYP) =  -866.371524119     A.U. after   11 cycles
 SCF Done:  E(RB3LYP) =  -866.371556580     A.U. after   12 cycles
 SCF Done:  E(RB3LYP) =  -866.371568099     A.U. after   10 cycles
 SCF Done:  E(RB3LYP) =  -866.371580174     A.U. after   10 cycles
 SCF Done:  E(RB3LYP) =  -866.371580682     A.U. after    8 cycles
 SCF Done:  E(RB3LYP) =  -866.371580851     A.U. after    8 cycles
 SCF Done:  E(RB3LYP) =  -866.371580831     A.U. after    7 cycles
 Optimization completed.
    -- Stationary point found.
 Normal termination of Gaussian 16 at Wed Dec  9 22:28:32 2020.

 --------------------------------------------------------------------
 #N Geom=AllCheck Guess=TCheck SCRF=Check GenChk RB3LYP/6-31G(d) Freq
 --------------------------------------------------------------------

 Structure from the checkpoint file:  "JID_3164.chk"
 ------------------------------
 CID_56622078_JID_3164_neutraal
 ------------------------------
 Charge =  0 Multiplicity = 1

 SCF Done:  E(RB3LYP) =  -866.371580831     A.U. after    1 cycles

  Exact polarizability: 153.964  -5.338 132.419 -16.832  -2.923 113.499
 Approx polarizability: 205.671 -14.268 213.150 -40.471  -5.924 180.938

                      1                      2                      3
                      A                      A                      A
 Frequencies --     21.7101                49.5013                52.4059
 Red. masses --      5.0918                 3.6186                 3.3791
 Frc consts  --      0.0014                 0.0052                 0.0055
 IR Inten    --      0.1295                 0.0600                 0.0020

                      4                      5                      6
                      A                      A                      A
 Frequencies --    116.1891               156.9951               198.1196
 Red. masses --      3.4990                 3.4676                 3.2514
 Frc consts  --      0.0278                 0.0504                 0.0752
 IR Inten    --      0.1086                 0.0615                 0.6739

                      7                      8                      9
                      A                      A                      A
 Frequencies --    235.7870               284.8771               326.2978
 Red. masses --      1.7860                 3.0990                 1.9694
 Frc consts  --      0.0585                 0.1482                 0.1235
 IR Inten    --      0.0259                 0.0665                 0.1717

                     10                     11                     12
                      A                      A                      A
 Frequencies --    346.9014               402.4691               429.8253
 Red. masses --      1.9771                 3.6566                 1.9458
 Frc consts  --      0.1402                 0.3490                 0.2118
 IR Inten    --      0.2808                 0.8543                 0.1248

                     13                     14                     15
                      A                      A                      A
 Frequencies --    448.9646               458.4009               487.3621
 Red. masses --      2.6311                 4.0965                 3.2636
 Frc consts  --      0.3125                 0.5072                 0.4567
 IR Inten    --      0.0191                 0.3542                 0.0241

                     16                     17                     18
                      A                      A                      A
 Frequencies --    535.6228               560.0328               653.0480
 Red. masses --      1.8612                 3.3768                 3.5979
 Frc consts  --      0.3146                 0.6240                 0.9041
 IR Inten    --      0.5346                 1.1213                 9.3623

                     19                     20                     21
                      A                      A                      A
 Frequencies --    677.1140               685.1774               768.6519
 Red. masses --      1.7390                 1.7208                 1.8732
 Frc consts  --      0.4698                 0.4760                 0.6521
 IR Inten    --     13.2011                 2.7136                 9.2742

                     22                     23                     24
                      A                      A                      A
 Frequencies --    793.3955               803.5551               827.4497
 Red. masses --      1.5832                 1.4648                 4.5202
 Frc consts  --      0.5872                 0.5573                 1.8234
 IR Inten    --     44.8506                 0.0556                 2.4624

                     25                     26                     27
                      A                      A                      A
 Frequencies --    846.2466               859.0067               863.8829
 Red. masses --      2.2908                 1.8128                 3.6240
 Frc consts  --      0.9666                 0.7881                 1.5935
 IR Inten    --      2.6021                 6.1359                20.2780

                     28                     29                     30
                      A                      A                      A
 Frequencies --    890.3301               904.5539               917.2401
 Red. masses --      1.3166                 1.9774                 2.5028
 Frc consts  --      0.6149                 0.9533                 1.2406
 IR Inten    --      1.4381                 3.2059                 0.6277

                     31                     32                     33
                      A                      A                      A
 Frequencies --    931.9321               938.3365               975.2901
 Red. masses --      1.9125                 1.5688                 2.2619
 Frc consts  --      0.9787                 0.8139                 1.2676
 IR Inten    --      7.4654                 1.0825                 0.4980

                     34                     35                     36
                      A                      A                      A
 Frequencies --   1006.1731              1019.9720              1052.2545
 Red. masses --      1.8421                 2.3090                 1.8002
 Frc consts  --      1.0988                 1.4153                 1.1744
 IR Inten    --      0.5606                 4.0068                 0.3362

                     37                     38                     39
                      A                      A                      A
 Frequencies --   1078.7304              1103.8636              1110.1002
 Red. masses --      1.3459                 1.1169                 2.5852
 Frc consts  --      0.9228                 0.8019                 1.8770
 IR Inten    --      0.2566                 0.2625                 0.2582

                     40                     41                     42
                      A                      A                      A
 Frequencies --   1121.1056              1121.5314              1158.6947
 Red. masses --      1.2111                 2.3448                 1.5599
 Frc consts  --      0.8968                 1.7377                 1.2339
 IR Inten    --      2.4603                 1.3827                 0.2375

                     43                     44                     45
                      A                      A                      A
 Frequencies --   1181.9919              1193.7062              1235.1063
 Red. masses --      1.3614                 1.6083                 1.5082
 Frc consts  --      1.1206                 1.3503                 1.3555
 IR Inten    --      1.0201                 1.7812                 0.4332

                     46                     47                     48
                      A                      A                      A
 Frequencies --   1241.5119              1284.1162              1301.5271
 Red. masses --      1.4895                 1.3456                 1.1985
 Frc consts  --      1.3527                 1.3073                 1.1962
 IR Inten    --      1.9321                 6.0895                 1.8858

                     49                     50                     51
                      A                      A                      A
 Frequencies --   1305.3537              1313.6002              1345.2459
 Red. masses --      1.2596                 1.3223                 1.2185
 Frc consts  --      1.2646                 1.3443                 1.2992
 IR Inten    --      2.5808                 4.3510                 1.8322

                     52                     53                     54
                      A                      A                      A
 Frequencies --   1358.0558              1375.2851              1388.4323
 Red. masses --      1.2974                 1.3456                 1.3740
 Frc consts  --      1.4098                 1.4995                 1.5606
 IR Inten    --      0.4962                 3.3065                 2.7060

                     55                     56                     57
                      A                      A                      A
 Frequencies --   1398.5643              1401.8172              1404.6147
 Red. masses --      1.3547                 1.4767                 1.5098
 Frc consts  --      1.5612                 1.7097                 1.7550
 IR Inten    --      4.5444                 0.2256                 3.2120

                     58                     59                     60
                      A                      A                      A
 Frequencies --   1414.2327              1425.2341              1435.6009
 Red. masses --      1.4725                 1.5803                 2.7503
 Frc consts  --      1.7352                 1.8913                 3.3396
 IR Inten    --      4.3978                 3.4460                 0.6641

                     61                     62                     63
                      A                      A                      A
 Frequencies --   1473.6059              1508.2558              1513.4613
 Red. masses --      5.8307                 1.0889                 1.0918
 Frc consts  --      7.4599                 1.4594                 1.4734
 IR Inten    --     16.7685                 0.7075                 0.9762

                     64                     65                     66
                      A                      A                      A
 Frequencies --   1516.2160              1518.0630              1522.3696
 Red. masses --      1.0919                 1.0978                 1.0841
 Frc consts  --      1.4790                 1.4906                 1.4803
 IR Inten    --      1.2850                 3.3812                 9.6107

                     67                     68                     69
                      A                      A                      A
 Frequencies --   1525.8652              1536.9654              1602.0913
 Red. masses --      1.1036                 1.1004                 5.7232
 Frc consts  --      1.5139                 1.5315                 8.6550
 IR Inten    --      7.5017                 0.8757                 0.9136

                     70                     71                     72
                      A                      A                      A
 Frequencies --   3009.9116              3010.8084              3017.7871
 Red. masses --      1.0712                 1.0692                 1.0677
 Frc consts  --      5.7179                 5.7105                 5.7289
 IR Inten    --      8.7962                13.4155                 7.1502

                     73                     74                     75
                      A                      A                      A
 Frequencies --   3021.1254              3023.6517              3026.0377
 Red. masses --      1.0702                 1.0632                 1.0632
 Frc consts  --      5.7550                 5.7270                 5.7358
 IR Inten    --     16.8228                 7.3160                 7.0692

                     76                     77                     78
                      A                      A                      A
 Frequencies --   3030.0974              3050.6359              3060.8074
 Red. masses --      1.0656                 1.0706                 1.0930
 Frc consts  --      5.7644                 5.8705                 6.0332
 IR Inten    --     91.5983                13.3076                17.8554

                     79                     80                     81
                      A                      A                      A
 Frequencies --   3067.4789              3070.3677              3070.9450
 Red. masses --      1.0950                 1.0996                 1.0945
 Frc consts  --      6.0704                 6.1075                 6.0815
 IR Inten    --     87.8571                38.1248               101.7128

                     82                     83                     84
                      A                      A                      A
 Frequencies --   3073.7197              3078.8025              3092.6457
 Red. masses --      1.0941                 1.1039                 1.1023
 Frc consts  --      6.0904                 6.1652                 6.2117
 IR Inten    --      3.6421               138.8556                36.0071

                     85                     86                     87
                      A                      A                      A
 Frequencies --   3216.8406              3260.4096              3272.0017
 Red. masses --      1.0907                 1.0934                 1.0968
 Frc consts  --      6.6498                 6.8481                 6.9182
 IR Inten    --      6.6777                 1.0793                 1.1025

 - Thermochemistry -
 -------------------
 Temperature   298.150 Kelvin.  Pressure   1.00000 Atm.
 Atom     1 has atomic number  6 and mass  12.00000

 Molecular mass:   194.11292 amu.
 Principal axes and moments of inertia in atomic units:
                           1         2         3
     Eigenvalues --  1325.069545337.809995592.55771
           X            0.99992   0.01050   0.00655
           Y           -0.01023   0.99913  -0.04038
           Z           -0.00697   0.04031   0.99916
 This molecule is an asymmetric top.
 Rotational symmetry number  1.
 Warning -- assumption of classical behavior for rotation
           may cause significant error
 Rotational temperatures (Kelvin)      0.06537     0.01623     0.01549
 Rotational constants (GHZ):           1.36200     0.33811     0.32270
 Zero-point vibrational energy     726097.7 (Joules/Mol)
                                  173.54152 (Kcal/Mol)
 Warning -- explicit consideration of  17 degrees of freedom as
           vibrations may cause significant error
 Vibrational temperatures:     31.24    71.22    75.40   167.17   225.88
          (Kelvin)            285.05   339.24   409.87   469.47   499.11
                              579.06   618.42   645.96   659.54   701.21
                              770.64   805.76   939.59   974.22   985.82
                             1105.92  1141.52  1156.14  1190.52  1217.56
                             1235.92  1242.93  1280.99  1301.45  1319.70
                             1340.84  1350.06  1403.22  1447.66  1467.51
                             1513.96  1552.05  1588.21  1597.19  1613.02
                             1613.63  1667.10  1700.62  1717.48  1777.04
                             1786.26  1847.56  1872.61  1878.11  1889.98
                             1935.51  1953.94  1978.73  1997.64  2012.22
                             2016.90  2020.93  2034.77  2050.59  2065.51
                             2120.19  2170.04  2177.53  2181.50  2184.15
                             2190.35  2195.38  2211.35  2305.05  4330.59
                             4331.88  4341.92  4346.73  4350.36  4353.79
                             4359.63  4389.18  4403.82  4413.42  4417.57
                             4418.40  4422.40  4429.71  4449.63  4628.32
                             4691.00  4707.68

 Zero-point correction=                           0.276556 (Hartree/Particle)
 Thermal correction to Energy=                    0.288917
 Thermal correction to Enthalpy=                  0.289861
 Thermal correction to Gibbs Free Energy=         0.236210
 Sum of electronic and zero-point Energies=           -866.095025
 Sum of electronic and thermal Energies=              -866.082664
 Sum of electronic and thermal Enthalpies=            -866.081720
 Sum of electronic and thermal Free Energies=         -866.135370

                     E (Thermal)             CV                S
                      KCal/Mol        Cal/Mol-Kelvin    Cal/Mol-Kelvin
 Total                  181.298             48.904            112.917
 Electronic               0.000              0.000              0.000
 Translational            0.889              2.981             41.695
 Rotational               0.889              2.981             32.048
 Vibrational            179.521             42.943             39.174
 Vibration     1          0.593              1.985              6.471
 Vibration     2          0.595              1.978              4.837
 Vibration     3          0.596              1.977              4.724
 Vibration     4          0.608              1.936              3.163
 Vibration     5          0.621              1.895              2.586
 Vibration     6          0.637              1.843              2.150
 Vibration     7          0.655              1.786              1.834
 Vibration     8          0.683              1.702              1.504
 Vibration     9          0.710              1.623              1.278
 Vibration    10          0.725              1.582              1.180
 Vibration    11          0.768              1.465              0.954
 Vibration    12          0.791              1.405              0.859
 Vibration    13          0.808              1.363              0.799
 Vibration    14          0.816              1.342              0.771
 Vibration    15          0.843              1.278              0.690
 Vibration    16          0.891              1.171              0.575
 Vibration    17          0.916              1.118              0.524

 Optimization completed.
    -- Stationary point found.
 Normal termination of Gaussian 16 at Wed Dec  9 22:37:33 2020.

 ----------------------------------------------------------------------
 # B3LYP/6-311++G(d,p) empiricaldispersion=gd3bj scf=xqc pop=npa geom=c
 heck
 ----------------------------------------------------------------------

 --------------------------------------
 CID_56622078_JID_3164_Energie_neutraal
 --------------------------------------
 Structure from the checkpoint file:  "JID_3164.chk"
 Charge =  0 Multiplicity = 1

 SCF Done:  E(RB3LYP) =  -866.521483159     A.U. after   15 cycles
 Normal termination of Gaussian 16 at Wed Dec  9 22:42:16 2020.

 ----------------------------------------------------------------------
 # B3LYP/6-311++G(d,p) empiricaldispersion=gd3bj scf=xqc pop=npa geom=c
 heck
 ----------------------------------------------------------------------

 ------------------------------------
 CID_56622078_JID_3164_Energie_kation
 ------------------------------------
 Structure from the checkpoint file:  "JID_3164.chk"
 Charge =  1 Multiplicity = 2

 SCF Done:  E(UB3LYP) =  -866.214511104     A.U. after   29 cycles
 Normal termination of Gaussian 16 at Wed Dec  9 22:54:55 2020.
 Gaussian 16:  ES64L-G16RevA.03 25-Dec-2016

 ----------------------------------------------------------------------
 # B3LYP/6-311++G(d,p) empiricaldispersion=gd3bj scf=xqc pop=npa geom=c
 heck
 ----------------------------------------------------------------------

 -----------------------------------
 CID_56622078_JID_3164_Energie_anion
 -----------------------------------
 Structure from the checkpoint file:  "JID_3164.chk"
 Charge = -1 Multiplicity = 2

                         Standard orientation:
 ---------------------------------------------------------------------
 Center     Atomic      Atomic             Coordinates (Angstroms)
 Number     Number       Type             X           Y           Z
 ---------------------------------------------------------------------
      1          6           0       -3.862372   -0.946885   -0.109492
      2          6           0       -3.218062   -0.485786   -1.422933
      3          6           0       -2.346387    0.758381   -1.209687
      4          6           0       -1.272289    0.536082   -0.131389
      5          6           0       -1.932334    0.074365    1.178872
      6          6           0       -2.801511   -1.173760    0.974678
      7          6           0       -0.413985    1.795622    0.048186
      8          6           0        0.808630    1.640067    0.977440
      9          6           0        1.779531    0.584514    0.511192
     10          6           0        2.793537    0.811454   -0.382776
     11         16           0        3.683577   -0.631331   -0.757338
     12          6           0        2.682387   -1.568823    0.306200
     13          6           0        1.726626   -0.796111    0.902909
     14          1           0       -4.446277   -1.861781   -0.270054
     15          1           0       -4.569725   -0.177976    0.234625
     16          1           0       -2.593376   -1.297963   -1.822364
     17          1           0       -3.989332   -0.283844   -2.176707
     18          1           0       -2.986092    1.602027   -0.907811
     19          1           0       -1.867550    1.052137   -2.152886
     20          1           0       -0.616503   -0.275325   -0.480931
     21          1           0       -2.556000    0.893594    1.568940
     22          1           0       -1.172917   -0.126242    1.944126
     23          1           0       -3.277134   -1.462365    1.920410
     24          1           0       -2.156824   -2.014071    0.677929
     25          1           0       -0.054180    2.118406   -0.938084
     26          1           0       -1.045721    2.609504    0.432508
     27          1           0        1.321660    2.607101    1.037151
     28          1           0        0.476517    1.406490    1.995700
     29          1           0        3.069103    1.750661   -0.843953
     30          1           0        2.863623   -2.627538    0.431059
     31          1           0        1.000878   -1.186229    1.608536
 ---------------------------------------------------------------------

 SCF Done:  E(UB3LYP) =  -866.504460332     A.U. after   33 cycles
 SCF Done:  E(UB3LYP) =  -866.504460332     a.u. after    1 cycles

 The electronic state is 2-A.
 Alpha  occ. eigenvalues --  -88.78153 -10.10382 -10.09709 -10.08547 -10.07961
 Alpha  occ. eigenvalues --  -10.07442 -10.06668 -10.06562 -10.06424 -10.06281
 Alpha  occ. eigenvalues --  -10.06241 -10.06140 -10.06013  -7.86765  -5.83044
 Alpha  occ. eigenvalues --   -5.82683  -5.82382  -0.78653  -0.73772  -0.69362
 Alpha  occ. eigenvalues --   -0.65056  -0.64038  -0.63301  -0.60073  -0.53484
 Alpha  occ. eigenvalues --   -0.50849  -0.48162  -0.47227  -0.45362  -0.44408
 Alpha  occ. eigenvalues --   -0.39790  -0.37434  -0.35870  -0.34547  -0.33632
 Alpha  occ. eigenvalues --   -0.32694  -0.31961  -0.30785  -0.30028  -0.28515
 Alpha  occ. eigenvalues --   -0.28001  -0.27491  -0.26742  -0.25266  -0.24863
 Alpha  occ. eigenvalues --   -0.24285  -0.23855  -0.22852  -0.21620  -0.19890
 Alpha  occ. eigenvalues --   -0.19634  -0.15516  -0.14025   0.04518
 Alpha virt. eigenvalues --    0.06283   0.06603   0.07276   0.07417   0.08032
 Alpha virt. eigenvalues --    0.08833   0.09137   0.09539   0.10333   0.10681
 Alpha virt. eigenvalues --    0.11191   0.11615   0.11833   0.12364   0.12909

  Beta  occ. eigenvalues --  -88.78151 -10.10373 -10.09678 -10.08546 -10.07946
  Beta  occ. eigenvalues --  -10.07424 -10.06666 -10.06548 -10.06412 -10.06264
  Beta  occ. eigenvalues --  -10.06230 -10.06122 -10.05994  -7.86763  -5.83042
  Beta  occ. eigenvalues --   -5.82680  -5.82379  -0.78631  -0.73747  -0.69332
  Beta  occ. eigenvalues --   -0.65031  -0.64005  -0.63265  -0.60037  -0.53443
  Beta  occ. eigenvalues --   -0.50801  -0.48116  -0.47188  -0.45314  -0.44355
  Beta  occ. eigenvalues --   -0.39744  -0.37381  -0.35846  -0.34517  -0.33607
  Beta  occ. eigenvalues --   -0.32660  -0.31920  -0.30750  -0.30001  -0.28481
  Beta  occ. eigenvalues --   -0.27970  -0.27458  -0.26719  -0.25231  -0.24836
  Beta  occ. eigenvalues --   -0.24253  -0.23824  -0.22823  -0.21589  -0.19857
  Beta  occ. eigenvalues --   -0.19604  -0.15495  -0.13983
  Beta virt. eigenvalues --    0.06646   0.07167   0.07298   0.07532   0.08000
  Beta virt. eigenvalues --    0.08501   0.09193   0.09707   0.09882   0.10584
  Beta virt. eigenvalues --    0.11049   0.11446   0.11927   0.12042   0.12830

 Mulliken charges and spin densities:
               1          2
     1  C    0.416345  -0.855845
     2  C   -0.207735  -0.108266
     3  C    0.298956  -0.640917
     4  C   -0.485862   0.876449
     5  C   -0.390240   0.015649
     6  C    0.312233  -0.644487
     7  C    0.690231  -1.160192
     8  C    2.536019  -3.175423
     9  C    0.215458  -0.352029
    10  C   -0.638493   1.076745
    11  S    0.395767  -0.758163
    12  C    1.187523  -1.622385
    13  C   -2.355958   2.431486
    14  H   -0.360570   0.532305
    15  H    0.116351  -0.008670
    16  H    0.036310   0.082388
    17  H   -0.215918   0.388233
    18  H   -0.122489   0.260490
    19  H    0.053842   0.090578
    20  H    0.207524  -0.030484
    21  H   -0.261945   0.431526
    22  H    0.235015  -0.118359
    23  H   -0.405631   0.573198
    24  H    0.103723   0.013509
    25  H    0.008442   0.116102
    26  H    0.036222   0.091542
    27  H   -0.450958   0.650867
    28  H   -0.056057   0.211673
    29  H   -0.804219   1.087535
    30  H   -0.351595   0.614874
    31  H   -0.742293   0.930072
 Sum of Mulliken charges =  -1.00000   1.00000

 Dipole moment (field-independent basis, Debye):
    X=              1.7032    Y=             -0.4929    Z=             -1.6609  Tot=              2.4295
 Quadrupole moment (field-independent basis, Debye-Ang):
   XX=           -163.2050   YY=           -138.5407   ZZ=           -127.7328
   XY=            -10.9531   XZ=             -0.4202   YZ=              4.2668

 Summary of Natural Population Analysis:

                                       Natural Population
                Natural  -----------------------------------------------
    Atom  No    Charge         Core      Valence    Rydberg      Total
 -----------------------------------------------------------------------
      C    1   -0.18843      0.99963     2.18095    0.00785     3.18843
      C    2   -0.18859      0.99963     2.18089    0.00807     3.18859
      C    3   -0.18517      0.99961     2.17745    0.00811     3.18517
      C    4   -0.11618      0.99958     2.10754    0.00906     3.11618
      C    5   -0.18898      0.99961     2.18048    0.00890     3.18898
      C    6   -0.18834      0.99963     2.17996    0.00875     3.18834
      C    7   -0.17814      0.99960     2.16913    0.00941     3.17814
      C    8   -0.19584      0.99959     2.18666    0.00960     3.19584
      C    9   -0.04047      0.99948     2.02902    0.01197     3.04047
      C   10   -0.18962      0.99945     2.17849    0.01168     3.18962
      S   11    0.19354      4.99945     2.78573    0.02128     7.80646
      C   12   -0.19480      0.99954     2.18321    0.01206     3.19480
      C   13   -0.12341      0.99948     2.11367    0.01025     3.12341
      H   14    0.09803      0.00000     0.40079    0.00118     0.40197
      H   15    0.09148      0.00000     0.40720    0.00132     0.40852
      H   16    0.09233      0.00000     0.40633    0.00134     0.40767
      H   17    0.09691      0.00000     0.40209    0.00100     0.40309
      H   18    0.09235      0.00000     0.40630    0.00134     0.40765
      H   19    0.09826      0.00000     0.40076    0.00098     0.40174
      H   20    0.09705      0.00000     0.40050    0.00245     0.40295
      H   21    0.09271      0.00000     0.40582    0.00147     0.40729
      H   22    0.09878      0.00000     0.39965    0.00157     0.40122
      H   23    0.09868      0.00000     0.40011    0.00121     0.40132
      H   24    0.09270      0.00000     0.40567    0.00163     0.40730
      H   25    0.09688      0.00000     0.40163    0.00149     0.40312
      H   26    0.09623      0.00000     0.40255    0.00122     0.40377
      H   27    0.10607      0.00000     0.39236    0.00156     0.39393
      H   28    0.10211      0.00000     0.39636    0.00153     0.39789
      H   29    0.11231      0.00000     0.38578    0.00191     0.38769
      H   30    0.11073      0.00000     0.38810    0.00117     0.38927
      H   31    0.11081      0.00000     0.38769    0.00150     0.38919
 =======================================================================
   * Total *   -0.00000     16.99428    35.84284    0.16288    53.00000

 Normal termination of Gaussian 16 at Wed Dec  9 23:09:30 2020.
