 Gaussian 16, Revision A.03,

 -----------------------------------------------------------
 # opt freq B3LYP/6-31G(d) empiricaldispersion=gd3bj scf=xqc
 -----------------------------------------------------------

 ------------------------------
 CID_82376645_JID_6815_neutraal
 ------------------------------
 Symbolic Z-matrix:
 Charge =  0 Multiplicity = 1

 SCF Done:  E(RB3LYP) =  -1067.10659438     A.U. after   15 cycles
 SCF Done:  E(RB3LYP) =  -1067.11514450     A.U. after   13 cycles
 SCF Done:  E(RB3LYP) =  -1067.11622583     A.U. after   12 cycles
 SCF Done:  E(RB3LYP) =  -1067.11733157     A.U. after   12 cycles
 SCF Done:  E(RB3LYP) =  -1067.11762474     A.U. after   12 cycles
 SCF Done:  E(RB3LYP) =  -1067.11766466     A.U. after   12 cycles
 SCF Done:  E(RB3LYP) =  -1067.11778075     A.U. after   11 cycles
 SCF Done:  E(RB3LYP) =  -1067.11779488     A.U. after   10 cycles
 SCF Done:  E(RB3LYP) =  -1067.11780604     A.U. after   10 cycles
 SCF Done:  E(RB3LYP) =  -1067.11780901     A.U. after    9 cycles
 SCF Done:  E(RB3LYP) =  -1067.11781022     A.U. after    9 cycles
 SCF Done:  E(RB3LYP) =  -1067.11781073     A.U. after    8 cycles
 SCF Done:  E(RB3LYP) =  -1067.11781085     A.U. after    7 cycles
 SCF Done:  E(RB3LYP) =  -1067.11781087     A.U. after    7 cycles
 Optimization completed.
    -- Stationary point found.
 Normal termination of Gaussian 16 at Fri Dec 11 00:41:35 2020.

 --------------------------------------------------------------------
 #N Geom=AllCheck Guess=TCheck SCRF=Check GenChk RB3LYP/6-31G(d) Freq
 --------------------------------------------------------------------

 Structure from the checkpoint file:  "JID_6815.chk"
 ------------------------------
 CID_82376645_JID_6815_neutraal
 ------------------------------
 Charge =  0 Multiplicity = 1

 SCF Done:  E(RB3LYP) =  -1067.11781087     A.U. after    1 cycles

  Exact polarizability: 183.388  14.596 158.873  19.253  -5.101 109.862
 Approx polarizability: 259.426  17.421 244.079  47.847 -19.760 179.901

                      1                      2                      3
                      A                      A                      A
 Frequencies --     34.8861                45.4159                61.1722
 Red. masses --      4.7499                 3.4159                 3.3773
 Frc consts  --      0.0034                 0.0042                 0.0074
 IR Inten    --      0.0362                 0.6440                 0.9999

                      4                      5                      6
                      A                      A                      A
 Frequencies --     81.1961                90.5572               160.2864
 Red. masses --      3.7859                 3.4986                 3.4570
 Frc consts  --      0.0147                 0.0169                 0.0523
 IR Inten    --      2.9338                 0.6836                 0.6505

                      7                      8                      9
                      A                      A                      A
 Frequencies --    200.3560               216.0872               224.3744
 Red. masses --      2.7588                 5.8734                 1.3016
 Frc consts  --      0.0652                 0.1616                 0.0386
 IR Inten    --      2.5003                 2.7265                 0.2935

                     10                     11                     12
                      A                      A                      A
 Frequencies --    242.0199               267.1099               293.1463
 Red. masses --      3.4354                 1.1676                 1.1469
 Frc consts  --      0.1186                 0.0491                 0.0581
 IR Inten    --      0.8008                 0.9464                 1.4848

                     13                     14                     15
                      A                      A                      A
 Frequencies --    307.4897               331.9994               357.1786
 Red. masses --      2.5774                 5.7339                 3.0711
 Frc consts  --      0.1436                 0.3724                 0.2308
 IR Inten    --      3.0600                 6.2348                 1.2373

                     16                     17                     18
                      A                      A                      A
 Frequencies --    366.1683               376.6714               395.0430
 Red. masses --      2.3329                 2.9482                 4.2673
 Frc consts  --      0.1843                 0.2465                 0.3924
 IR Inten    --      3.6785                 3.7399                 2.2404

                     19                     20                     21
                      A                      A                      A
 Frequencies --    441.7405               473.1751               485.9017
 Red. masses --      3.7135                 2.9872                 2.2741
 Frc consts  --      0.4269                 0.3941                 0.3163
 IR Inten    --      2.3063                 0.9043                 4.8079

                     22                     23                     24
                      A                      A                      A
 Frequencies --    498.6406               559.0837               576.7933
 Red. masses --      2.8878                 5.7388                 3.2481
 Frc consts  --      0.4231                 1.0569                 0.6367
 IR Inten    --      9.0622                11.3522                41.7809

                     25                     26                     27
                      A                      A                      A
 Frequencies --    585.1618               595.8830               625.4558
 Red. masses --      4.3167                 3.3970                 1.2906
 Frc consts  --      0.8709                 0.7107                 0.2975
 IR Inten    --     14.4434                10.8061                 3.7247

                     28                     29                     30
                      A                      A                      A
 Frequencies --    655.7206               728.8529               732.9338
 Red. masses --      2.4767                 5.7221                 3.8246
 Frc consts  --      0.6274                 1.7909                 1.2105
 IR Inten    --     33.6239                24.9612                14.0862

                     31                     32                     33
                      A                      A                      A
 Frequencies --    796.3416               814.5991               854.2359
 Red. masses --      1.2700                 2.7383                 5.1106
 Frc consts  --      0.4745                 1.0706                 2.1972
 IR Inten    --     54.4943                23.9037                13.8069

                     34                     35                     36
                      A                      A                      A
 Frequencies --    861.2502               885.4291               896.8063
 Red. masses --      4.2040                 3.3868                 3.7616
 Frc consts  --      1.8372                 1.5644                 1.7825
 IR Inten    --     20.6459                 9.2943                14.7340

                     37                     38                     39
                      A                      A                      A
 Frequencies --    924.6634               991.1526              1011.1979
 Red. masses --      2.3391                 2.2176                 2.1615
 Frc consts  --      1.1783                 1.2835                 1.3022
 IR Inten    --      2.1105                27.8364                18.9384

                     40                     41                     42
                      A                      A                      A
 Frequencies --   1042.3989              1059.5097              1064.6044
 Red. masses --      1.8182                 1.6932                 2.0827
 Frc consts  --      1.1640                 1.1198                 1.3907
 IR Inten    --     13.9690                 4.9295                39.2549

                     43                     44                     45
                      A                      A                      A
 Frequencies --   1077.4368              1084.6423              1102.7465
 Red. masses --      1.6649                 2.2585                 2.1990
 Frc consts  --      1.1387                 1.5655                 1.5755
 IR Inten    --     12.3921                 7.8275                23.2622

                     46                     47                     48
                      A                      A                      A
 Frequencies --   1135.3797              1153.0165              1187.1317
 Red. masses --      1.2804                 1.7529                 1.3689
 Frc consts  --      0.9725                 1.3731                 1.1367
 IR Inten    --      5.1044                25.3491                 6.5137

                     49                     50                     51
                      A                      A                      A
 Frequencies --   1204.0894              1223.1304              1234.8793
 Red. masses --      1.5655                 1.8011                 2.8703
 Frc consts  --      1.3373                 1.5876                 2.5789
 IR Inten    --     12.4097                21.5225                39.1927

                     52                     53                     54
                      A                      A                      A
 Frequencies --   1250.8123              1286.5171              1291.4423
 Red. masses --      3.0589                 1.3014                 1.8275
 Frc consts  --      2.8196                 1.2691                 1.7958
 IR Inten    --     69.2785                46.9154                 1.6792

                     55                     56                     57
                      A                      A                      A
 Frequencies --   1315.0111              1344.1969              1362.2637
 Red. masses --      2.2658                 1.8674                 1.4028
 Frc consts  --      2.3085                 1.9880                 1.5338
 IR Inten    --     14.6968                96.2058                30.3848

                     58                     59                     60
                      A                      A                      A
 Frequencies --   1395.5243              1411.9001              1430.3731
 Red. masses --      1.6107                 1.3138                 1.6177
 Frc consts  --      1.8482                 1.5430                 1.9501
 IR Inten    --     79.3199                 6.8828                30.6803

                     61                     62                     63
                      A                      A                      A
 Frequencies --   1441.2738              1456.1195              1468.2771
 Red. masses --      1.5856                 2.3023                 1.1876
 Frc consts  --      1.9407                 2.8761                 1.5085
 IR Inten    --     59.9282                43.4243                 2.7031

                     64                     65                     66
                      A                      A                      A
 Frequencies --   1493.5019              1499.1963              1507.7480
 Red. masses --      2.0029                 1.1778                 1.0785
 Frc consts  --      2.6322                 1.5596                 1.4445
 IR Inten    --     46.6474                 1.1171                 5.4490

                     67                     68                     69
                      A                      A                      A
 Frequencies --   1511.5251              1514.6651              1520.9211
 Red. masses --      1.0881                 1.0507                 1.0795
 Frc consts  --      1.4647                 1.4203                 1.4713
 IR Inten    --      8.8724                17.0884                 7.8420

                     70                     71                     72
                      A                      A                      A
 Frequencies --   1526.9281              1533.1960              1536.3653
 Red. masses --      1.1120                 1.0602                 1.2605
 Frc consts  --      1.5276                 1.4684                 1.7531
 IR Inten    --     14.9146                 9.8020                15.4921

                     73                     74                     75
                      A                      A                      A
 Frequencies --   1541.4265              1544.1989              1645.8373
 Red. masses --      1.6033                 1.4373                 6.6900
 Frc consts  --      2.2445                 2.0194                10.6769
 IR Inten    --     25.9585                75.9756                48.4808

                     76                     77                     78
                      A                      A                      A
 Frequencies --   1765.5668              2918.8505              2932.0510
 Red. masses --     10.2459                 1.0633                 1.0711
 Frc consts  --     18.8178                 5.3372                 5.4253
 IR Inten    --    214.6306                58.6399                36.2390

                     79                     80                     81
                      A                      A                      A
 Frequencies --   2948.4028              3056.8131              3057.5181
 Red. masses --      1.0625                 1.0574                 1.0562
 Frc consts  --      5.4420                 5.8215                 5.8174
 IR Inten    --    109.5325                12.2565                20.0089

                     82                     83                     84
                      A                      A                      A
 Frequencies --   3077.9099              3080.4636              3083.6630
 Red. masses --      1.0848                 1.0763                 1.0821
 Frc consts  --      6.0549                 6.0173                 6.0626
 IR Inten    --     32.5129                13.9645                39.8763

                     85                     86                     87
                      A                      A                      A
 Frequencies --   3090.3632              3118.5741              3125.3086
 Red. masses --      1.0694                 1.1010                 1.1043
 Frc consts  --      6.0177                 6.3088                 6.3553
 IR Inten    --     37.5757                10.8993                20.7734

                     88                     89                     90
                      A                      A                      A
 Frequencies --   3130.2463              3178.6814              3209.4165
 Red. masses --      1.1032                 1.0995                 1.0898
 Frc consts  --      6.3687                 6.5454                 6.6135
 IR Inten    --     54.1713                 6.7158                10.9061

                     91                     92                     93
                      A                      A                      A
 Frequencies --   3268.4872              3346.2389              3558.9533
 Red. masses --      1.0935                 1.0938                 1.0753
 Frc consts  --      6.8829                 7.2159                 8.0250
 IR Inten    --      2.7227                13.5150                 3.7484

 - Thermochemistry -
 -------------------
 Temperature   298.150 Kelvin.  Pressure   1.00000 Atm.
 Atom     1 has atomic number  6 and mass  12.00000

 Molecular mass:   239.10923 amu.
 Principal axes and moments of inertia in atomic units:
                           1         2         3
     Eigenvalues --  2755.033195156.112186815.85194
           X            0.99994  -0.00217  -0.01102
           Y            0.00237   0.99983   0.01853
           Z            0.01098  -0.01856   0.99977
 This molecule is an asymmetric top.
 Rotational symmetry number  1.
 Warning -- assumption of classical behavior for rotation
           may cause significant error
 Rotational temperatures (Kelvin)      0.03144     0.01680     0.01271
 Rotational constants (GHZ):           0.65507     0.35002     0.26479
 Zero-point vibrational energy     732066.0 (Joules/Mol)
                                  174.96797 (Kcal/Mol)
 Warning -- explicit consideration of  26 degrees of freedom as
           vibrations may cause significant error
 Vibrational temperatures:     50.19    65.34    88.01   116.82   130.29
          (Kelvin)            230.62   288.27   310.90   322.82   348.21
                              384.31   421.77   442.41   477.67   513.90
                              526.83   541.95   568.38   635.57   680.79
                              699.10   717.43   804.40   829.88   841.92
                              857.34   899.89   943.44  1048.66  1054.53
                             1145.76  1172.03  1229.05  1239.15  1273.94
                             1290.30  1330.38  1426.05  1454.89  1499.78
                             1524.40  1531.73  1550.19  1560.56  1586.61
                             1633.56  1658.93  1708.02  1732.42  1759.81
                             1776.72  1799.64  1851.01  1858.10  1892.01
                             1934.00  1959.99  2007.85  2031.41  2057.99
                             2073.67  2095.03  2112.52  2148.82  2157.01
                             2169.31  2174.75  2179.27  2188.27  2196.91
                             2205.93  2210.49  2217.77  2221.76  2367.99
                             2540.26  4199.57  4218.57  4242.09  4398.07
                             4399.09  4428.43  4432.10  4436.70  4446.34
                             4486.93  4496.62  4503.73  4573.41  4617.63
                             4702.62  4814.49  5120.54

 Zero-point correction=                           0.278829 (Hartree/Particle)
 Thermal correction to Energy=                    0.294570
 Thermal correction to Enthalpy=                  0.295514
 Thermal correction to Gibbs Free Energy=         0.235347
 Sum of electronic and zero-point Energies=          -1066.838982
 Sum of electronic and thermal Energies=             -1066.823241
 Sum of electronic and thermal Enthalpies=           -1066.822297
 Sum of electronic and thermal Free Energies=        -1066.882464

                     E (Thermal)             CV                S
                      KCal/Mol        Cal/Mol-Kelvin    Cal/Mol-Kelvin
 Total                  184.846             60.738            126.634
 Electronic               0.000              0.000              0.000
 Translational            0.889              2.981             42.317
 Rotational               0.889              2.981             32.937
 Vibrational            183.068             54.777             51.380
 Vibration     1          0.594              1.983              5.530
 Vibration     2          0.595              1.979              5.008
 Vibration     3          0.597              1.973              4.419
 Vibration     4          0.600              1.962              3.862
 Vibration     5          0.602              1.956              3.648
 Vibration     6          0.622              1.891              2.546
 Vibration     7          0.638              1.839              2.130
 Vibration     8          0.645              1.817              1.992
 Vibration     9          0.649              1.804              1.924
 Vibration    10          0.658              1.776              1.788
 Vibration    11          0.672              1.733              1.615
 Vibration    12          0.688              1.687              1.456
 Vibration    13          0.697              1.659              1.376
 Vibration    14          0.714              1.612              1.250
 Vibration    15          0.732              1.561              1.134
 Vibration    16          0.739              1.542              1.096
 Vibration    17          0.747              1.520              1.053
 Vibration    18          0.762              1.481              0.981
 Vibration    19          0.802              1.379              0.821
 Vibration    20          0.830              1.310              0.729
 Vibration    21          0.842              1.281              0.694
 Vibration    22          0.854              1.253              0.662
 Vibration    23          0.915              1.120              0.526
 Vibration    24          0.933              1.081              0.491
 Vibration    25          0.942              1.063              0.476
 Vibration    26          0.954              1.041              0.457

 Optimization completed.
    -- Stationary point found.
 Normal termination of Gaussian 16 at Fri Dec 11 00:53:04 2020.

 ----------------------------------------------------------------------
 # B3LYP/6-311++G(d,p) empiricaldispersion=gd3bj scf=xqc pop=npa geom=c
 heck
 ----------------------------------------------------------------------

 --------------------------------------
 CID_82376645_JID_6815_Energie_neutraal
 --------------------------------------
 Structure from the checkpoint file:  "JID_6815.chk"
 Charge =  0 Multiplicity = 1

 SCF Done:  E(RB3LYP) =  -1067.33111309     A.U. after   17 cycles
 Normal termination of Gaussian 16 at Fri Dec 11 00:58:31 2020.

 ----------------------------------------------------------------------
 # B3LYP/6-311++G(d,p) empiricaldispersion=gd3bj scf=xqc pop=npa geom=c
 heck
 ----------------------------------------------------------------------

 ------------------------------------
 CID_82376645_JID_6815_Energie_kation
 ------------------------------------
 Structure from the checkpoint file:  "JID_6815.chk"
 Charge =  1 Multiplicity = 2

 SCF Done:  E(UB3LYP) =  -1067.06381551     A.U. after   27 cycles
 Normal termination of Gaussian 16 at Fri Dec 11 01:10:11 2020.
 Gaussian 16:  ES64L-G16RevA.03 25-Dec-2016

 ----------------------------------------------------------------------
 # B3LYP/6-311++G(d,p) empiricaldispersion=gd3bj scf=xqc pop=npa geom=c
 heck
 ----------------------------------------------------------------------

 -----------------------------------
 CID_82376645_JID_6815_Energie_anion
 -----------------------------------
 Structure from the checkpoint file:  "JID_6815.chk"
 Charge = -1 Multiplicity = 2

                         Standard orientation:
 ---------------------------------------------------------------------
 Center     Atomic      Atomic             Coordinates (Angstroms)
 Number     Number       Type             X           Y           Z
 ---------------------------------------------------------------------
      1          6           0        0.784570    3.290799    0.175822
      2          6           0       -0.391734    2.381585   -0.154339
      3          8           0       -1.294601    2.775112   -0.881760
      4          7           0       -0.388534    1.110871    0.394051
      5          6           0        0.636936    0.660425    1.343300
      6          6           0        1.053129   -0.788988    1.061546
      7          7           0       -0.140996   -1.604788    1.276140
      8          6           0       -1.275609   -1.191759    0.563664
      9          6           0       -2.351953   -1.966901    0.225138
     10         16           0       -3.572720   -1.044377   -0.600473
     11          6           0       -2.623839    0.402996   -0.501868
     12          6           0       -1.431559    0.183992    0.141175
     13          6           0        1.705058   -0.976455   -0.332004
     14          7           0        3.162618   -1.080352   -0.274288
     15          6           0        3.696065   -1.516601   -1.558596
     16          6           0        3.797180    0.159165    0.148108
     17          1           0        0.597594    4.240230   -0.326033
     18          1           0        1.734855    2.881319   -0.185772
     19          1           0        0.881892    3.470760    1.251946
     20          1           0        0.249941    0.722219    2.367888
     21          1           0        1.501736    1.311307    1.261632
     22          1           0        1.788146   -1.086573    1.817258
     23          1           0        0.036653   -2.600265    1.201472
     24          1           0       -2.494588   -3.019071    0.427005
     25          1           0       -2.970554    1.324593   -0.933427
     26          1           0        1.328639   -1.912039   -0.758988
     27          1           0        1.376463   -0.169133   -1.016309
     28          1           0        3.494458   -0.801022   -2.379371
     29          1           0        4.780426   -1.646999   -1.480084
     30          1           0        3.254458   -2.480191   -1.832953
     31          1           0        3.549365    1.019112   -0.507874
     32          1           0        3.505485    0.412848    1.171548
     33          1           0        4.884269    0.032381    0.140725
 ---------------------------------------------------------------------

 SCF Done:  E(UB3LYP) =  -1067.32282086     A.U. after   33 cycles
 SCF Done:  E(UB3LYP) =  -1067.32282086     a.u. after    1 cycles

 The electronic state is 2-A.
 Alpha  occ. eigenvalues --  -88.78184 -19.00427 -14.27262 -14.23227 -14.21592
 Alpha  occ. eigenvalues --  -10.19063 -10.12828 -10.12528 -10.12392 -10.12302
 Alpha  occ. eigenvalues --  -10.10142 -10.10054 -10.09567 -10.09333 -10.09149
 Alpha  occ. eigenvalues --  -10.08595  -7.86780  -5.83081  -5.82723  -5.82354
 Alpha  occ. eigenvalues --   -0.95811  -0.88291  -0.83813  -0.82907  -0.77975
 Alpha  occ. eigenvalues --   -0.68344  -0.66909  -0.63215  -0.61928  -0.61570
 Alpha  occ. eigenvalues --   -0.60897  -0.53425  -0.52666  -0.49821  -0.48401
 Alpha  occ. eigenvalues --   -0.44314  -0.41897  -0.41201  -0.40061  -0.39449
 Alpha  occ. eigenvalues --   -0.37645  -0.37523  -0.36974  -0.34166  -0.33923
 Alpha  occ. eigenvalues --   -0.33134  -0.32223  -0.31513  -0.30907  -0.30361
 Alpha  occ. eigenvalues --   -0.30002  -0.29358  -0.28751  -0.27644  -0.27248
 Alpha  occ. eigenvalues --   -0.26873  -0.26123  -0.25992  -0.21227  -0.20565
 Alpha  occ. eigenvalues --   -0.17205  -0.13318  -0.12617  -0.11039   0.03895
 Alpha virt. eigenvalues --    0.05991   0.06776   0.06893   0.07766   0.08323
 Alpha virt. eigenvalues --    0.08780   0.09094   0.09558   0.09874   0.10257
 Alpha virt. eigenvalues --    0.10572   0.11125   0.11932   0.12044   0.12560

  Beta  occ. eigenvalues --  -88.78183 -19.00424 -14.27261 -14.23201 -14.21577
  Beta  occ. eigenvalues --  -10.19062 -10.12825 -10.12527 -10.12369 -10.12291
  Beta  occ. eigenvalues --  -10.10129 -10.10048 -10.09555 -10.09304 -10.09100
  Beta  occ. eigenvalues --  -10.08558  -7.86779  -5.83079  -5.82721  -5.82351
  Beta  occ. eigenvalues --   -0.95805  -0.88274  -0.83786  -0.82876  -0.77959
  Beta  occ. eigenvalues --   -0.68315  -0.66876  -0.63186  -0.61897  -0.61507
  Beta  occ. eigenvalues --   -0.60855  -0.53378  -0.52644  -0.49754  -0.48358
  Beta  occ. eigenvalues --   -0.44272  -0.41863  -0.41160  -0.40030  -0.39412
  Beta  occ. eigenvalues --   -0.37610  -0.37489  -0.36943  -0.34129  -0.33892
  Beta  occ. eigenvalues --   -0.33110  -0.32197  -0.31483  -0.30883  -0.30335
  Beta  occ. eigenvalues --   -0.29967  -0.29327  -0.28719  -0.27610  -0.27213
  Beta  occ. eigenvalues --   -0.26836  -0.26108  -0.25959  -0.21207  -0.20548
  Beta  occ. eigenvalues --   -0.17191  -0.13265  -0.12584  -0.11016
  Beta virt. eigenvalues --    0.06292   0.06875   0.07070   0.07474   0.08289
  Beta virt. eigenvalues --    0.08795   0.09038   0.09409   0.09826   0.10438
  Beta virt. eigenvalues --    0.10515   0.10946   0.11386   0.12236   0.12381

 Mulliken charges and spin densities:
               1          2
     1  C    0.975456  -1.535061
     2  C   -0.646710   0.748792
     3  O   -0.330229   0.004361
     4  N    0.101244   0.025045
     5  C    0.242829  -0.569212
     6  C   -0.151015   0.248826
     7  N   -0.004292   0.019622
     8  C   -0.338716  -0.378427
     9  C    0.540614  -0.084682
    10  S   -0.428829  -0.102523
    11  C   -0.536379   0.473841
    12  C    0.171833  -0.102070
    13  C   -0.428414  -0.609017
    14  N   -0.075159   0.251689
    15  C    0.579375  -0.840372
    16  C    0.771066  -1.166251
    17  H    0.018419   0.171112
    18  H   -0.160054   0.319717
    19  H   -0.344132   0.519848
    20  H   -0.244049   0.474655
    21  H    0.774539  -0.610183
    22  H   -0.288423   0.548801
    23  H   -0.120992   0.379583
    24  H   -0.198121   0.435012
    25  H    0.286769   0.023234
    26  H    0.120532   0.080911
    27  H    0.277708  -0.086947
    28  H   -0.101633   0.207162
    29  H   -0.083794   0.220118
    30  H   -0.304144   0.431292
    31  H    0.030333   0.092286
    32  H   -0.665134   0.806384
    33  H   -0.440496   0.602452
 Sum of Mulliken charges =  -1.00000   1.00000

 Dipole moment (field-independent basis, Debye):
    X=             -5.6974    Y=             -0.0304    Z=             -1.6251  Tot=              5.9247
 Quadrupole moment (field-independent basis, Debye-Ang):
   XX=           -178.5588   YY=           -159.2128   ZZ=           -143.7775
   XY=              2.4027   XZ=             -4.9615   YZ=             -0.1635

 Summary of Natural Population Analysis:

                                       Natural Population
                Natural  -----------------------------------------------
    Atom  No    Charge         Core      Valence    Rydberg      Total
 -----------------------------------------------------------------------
      C    1   -0.33275      0.99963     2.32805    0.00507     3.33275
      C    2    0.34742      0.99968     1.63087    0.02203     2.65258
      O    3   -0.31923      0.99987     3.31369    0.00567     4.31923
      N    4   -0.24515      0.99960     2.73609    0.00947     3.74515
      C    5   -0.08642      0.99958     2.07583    0.01101     3.08642
      C    6   -0.02013      0.99958     2.00631    0.01424     3.02013
      N    7   -0.31415      0.99968     2.80312    0.01135     3.81415
      C    8    0.05631      0.99942     1.93205    0.01222     2.94369
      C    9   -0.22585      0.99948     2.21427    0.01210     3.22585
      S   10    0.19142      4.99948     2.78566    0.02345     7.80858
      C   11   -0.19601      0.99950     2.18703    0.00949     3.19601
      C   12    0.04513      0.99940     1.94367    0.01180     2.95487
      C   13   -0.09204      0.99958     2.08026    0.01220     3.09204
      N   14   -0.27549      0.99974     2.76228    0.01348     3.77549
      C   15   -0.17378      0.99964     2.16699    0.00714     3.17378
      C   16   -0.17985      0.99964     2.17044    0.00978     3.17985
      H   17    0.11390      0.00000     0.38529    0.00081     0.38610
      H   18    0.11174      0.00000     0.38683    0.00143     0.38826
      H   19    0.11128      0.00000     0.38744    0.00128     0.38872
      H   20    0.10212      0.00000     0.39642    0.00146     0.39788
      H   21    0.11233      0.00000     0.38556    0.00211     0.38767
      H   22    0.10994      0.00000     0.38757    0.00249     0.39006
      H   23    0.18938      0.00000     0.30675    0.00387     0.31062
      H   24    0.11089      0.00000     0.38800    0.00111     0.38911
      H   25    0.12875      0.00000     0.37031    0.00093     0.37125
      H   26    0.10105      0.00000     0.39715    0.00180     0.39895
      H   27    0.08321      0.00000     0.41485    0.00194     0.41679
      H   28    0.07915      0.00000     0.41923    0.00162     0.42085
      H   29    0.09619      0.00000     0.40249    0.00132     0.40381
      H   30    0.09616      0.00000     0.40234    0.00150     0.40384
      H   31    0.07889      0.00000     0.41936    0.00175     0.42111
      H   32    0.09565      0.00000     0.40205    0.00230     0.40435
      H   33    0.09994      0.00000     0.39851    0.00155     0.40006
 =======================================================================
   * Total *   -0.00000     19.99349    43.78673    0.21977    64.00000

 Normal termination of Gaussian 16 at Fri Dec 11 01:24:29 2020.
