 Gaussian 16, Revision A.03,

 -----------------------------------------------------------
 # opt freq B3LYP/6-31G(d) empiricaldispersion=gd3bj scf=xqc
 -----------------------------------------------------------

 -----------------------------
 CID_14452008_JID_382_neutraal
 -----------------------------
 Symbolic Z-matrix:
 Charge =  0 Multiplicity = 1

 SCF Done:  E(RB3LYP) =  -456.277189471     A.U. after   15 cycles
 SCF Done:  E(RB3LYP) =  -456.280207521     A.U. after   13 cycles
 SCF Done:  E(RB3LYP) =  -456.279756274     A.U. after   13 cycles
 SCF Done:  E(RB3LYP) =  -456.280664061     A.U. after   11 cycles
 SCF Done:  E(RB3LYP) =  -456.280729026     A.U. after   11 cycles
 SCF Done:  E(RB3LYP) =  -456.280759204     A.U. after   11 cycles
 SCF Done:  E(RB3LYP) =  -456.280762164     A.U. after   10 cycles
 SCF Done:  E(RB3LYP) =  -456.280762703     A.U. after    8 cycles
 SCF Done:  E(RB3LYP) =  -456.280762769     A.U. after    7 cycles
 Optimization completed.
    -- Stationary point found.
 Normal termination of Gaussian 16 at Tue Dec  8 10:28:37 2020.

 --------------------------------------------------------------------
 #N Geom=AllCheck Guess=TCheck SCRF=Check GenChk RB3LYP/6-31G(d) Freq
 --------------------------------------------------------------------

 Structure from the checkpoint file:  "JID_382.chk"
 -----------------------------
 CID_14452008_JID_382_neutraal
 -----------------------------
 Charge =  0 Multiplicity = 1

 SCF Done:  E(RB3LYP) =  -456.280762769     A.U. after    1 cycles

  Exact polarizability: 113.150   2.637  87.446  -5.085   5.237  46.924
 Approx polarizability: 162.925  12.736 163.860  -9.817  15.199  71.151

                      1                      2                      3
                      A                      A                      A
 Frequencies --     56.2939                74.4310               142.0087
 Red. masses --      5.0068                 2.6201                 5.3659
 Frc consts  --      0.0093                 0.0086                 0.0638
 IR Inten    --     10.2347                 0.5393                 0.4410

                      4                      5                      6
                      A                      A                      A
 Frequencies --    188.9473               230.4219               251.5561
 Red. masses --      1.9272                 1.8736                 2.4025
 Frc consts  --      0.0405                 0.0586                 0.0896
 IR Inten    --      7.3492                 3.0674                 8.0664

                      7                      8                      9
                      A                      A                      A
 Frequencies --    373.0408               375.9466               437.9021
 Red. masses --      3.9503                 4.0792                 4.7519
 Frc consts  --      0.3239                 0.3397                 0.5369
 IR Inten    --      1.8421                 0.5046                 4.1156

                     10                     11                     12
                      A                      A                      A
 Frequencies --    492.4298               584.9883               644.0510
 Red. masses --      4.5617                 3.7812                 8.0234
 Frc consts  --      0.6517                 0.7624                 1.9609
 IR Inten    --      0.3245                20.5283                 0.9841

                     13                     14                     15
                      A                      A                      A
 Frequencies --    722.8728               767.8136               772.8667
 Red. masses --      4.5656                 4.2732                 2.3854
 Frc consts  --      1.4056                 1.4843                 0.8395
 IR Inten    --      1.7610                 6.0271                 9.6952

                     16                     17                     18
                      A                      A                      A
 Frequencies --    817.3906               850.1877               951.4014
 Red. masses --      1.2989                 1.9009                 2.1428
 Frc consts  --      0.5113                 0.8096                 1.1428
 IR Inten    --      6.6883                10.9700                38.7801

                     19                     20                     21
                      A                      A                      A
 Frequencies --    979.9322              1024.0049              1034.2978
 Red. masses --      1.3667                 1.3271                 3.3246
 Frc consts  --      0.7732                 0.8199                 2.0955
 IR Inten    --      0.4003                 0.5241                24.0243

                     22                     23                     24
                      A                      A                      A
 Frequencies --   1048.0694              1071.7269              1091.7999
 Red. masses --      5.8710                 2.6108                 1.7025
 Frc consts  --      3.7996                 1.7668                 1.1957
 IR Inten    --     17.5067                 1.3323                 5.9021

                     25                     26                     27
                      A                      A                      A
 Frequencies --   1110.5059              1160.7872              1192.5099
 Red. masses --      1.7861                 1.7625                 2.3280
 Frc consts  --      1.2977                 1.3992                 1.9505
 IR Inten    --      9.7012                12.5140                 4.1328

                     28                     29                     30
                      A                      A                      A
 Frequencies --   1230.7843              1280.0460              1331.0635
 Red. masses --      2.4457                 1.5472                 1.5917
 Frc consts  --      2.1828                 1.4937                 1.6615
 IR Inten    --     16.4578                12.7506                57.5331

                     31                     32                     33
                      A                      A                      A
 Frequencies --   1359.2094              1429.2340              1432.7863
 Red. masses --      1.7044                 1.4084                 2.1834
 Frc consts  --      1.8552                 1.6951                 2.6408
 IR Inten    --     31.6081                 1.5116                17.1231

                     34                     35                     36
                      A                      A                      A
 Frequencies --   1477.7530              1497.6337              1529.0238
 Red. masses --      2.1689                 1.1088                 1.0425
 Frc consts  --      2.7906                 1.4652                 1.4360
 IR Inten    --      2.2857                12.3071                 6.0648

                     37                     38                     39
                      A                      A                      A
 Frequencies --   1539.4911              1607.8589              1628.9399
 Red. masses --      1.0572                 5.6702                 5.5038
 Frc consts  --      1.4763                 8.6367                 8.6044
 IR Inten    --      7.5237                 0.9070                13.1863

                     40                     41                     42
                      A                      A                      A
 Frequencies --   1789.6497              3061.2609              3082.3595
 Red. masses --     11.4876                 1.0351                 1.0579
 Frc consts  --     21.6779                 5.7154                 5.9219
 IR Inten    --    132.9345                24.6867                 9.8617

                     43                     44                     45
                      A                      A                      A
 Frequencies --   3125.2710              3135.5267              3151.4618
 Red. masses --      1.1033                 1.1045                 1.1042
 Frc consts  --      6.3491                 6.3980                 6.4614
 IR Inten    --     13.8647                11.3139                29.9580

                     46                     47                     48
                      A                      A                      A
 Frequencies --   3199.7417              3216.2406              3238.6491
 Red. masses --      1.0887                 1.0944                 1.0948
 Frc consts  --      6.5672                 6.6697                 6.7660
 IR Inten    --      5.6634                13.9705                 2.9443

 - Thermochemistry -
 -------------------
 Temperature   298.150 Kelvin.  Pressure   1.00000 Atm.
 Atom     1 has atomic number  6 and mass  12.00000

 Molecular mass:   136.06366 amu.
 Principal axes and moments of inertia in atomic units:
                           1         2         3
     Eigenvalues --   684.518191818.450522346.73343
           X            0.99884  -0.04820   0.00169
           Y            0.04822   0.99881  -0.00722
           Z           -0.00134   0.00729   0.99997
 This molecule is an asymmetric top.
 Rotational symmetry number  1.
 Warning -- assumption of classical behavior for rotation
           may cause significant error
 Rotational temperatures (Kelvin)      0.12653     0.04763     0.03691
 Rotational constants (GHZ):           2.63651     0.99246     0.76904
 Zero-point vibrational energy     375580.6 (Joules/Mol)
                                   89.76591 (Kcal/Mol)
 Warning -- explicit consideration of  11 degrees of freedom as
           vibrations may cause significant error
 Vibrational temperatures:     80.99   107.09   204.32   271.85   331.53
          (Kelvin)            361.93   536.72   540.90   630.04   708.50
                              841.67   926.65  1040.05  1104.71  1111.98
                             1176.04  1223.23  1368.85  1409.90  1473.31
                             1488.12  1507.94  1541.98  1570.86  1597.77
                             1670.11  1715.76  1770.82  1841.70  1915.10
                             1955.60  2056.35  2061.46  2126.16  2154.76
                             2199.92  2214.98  2313.35  2343.68  2574.91
                             4404.47  4434.83  4496.57  4511.32  4534.25
                             4603.71  4627.45  4659.69

 Zero-point correction=                           0.143051 (Hartree/Particle)
 Thermal correction to Energy=                    0.152002
 Thermal correction to Enthalpy=                  0.152946
 Thermal correction to Gibbs Free Energy=         0.108346
 Sum of electronic and zero-point Energies=           -456.137712
 Sum of electronic and thermal Energies=              -456.128761
 Sum of electronic and thermal Enthalpies=            -456.127817
 Sum of electronic and thermal Free Energies=         -456.172417

                     E (Thermal)             CV                S
                      KCal/Mol        Cal/Mol-Kelvin    Cal/Mol-Kelvin
 Total                   95.382             32.675             93.869
 Electronic               0.000              0.000              0.000
 Translational            0.889              2.981             40.636
 Rotational               0.889              2.981             29.459
 Vibrational             93.605             26.714             23.774
 Vibration     1          0.596              1.975              4.583
 Vibration     2          0.599              1.966              4.033
 Vibration     3          0.615              1.911              2.777
 Vibration     4          0.633              1.855              2.238
 Vibration     5          0.652              1.795              1.876
 Vibration     6          0.664              1.760              1.720
 Vibration     7          0.744              1.527              1.067
 Vibration     8          0.747              1.521              1.055
 Vibration     9          0.798              1.388              0.833
 Vibration    10          0.848              1.267              0.677
 Vibration    11          0.942              1.064              0.476

 Optimization completed.
    -- Stationary point found.
 Normal termination of Gaussian 16 at Tue Dec  8 10:31:20 2020.

 ----------------------------------------------------------------------
 # B3LYP/6-311++G(d,p) empiricaldispersion=gd3bj scf=xqc pop=npa geom=c
 heck
 ----------------------------------------------------------------------

 -------------------------------------
 CID_14452008_JID_382_Energie_neutraal
 -------------------------------------
 Structure from the checkpoint file:  "JID_382.chk"
 Charge =  0 Multiplicity = 1

 SCF Done:  E(RB3LYP) =  -456.404232530     A.U. after   16 cycles
 Normal termination of Gaussian 16 at Tue Dec  8 10:32:34 2020.

 ----------------------------------------------------------------------
 # B3LYP/6-311++G(d,p) empiricaldispersion=gd3bj scf=xqc pop=npa geom=c
 heck
 ----------------------------------------------------------------------

 -----------------------------------
 CID_14452008_JID_382_Energie_kation
 -----------------------------------
 Structure from the checkpoint file:  "JID_382.chk"
 Charge =  1 Multiplicity = 2

 SCF Done:  E(UB3LYP) =  -456.068437119     A.U. after   25 cycles
 Normal termination of Gaussian 16 at Tue Dec  8 10:37:37 2020.
 Gaussian 16:  ES64L-G16RevA.03 25-Dec-2016

 ----------------------------------------------------------------------
 # B3LYP/6-311++G(d,p) empiricaldispersion=gd3bj scf=xqc pop=npa geom=c
 heck
 ----------------------------------------------------------------------

 ----------------------------------
 CID_14452008_JID_382_Energie_anion
 ----------------------------------
 Structure from the checkpoint file:  "JID_382.chk"
 Charge = -1 Multiplicity = 2

                         Standard orientation:
 ---------------------------------------------------------------------
 Center     Atomic      Atomic             Coordinates (Angstroms)
 Number     Number       Type             X           Y           Z
 ---------------------------------------------------------------------
      1          6           0        2.622543   -1.163997    0.755935
      2          6           0        2.291008   -0.363663   -0.518256
      3          6           0        1.247518    0.694804   -0.239162
      4          8           0        1.527609    1.872070   -0.080189
      5          6           0       -0.193860    0.264519   -0.118276
      6          7           0       -0.467819   -1.028005   -0.334108
      7          7           0       -1.722191   -1.467353   -0.244784
      8          6           0       -2.693062   -0.599676    0.058882
      9          6           0       -2.475795    0.762419    0.295657
     10          6           0       -1.173810    1.213772    0.204961
     11          1           0        2.958657   -0.499480    1.559087
     12          1           0        3.424028   -1.880239    0.549554
     13          1           0        1.747567   -1.721172    1.101294
     14          1           0        3.181137    0.153946   -0.886790
     15          1           0        1.922718   -1.049379   -1.286977
     16          1           0       -3.689330   -1.030492    0.112612
     17          1           0       -3.301610    1.423573    0.539486
     18          1           0       -0.881224    2.245117    0.367051
 ---------------------------------------------------------------------

 SCF Done:  E(UB3LYP) =  -456.428275849     A.U. after   26 cycles

 The electronic state is 2-A.
 Alpha  occ. eigenvalues --  -18.91614 -14.18345 -14.16708 -10.05771 -10.04065
 Alpha  occ. eigenvalues --  -10.03920 -10.03145 -10.02844 -10.02686 -10.01875
 Alpha  occ. eigenvalues --   -0.86033  -0.84725  -0.66576  -0.65873  -0.62419
 Alpha  occ. eigenvalues --   -0.51695  -0.49815  -0.48289  -0.39668  -0.35678
 Alpha  occ. eigenvalues --   -0.35038  -0.31831  -0.30188  -0.28265  -0.26815
 Alpha  occ. eigenvalues --   -0.26288  -0.24905  -0.24486  -0.22484  -0.20392
 Alpha  occ. eigenvalues --   -0.19747  -0.16097  -0.15188  -0.13080  -0.07890
 Alpha  occ. eigenvalues --   -0.07396   0.04305
 Alpha virt. eigenvalues --    0.09331   0.09695   0.10330   0.11450   0.12091
 Alpha virt. eigenvalues --    0.12953   0.13417   0.14799   0.15648   0.16654
 Alpha virt. eigenvalues --    0.17262   0.18296   0.18737   0.19252   0.19852

  Beta  occ. eigenvalues --  -18.91043 -14.18482 -14.16380 -10.05483 -10.03923
  Beta  occ. eigenvalues --  -10.03691 -10.03048 -10.02652 -10.02600 -10.01902
  Beta  occ. eigenvalues --   -0.85170  -0.84206  -0.66005  -0.65518  -0.62257
  Beta  occ. eigenvalues --   -0.51044  -0.49596  -0.47966  -0.39154  -0.35307
  Beta  occ. eigenvalues --   -0.34804  -0.31602  -0.30000  -0.27470  -0.26150
  Beta  occ. eigenvalues --   -0.25965  -0.24596  -0.23933  -0.22173  -0.20280
  Beta  occ. eigenvalues --   -0.17708  -0.15931  -0.14143  -0.10982  -0.07603
  Beta  occ. eigenvalues --   -0.06912
  Beta virt. eigenvalues --    0.09274   0.09549   0.10710   0.11336   0.11424
  Beta virt. eigenvalues --    0.12068   0.12919   0.13354   0.14749   0.15591
  Beta virt. eigenvalues --    0.17265   0.18220   0.18532   0.18847   0.19262

 Mulliken charges and spin densities:
               1          2
     1  C   -0.448504  -0.040052
     2  C   -0.260400   0.015877
     3  C    0.051998   0.160477
     4  O   -0.421403   0.200652
     5  C   -0.325621   0.165714
     6  N   -0.127634   0.152099
     7  N    0.054534  -0.087181
     8  C   -0.471196   0.282368
     9  C   -0.245519   0.010802
    10  C    0.200601   0.089323
    11  H    0.119696  -0.009387
    12  H    0.046046   0.059181
    13  H    0.156763  -0.006622
    14  H    0.108389   0.024144
    15  H    0.131988   0.013191
    16  H    0.121199  -0.021537
    17  H    0.119730  -0.001582
    18  H    0.189334  -0.007466
 Sum of Mulliken charges =  -1.00000   1.00000

 Dipole moment (field-independent basis, Debye):
    X=             -1.0757    Y=              0.0719    Z=              0.8394  Tot=              1.3663
 Quadrupole moment (field-independent basis, Debye-Ang):
   XX=            -78.7052   YY=            -81.7627   ZZ=            -65.9570
   XY=            -10.2989   XZ=             -1.3727   YZ=             -0.6292

 Summary of Natural Population Analysis:

                                       Natural Population
                Natural  -----------------------------------------------
    Atom  No    Charge         Core      Valence    Rydberg      Total
 -----------------------------------------------------------------------
      C    1   -0.27806      0.99967     2.27462    0.00378     3.27806
      C    2   -0.23174      0.99961     2.22285    0.00928     3.23174
      C    3    0.30214      0.99964     1.67648    0.02174     2.69786
      O    4   -0.25263      0.99988     3.24565    0.00710     4.25263
      C    5    0.08142      0.99950     1.90520    0.01388     2.91858
      N    6   -0.08652      0.99969     2.57150    0.01533     3.58652
      N    7   -0.16495      0.99974     2.64802    0.01719     3.66495
      C    8    0.06424      0.99962     1.92076    0.01538     2.93576
      C    9   -0.12340      0.99957     2.11520    0.00864     3.12340
      C   10   -0.06673      0.99953     2.05779    0.00942     3.06673
      H   11    0.09156      0.00000     0.40750    0.00094     0.40844
      H   12    0.08625      0.00000     0.41219    0.00156     0.41375
      H   13    0.10485      0.00000     0.39383    0.00131     0.39515
      H   14    0.09190      0.00000     0.40520    0.00290     0.40810
      H   15    0.10626      0.00000     0.39143    0.00230     0.39374
      H   16    0.07712      0.00000     0.42155    0.00134     0.42288
      H   17    0.09100      0.00000     0.40770    0.00130     0.40900
      H   18    0.10727      0.00000     0.39127    0.00146     0.39273
 =======================================================================
   * Total *   -0.00000      9.99643    25.86874    0.13483    36.00000

 Normal termination of Gaussian 16 at Tue Dec  8 10:41:59 2020.
