 Gaussian 16, Revision A.03,

 -----------------------------------------------------------
 # opt freq B3LYP/6-31G(d) empiricaldispersion=gd3bj scf=xqc
 -----------------------------------------------------------

 ------------------------------
 CID_64776537_JID_5473_neutraal
 ------------------------------
 Symbolic Z-matrix:
 Charge =  0 Multiplicity = 1

 SCF Done:  E(RB3LYP) =  -604.573790711     A.U. after   12 cycles
 SCF Done:  E(RB3LYP) =  -604.572639421     A.U. after   11 cycles
 SCF Done:  E(RB3LYP) =  -604.578038349     A.U. after   10 cycles
 SCF Done:  E(RB3LYP) =  -604.578764042     A.U. after   10 cycles
 SCF Done:  E(RB3LYP) =  -604.578641159     A.U. after   10 cycles
 SCF Done:  E(RB3LYP) =  -604.579266757     A.U. after   10 cycles
 SCF Done:  E(RB3LYP) =  -604.579392147     A.U. after    9 cycles
 SCF Done:  E(RB3LYP) =  -604.579431290     A.U. after   10 cycles
 SCF Done:  E(RB3LYP) =  -604.579439117     A.U. after    8 cycles
 SCF Done:  E(RB3LYP) =  -604.579441930     A.U. after    8 cycles
 SCF Done:  E(RB3LYP) =  -604.579442287     A.U. after    7 cycles
 SCF Done:  E(RB3LYP) =  -604.579442307     A.U. after    6 cycles
 SCF Done:  E(RB3LYP) =  -604.579442338     A.U. after    6 cycles
 Optimization completed.
    -- Stationary point found.
 Normal termination of Gaussian 16 at Thu Dec 10 16:23:18 2020.

 --------------------------------------------------------------------
 #N Geom=AllCheck Guess=TCheck SCRF=Check GenChk RB3LYP/6-31G(d) Freq
 --------------------------------------------------------------------

 Structure from the checkpoint file:  "JID_5473.chk"
 ------------------------------
 CID_64776537_JID_5473_neutraal
 ------------------------------
 Charge =  0 Multiplicity = 1

 SCF Done:  E(RB3LYP) =  -604.579442338     A.U. after    1 cycles

  Exact polarizability: 164.062   0.041 146.567  -1.125  -0.377 134.287
 Approx polarizability: 209.463   1.841 207.111  -4.088  -2.219 201.811

                      1                      2                      3
                      A                      A                      A
 Frequencies --     34.3207                76.2714                89.5176
 Red. masses --      3.2707                 2.9134                 2.6664
 Frc consts  --      0.0023                 0.0100                 0.0126
 IR Inten    --      0.2750                 0.8189                 0.7239

                      4                      5                      6
                      A                      A                      A
 Frequencies --    111.6946               139.6830               168.5417
 Red. masses --      2.5236                 2.7769                 2.1586
 Frc consts  --      0.0185                 0.0319                 0.0361
 IR Inten    --      2.1404                 0.6776                 0.2694

                      7                      8                      9
                      A                      A                      A
 Frequencies --    213.9898               235.6099               243.8743
 Red. masses --      1.6981                 1.3802                 1.8371
 Frc consts  --      0.0458                 0.0451                 0.0644
 IR Inten    --      0.2851                 0.3216                 0.1409

                     10                     11                     12
                      A                      A                      A
 Frequencies --    244.9016               275.8540               298.9398
 Red. masses --      2.2438                 2.1368                 2.0472
 Frc consts  --      0.0793                 0.0958                 0.1078
 IR Inten    --      0.6611                 1.9406                 0.3879

                     13                     14                     15
                      A                      A                      A
 Frequencies --    313.1460               329.4070               347.8464
 Red. masses --      2.4509                 2.4162                 2.1139
 Frc consts  --      0.1416                 0.1545                 0.1507
 IR Inten    --      2.4125                 0.2963                 0.2567

                     16                     17                     18
                      A                      A                      A
 Frequencies --    386.1174               396.4573               424.5340
 Red. masses --      2.1992                 2.1155                 1.8004
 Frc consts  --      0.1932                 0.1959                 0.1912
 IR Inten    --      0.6662                 0.4816                 0.9429

                     19                     20                     21
                      A                      A                      A
 Frequencies --    450.9907               471.8089               487.9297
 Red. masses --      2.5643                 2.2028                 2.4008
 Frc consts  --      0.3073                 0.2889                 0.3368
 IR Inten    --      0.4550                 0.2380                 0.4753

                     22                     23                     24
                      A                      A                      A
 Frequencies --    513.0409               583.3849               632.9509
 Red. masses --      2.6142                 3.2624                 2.8991
 Frc consts  --      0.4054                 0.6542                 0.6843
 IR Inten    --      0.7789                 5.9316                 0.7338

                     25                     26                     27
                      A                      A                      A
 Frequencies --    707.0780               730.9229               749.1308
 Red. masses --      2.3303                 2.4442                 2.2213
 Frc consts  --      0.6864                 0.7693                 0.7345
 IR Inten    --      2.1977                 0.1709                53.2350

                     28                     29                     30
                      A                      A                      A
 Frequencies --    791.5721               800.8601               839.6060
 Red. masses --      1.6796                 2.0043                 2.5227
 Frc consts  --      0.6201                 0.7574                 1.0478
 IR Inten    --      0.5100                 0.7709                 0.6581

                     31                     32                     33
                      A                      A                      A
 Frequencies --    843.1703               853.6451               885.6490
 Red. masses --      1.8068                 1.9114                 2.2447
 Frc consts  --      0.7568                 0.8207                 1.0374
 IR Inten    --     27.0240                 2.6109                 1.5801

                     34                     35                     36
                      A                      A                      A
 Frequencies --    901.2911               925.6703               942.5935
 Red. masses --      1.9415                 2.0531                 1.8811
 Frc consts  --      0.9292                 1.0365                 0.9847
 IR Inten    --     28.9191                 5.5035                 1.0113

                     37                     38                     39
                      A                      A                      A
 Frequencies --    957.3467               975.1715               978.8820
 Red. masses --      1.4324                 1.5206                 2.0975
 Frc consts  --      0.7735                 0.8520                 1.1842
 IR Inten    --      1.9603                 9.9915                 1.0095

                     40                     41                     42
                      A                      A                      A
 Frequencies --    997.2960              1003.7883              1020.7922
 Red. masses --      1.6855                 1.7407                 1.9414
 Frc consts  --      0.9877                 1.0334                 1.1919
 IR Inten    --      5.1741                 5.9070                 0.9974

                     43                     44                     45
                      A                      A                      A
 Frequencies --   1057.6211              1062.2557              1084.1930
 Red. masses --      2.0467                 1.7613                 1.7080
 Frc consts  --      1.3488                 1.1710                 1.1829
 IR Inten    --      1.8096                 0.1706                 4.4052

                     46                     47                     48
                      A                      A                      A
 Frequencies --   1102.5635              1109.7685              1117.4634
 Red. masses --      1.9036                 2.5193                 2.6270
 Frc consts  --      1.3634                 1.8281                 1.9327
 IR Inten    --      6.4674                 3.2065                 0.1773

                     49                     50                     51
                      A                      A                      A
 Frequencies --   1129.5683              1143.8428              1152.5129
 Red. masses --      1.7555                 1.5177                 1.6188
 Frc consts  --      1.3197                 1.1699                 1.2669
 IR Inten    --      1.9955                 3.9929                16.2895

                     52                     53                     54
                      A                      A                      A
 Frequencies --   1159.7370              1167.4282              1176.5941
 Red. masses --      1.2422                 1.3940                 1.5499
 Frc consts  --      0.9844                 1.1194                 1.2642
 IR Inten    --      2.9473                 2.9509                20.0729

                     55                     56                     57
                      A                      A                      A
 Frequencies --   1190.0129              1198.7490              1223.2378
 Red. masses --      1.7827                 1.4662                 1.8484
 Frc consts  --      1.4874                 1.2413                 1.6295
 IR Inten    --      1.3514                 2.1541                 3.2228

                     58                     59                     60
                      A                      A                      A
 Frequencies --   1252.8363              1296.1798              1307.3374
 Red. masses --      1.4119                 1.2801                 1.2498
 Frc consts  --      1.3057                 1.2672                 1.2585
 IR Inten    --      0.1432                 1.3207                 2.2409

                     61                     62                     63
                      A                      A                      A
 Frequencies --   1316.1324              1329.4231              1337.4686
 Red. masses --      1.3775                 1.3248                 1.5194
 Frc consts  --      1.4058                 1.3795                 1.6014
 IR Inten    --      6.4955                 5.7376                 6.8917

                     64                     65                     66
                      A                      A                      A
 Frequencies --   1351.8371              1355.8264              1361.7054
 Red. masses --      1.2958                 1.3108                 1.2781
 Frc consts  --      1.3952                 1.4197                 1.3964
 IR Inten    --      1.1128                 0.6840                 0.9051

                     67                     68                     69
                      A                      A                      A
 Frequencies --   1366.6740              1376.3367              1385.8150
 Red. masses --      1.3416                 1.3103                 1.4327
 Frc consts  --      1.4764                 1.4624                 1.6211
 IR Inten    --      0.4350                 0.1905                 1.9902

                     70                     71                     72
                      A                      A                      A
 Frequencies --   1395.2106              1398.5504              1401.3299
 Red. masses --      1.3425                 1.4341                 1.4247
 Frc consts  --      1.5398                 1.6527                 1.6483
 IR Inten    --      7.1106                 1.3475                 0.3640

                     73                     74                     75
                      A                      A                      A
 Frequencies --   1407.9911              1409.1565              1416.3792
 Red. masses --      1.4038                 1.4183                 1.3930
 Frc consts  --      1.6397                 1.6594                 1.6465
 IR Inten    --      4.0354                 1.9823                 4.6160

                     76                     77                     78
                      A                      A                      A
 Frequencies --   1424.8274              1432.5994              1438.8508
 Red. masses --      1.5018                 1.3491                 1.2487
 Frc consts  --      1.7963                 1.6313                 1.5231
 IR Inten    --      0.4246                 5.0823                 3.1336

                     79                     80                     81
                      A                      A                      A
 Frequencies --   1445.0152              1481.8622              1504.0110
 Red. masses --      1.3115                 1.1660                 1.0888
 Frc consts  --      1.6134                 1.5086                 1.4511
 IR Inten    --      6.5594                 2.0659                 3.4419

                     82                     83                     84
                      A                      A                      A
 Frequencies --   1505.9324              1508.4460              1514.8481
 Red. masses --      1.0903                 1.1173                 1.1271
 Frc consts  --      1.4568                 1.4979                 1.5238
 IR Inten    --      5.1855                 9.9603                 0.4761

                     85                     86                     87
                      A                      A                      A
 Frequencies --   1516.7893              1522.9432              1527.1497
 Red. masses --      1.1026                 1.0869                 1.0597
 Frc consts  --      1.4945                 1.4852                 1.4561
 IR Inten    --      6.4381                 6.0238                 4.1248

                     88                     89                     90
                      A                      A                      A
 Frequencies --   1529.2481              1529.5447              1533.5010
 Red. masses --      1.0679                 1.0700                 1.0862
 Frc consts  --      1.4714                 1.4749                 1.5049
 IR Inten    --      1.6263                 2.8723                 7.1708

                     91                     92                     93
                      A                      A                      A
 Frequencies --   1539.7932              1544.0580              1552.8262
 Red. masses --      1.0918                 1.0670                 1.0688
 Frc consts  --      1.5252                 1.4988                 1.5184
 IR Inten    --     17.6110                 8.5943                12.9546

                     94                     95                     96
                      A                      A                      A
 Frequencies --   2967.2923              2987.0215              2995.5063
 Red. masses --      1.0589                 1.0830                 1.0821
 Frc consts  --      5.4930                 5.6932                 5.7207
 IR Inten    --     83.4256                12.6243                12.8056

                     97                     98                     99
                      A                      A                      A
 Frequencies --   3002.4086              3016.6848              3019.2521
 Red. masses --      1.0804                 1.0720                 1.0734
 Frc consts  --      5.7384                 5.7477                 5.7653
 IR Inten    --      7.7792                22.2045                 6.8267

                    100                    101                    102
                      A                      A                      A
 Frequencies --   3025.1781              3027.5076              3028.3845
 Red. masses --      1.0719                 1.0668                 1.0590
 Frc consts  --      5.7795                 5.7608                 5.7222
 IR Inten    --     28.1045                 5.4048                35.9772

                    103                    104                    105
                      A                      A                      A
 Frequencies --   3031.7998              3033.7911              3039.4385
 Red. masses --      1.0706                 1.0498                 1.0547
 Frc consts  --      5.7980                 5.6929                 5.7407
 IR Inten    --     59.8868                57.6802                37.7412

                    106                    107                    108
                      A                      A                      A
 Frequencies --   3046.0460              3049.0419              3058.9694
 Red. masses --      1.0757                 1.0659                 1.0986
 Frc consts  --      5.8805                 5.8386                 6.0568
 IR Inten    --    116.7492                12.0305                44.3520

                    109                    110                    111
                      A                      A                      A
 Frequencies --   3063.8343              3072.2223              3075.0223
 Red. masses --      1.1002                 1.0755                 1.0998
 Frc consts  --      6.0846                 5.9807                 6.1273
 IR Inten    --     71.4335                60.5225               117.9286

                    112                    113                    114
                      A                      A                      A
 Frequencies --   3077.0187              3086.0100              3088.1026
 Red. masses --      1.0960                 1.0982                 1.0968
 Frc consts  --      6.1137                 6.1621                 6.1627
 IR Inten    --     14.6311                34.9503                46.7929

                    115                    116                    117
                      A                      A                      A
 Frequencies --   3099.6024              3106.4893              3117.7958
 Red. masses --      1.1009                 1.1024                 1.1023
 Frc consts  --      6.2315                 6.2681                 6.3134
 IR Inten    --     69.7835                36.0968                29.2092

                    118                    119                    120
                      A                      A                      A
 Frequencies --   3119.6882              3120.2346              3525.1671
 Red. masses --      1.0902                 1.0868                 1.0730
 Frc consts  --      6.2511                 6.2339                 7.8561
 IR Inten    --      2.5169                30.1006                 0.3579

 - Thermochemistry -
 -------------------
 Temperature   298.150 Kelvin.  Pressure   1.00000 Atm.
 Atom     1 has atomic number  6 and mass  12.00000

 Molecular mass:   209.21435 amu.
 Principal axes and moments of inertia in atomic units:
                           1         2         3
     Eigenvalues --  2093.840454374.171974906.81004
           X            1.00000  -0.00132   0.00257
           Y            0.00128   0.99990   0.01433
           Z           -0.00259  -0.01433   0.99989
 This molecule is an asymmetric top.
 Rotational symmetry number  1.
 Warning -- assumption of classical behavior for rotation
           may cause significant error
 Rotational temperatures (Kelvin)      0.04137     0.01980     0.01765
 Rotational constants (GHZ):           0.86193     0.41259     0.36780
 Zero-point vibrational energy    1045827.9 (Joules/Mol)
                                  249.95887 (Kcal/Mol)
 Warning -- explicit consideration of  23 degrees of freedom as
           vibrations may cause significant error
 Vibrational temperatures:     49.38   109.74   128.80   160.70   200.97
          (Kelvin)            242.49   307.88   338.99   350.88   352.36
                              396.89   430.11   450.55   473.94   500.47
                              555.54   570.41   610.81   648.87   678.83
                              702.02   738.15   839.36   910.68  1017.33
                             1051.64  1077.83  1138.90  1152.26  1208.01
                             1213.13  1228.20  1274.25  1296.76  1331.83
                             1356.18  1377.41  1403.05  1408.39  1434.89
                             1444.23  1468.69  1521.68  1528.35  1559.91
                             1586.34  1596.71  1607.78  1625.20  1645.73
                             1658.21  1668.60  1679.67  1692.86  1712.16
                             1724.73  1759.97  1802.55  1864.91  1880.97
                             1893.62  1912.74  1924.32  1944.99  1950.73
                             1959.19  1966.34  1980.24  1993.88  2007.40
                             2012.20  2016.20  2025.79  2027.46  2037.85
                             2050.01  2061.19  2070.19  2079.05  2132.07
                             2163.94  2166.70  2170.32  2179.53  2182.32
                             2191.18  2197.23  2200.25  2200.67  2206.37
                             2215.42  2221.56  2234.17  4269.27  4297.66
                             4309.87  4319.80  4340.34  4344.03  4352.56
                             4355.91  4357.17  4362.08  4364.95  4373.07
                             4382.58  4386.89  4401.17  4408.17  4420.24
                             4424.27  4427.14  4440.08  4443.09  4459.64
                             4469.55  4485.81  4488.54  4489.32  5071.93

 Zero-point correction=                           0.398335 (Hartree/Particle)
 Thermal correction to Energy=                    0.413484
 Thermal correction to Enthalpy=                  0.414429
 Thermal correction to Gibbs Free Energy=         0.357010
 Sum of electronic and zero-point Energies=           -604.181108
 Sum of electronic and thermal Energies=              -604.165958
 Sum of electronic and thermal Enthalpies=            -604.165014
 Sum of electronic and thermal Free Energies=         -604.222432

                     E (Thermal)             CV                S
                      KCal/Mol        Cal/Mol-Kelvin    Cal/Mol-Kelvin
 Total                  259.465             61.555            120.847
 Electronic               0.000              0.000              0.000
 Translational            0.889              2.981             41.918
 Rotational               0.889              2.981             32.175
 Vibrational            257.688             55.594             46.754
 Vibration     1          0.594              1.983              5.563
 Vibration     2          0.599              1.965              3.985
 Vibration     3          0.602              1.957              3.671
 Vibration     4          0.607              1.940              3.239
 Vibration     5          0.615              1.914              2.808
 Vibration     6          0.625              1.881              2.452
 Vibration     7          0.644              1.820              2.009
 Vibration     8          0.655              1.786              1.836
 Vibration     9          0.659              1.773              1.774
 Vibration    10          0.660              1.771              1.767
 Vibration    11          0.677              1.718              1.559
 Vibration    12          0.692              1.676              1.423
 Vibration    13          0.701              1.649              1.346
 Vibration    14          0.712              1.617              1.263
 Vibration    15          0.725              1.580              1.176
 Vibration    16          0.755              1.500              1.015
 Vibration    17          0.763              1.478              0.976
 Vibration    18          0.787              1.417              0.877
 Vibration    19          0.810              1.359              0.793
 Vibration    20          0.829              1.313              0.733
 Vibration    21          0.844              1.277              0.689
 Vibration    22          0.868              1.221              0.626
 Vibration    23          0.940              1.067              0.479

 Optimization completed.
    -- Stationary point found.
 Normal termination of Gaussian 16 at Thu Dec 10 16:41:03 2020.

 ----------------------------------------------------------------------
 # B3LYP/6-311++G(d,p) empiricaldispersion=gd3bj scf=xqc pop=npa geom=c
 heck
 ----------------------------------------------------------------------

 --------------------------------------
 CID_64776537_JID_5473_Energie_neutraal
 --------------------------------------
 Structure from the checkpoint file:  "JID_5473.chk"
 Charge =  0 Multiplicity = 1

 SCF Done:  E(RB3LYP) =  -604.743520469     A.U. after   13 cycles
 Normal termination of Gaussian 16 at Thu Dec 10 16:49:59 2020.

 ----------------------------------------------------------------------
 # B3LYP/6-311++G(d,p) empiricaldispersion=gd3bj scf=xqc pop=npa geom=c
 heck
 ----------------------------------------------------------------------

 ------------------------------------
 CID_64776537_JID_5473_Energie_kation
 ------------------------------------
 Structure from the checkpoint file:  "JID_5473.chk"
 Charge =  1 Multiplicity = 2

 SCF Done:  E(UB3LYP) =  -604.448667948     A.U. after   19 cycles
 Normal termination of Gaussian 16 at Thu Dec 10 17:18:45 2020.
 Gaussian 16:  ES64L-G16RevA.03 25-Dec-2016

 ----------------------------------------------------------------------
 # B3LYP/6-311++G(d,p) empiricaldispersion=gd3bj scf=xqc pop=npa geom=c
 heck
 ----------------------------------------------------------------------

 -----------------------------------
 CID_64776537_JID_5473_Energie_anion
 -----------------------------------
 Structure from the checkpoint file:  "JID_5473.chk"
 Charge = -1 Multiplicity = 2

                         Standard orientation:
 ---------------------------------------------------------------------
 Center     Atomic      Atomic             Coordinates (Angstroms)
 Number     Number       Type             X           Y           Z
 ---------------------------------------------------------------------
      1          6           0        3.478955    1.729025    1.082006
      2          6           0        2.846996    0.867093   -0.012701
      3          6           0        2.792834   -0.611710    0.394564
      4          6           0        2.152811   -1.500209   -0.685580
      5          6           0        0.769580   -1.025726   -1.191755
      6          6           0        0.814811    0.488905   -1.483434
      7          6           0        1.435773    1.348023   -0.376475
      8          6           0       -0.425252   -1.647622   -0.392699
      9          6           0       -0.410377   -1.652604    1.156209
     10          6           0       -1.101175   -0.464657    1.832137
     11          6           0       -2.545387   -0.334230    1.337267
     12          6           0       -2.593049   -0.114626   -0.188702
     13          6           0       -1.829732   -1.243008   -0.920619
     14          7           0       -2.166010    1.230072   -0.603119
     15          6           0       -3.141130    2.277279   -0.319683
     16          1           0        2.887700    1.679085    2.005642
     17          1           0        4.494998    1.391951    1.319508
     18          1           0        3.534320    2.781357    0.778868
     19          1           0        3.468312    0.946769   -0.919273
     20          1           0        3.806495   -0.976652    0.607998
     21          1           0        2.238102   -0.683839    1.338775
     22          1           0        2.088408   -2.536632   -0.328329
     23          1           0        2.837117   -1.517433   -1.545489
     24          1           0        0.636732   -1.486746   -2.181181
     25          1           0       -0.177828    0.854621   -1.757208
     26          1           0        1.443254    0.617963   -2.377146
     27          1           0        0.820465    1.324538    0.533939
     28          1           0        1.468319    2.397616   -0.698439
     29          1           0       -0.319509   -2.709474   -0.656289
     30          1           0       -0.954969   -2.553846    1.474186
     31          1           0        0.607920   -1.778745    1.532155
     32          1           0       -0.554321    0.466897    1.640597
     33          1           0       -1.086492   -0.601491    2.920500
     34          1           0       -3.062481    0.484171    1.852400
     35          1           0       -3.091778   -1.254865    1.587015
     36          1           0       -3.638163   -0.191695   -0.516811
     37          1           0       -1.779527   -0.995653   -1.986980
     38          1           0       -2.468508   -2.132949   -0.836928
     39          1           0       -1.289020    1.466036   -0.146453
     40          1           0       -3.450663    2.360454    0.737467
     41          1           0       -2.726553    3.243670   -0.624925
     42          1           0       -4.044215    2.098784   -0.914977
 ---------------------------------------------------------------------

 SCF Done:  E(UB3LYP) =  -604.728701166     A.U. after   28 cycles

 The electronic state is 2-A.
 Alpha  occ. eigenvalues --  -14.19459 -10.09324 -10.08813 -10.07349 -10.06814
 Alpha  occ. eigenvalues --  -10.06759 -10.06419 -10.06370 -10.06294 -10.06246
 Alpha  occ. eigenvalues --  -10.06237 -10.05941 -10.05889 -10.05798 -10.05509
 Alpha  occ. eigenvalues --   -0.80678  -0.74111  -0.71484  -0.67472  -0.64190
 Alpha  occ. eigenvalues --   -0.63695  -0.62805  -0.57927  -0.56292  -0.51734
 Alpha  occ. eigenvalues --   -0.51081  -0.50461  -0.47930  -0.45401  -0.41299
 Alpha  occ. eigenvalues --   -0.39831  -0.37423  -0.36462  -0.35454  -0.35252
 Alpha  occ. eigenvalues --   -0.34326  -0.34173  -0.33452  -0.31898  -0.31540
 Alpha  occ. eigenvalues --   -0.30530  -0.28976  -0.28882  -0.28017  -0.27570
 Alpha  occ. eigenvalues --   -0.27367  -0.26168  -0.25741  -0.25233  -0.24641
 Alpha  occ. eigenvalues --   -0.23820  -0.23569  -0.22053  -0.21041  -0.20464
 Alpha  occ. eigenvalues --   -0.19440  -0.18824  -0.18568  -0.12349   0.04326
 Alpha virt. eigenvalues --    0.06228   0.06550   0.07141   0.08119   0.08162
 Alpha virt. eigenvalues --    0.08611   0.09187   0.09606   0.10383   0.10482
 Alpha virt. eigenvalues --    0.11148   0.11180   0.11657   0.12300   0.12493

  Beta  occ. eigenvalues --  -14.19453 -10.09317 -10.08786 -10.07342 -10.06807
  Beta  occ. eigenvalues --  -10.06755 -10.06401 -10.06361 -10.06281 -10.06231
  Beta  occ. eigenvalues --  -10.06224 -10.05921 -10.05872 -10.05783 -10.05502
  Beta  occ. eigenvalues --   -0.80663  -0.74090  -0.71458  -0.67447  -0.64166
  Beta  occ. eigenvalues --   -0.63667  -0.62771  -0.57891  -0.56235  -0.51698
  Beta  occ. eigenvalues --   -0.51043  -0.50420  -0.47896  -0.45365  -0.41269
  Beta  occ. eigenvalues --   -0.39778  -0.37387  -0.36433  -0.35425  -0.35224
  Beta  occ. eigenvalues --   -0.34294  -0.34151  -0.33415  -0.31877  -0.31517
  Beta  occ. eigenvalues --   -0.30505  -0.28946  -0.28850  -0.27989  -0.27546
  Beta  occ. eigenvalues --   -0.27340  -0.26142  -0.25713  -0.25201  -0.24613
  Beta  occ. eigenvalues --   -0.23796  -0.23542  -0.22023  -0.21012  -0.20439
  Beta  occ. eigenvalues --   -0.19414  -0.18793  -0.18541  -0.12331
  Beta virt. eigenvalues --    0.06231   0.06923   0.07154   0.07601   0.08540
  Beta virt. eigenvalues --    0.08642   0.09079   0.09538   0.09926   0.10681
  Beta virt. eigenvalues --    0.10885   0.11400   0.11450   0.11877   0.12513

 Mulliken charges and spin densities:
               1          2
     1  C    0.397339  -1.164482
     2  C   -1.066359   1.182821
     3  C    0.460396  -0.724253
     4  C   -0.552270  -0.108863
     5  C    0.164475   0.079519
     6  C   -0.709598   0.119346
     7  C    0.586435  -0.661656
     8  C    0.555075  -0.119133
     9  C    0.211043  -0.856101
    10  C   -0.286419   0.236925
    11  C    0.766844  -1.528741
    12  C   -0.697522   0.763394
    13  C    0.282818  -1.092825
    14  N   -0.036322  -0.022819
    15  C    0.538774  -0.830574
    16  H    0.036564   0.096118
    17  H   -0.146930   0.279314
    18  H   -0.084101   0.211797
    19  H   -0.045850   0.210584
    20  H   -0.086114   0.262883
    21  H   -0.021091   0.128665
    22  H   -0.236055   0.405635
    23  H   -0.062448   0.208625
    24  H   -0.154199   0.360756
    25  H    0.074538   0.127727
    26  H    0.049051   0.108275
    27  H   -0.046748   0.102891
    28  H    0.081710   0.104979
    29  H    0.000731   0.218221
    30  H   -0.153114   0.322876
    31  H    0.161548  -0.041881
    32  H    0.072142   0.040070
    33  H   -0.319557   0.515493
    34  H   -0.153075   0.317055
    35  H   -0.125787   0.257688
    36  H   -0.199623   0.399128
    37  H    0.200589  -0.015055
    38  H   -0.326112   0.486983
    39  H    0.259439  -0.159706
    40  H   -0.053521   0.180289
    41  H   -0.150753   0.277594
    42  H   -0.185943   0.320437
 Sum of Mulliken charges =  -1.00000   1.00000

 Dipole moment (field-independent basis, Debye):
    X=              1.6658    Y=              1.3278    Z=             -0.8288  Tot=              2.2858
 Quadrupole moment (field-independent basis, Debye-Ang):
   XX=           -171.7380   YY=           -148.4262   ZZ=           -139.8817
   XY=             -0.3946   XZ=              1.2232   YZ=              0.3344

 Summary of Natural Population Analysis:

                                       Natural Population
                Natural  -----------------------------------------------
    Atom  No    Charge         Core      Valence    Rydberg      Total
 -----------------------------------------------------------------------
      C    1   -0.28035      0.99965     2.27597    0.00474     3.28035
      C    2   -0.11045      0.99960     2.10164    0.00922     3.11045
      C    3   -0.18845      0.99960     2.18023    0.00861     3.18845
      C    4   -0.18900      0.99961     2.18000    0.00939     3.18900
      C    5   -0.10307      0.99956     2.09212    0.01139     3.10307
      C    6   -0.19967      0.99960     2.19152    0.00855     3.19967
      C    7   -0.19113      0.99960     2.18303    0.00849     3.19113
      C    8   -0.10638      0.99956     2.09407    0.01275     3.10638
      C    9   -0.19014      0.99960     2.18158    0.00896     3.19014
      C   10   -0.19322      0.99962     2.18487    0.00873     3.19322
      C   11   -0.19733      0.99960     2.18875    0.00898     3.19733
      C   12   -0.00706      0.99957     1.99363    0.01386     3.00706
      C   13   -0.19102      0.99959     2.18058    0.01085     3.19102
      N   14   -0.34650      0.99974     2.83572    0.01104     3.84650
      C   15   -0.17424      0.99965     2.16801    0.00658     3.17424
      H   16    0.09616      0.00000     0.40276    0.00108     0.40384
      H   17    0.09782      0.00000     0.40120    0.00098     0.40218
      H   18    0.09742      0.00000     0.40163    0.00096     0.40258
      H   19    0.08989      0.00000     0.40835    0.00176     0.41011
      H   20    0.09758      0.00000     0.40145    0.00097     0.40242
      H   21    0.09288      0.00000     0.40544    0.00168     0.40712
      H   22    0.09939      0.00000     0.39955    0.00106     0.40061
      H   23    0.09582      0.00000     0.40297    0.00121     0.40418
      H   24    0.09776      0.00000     0.40070    0.00155     0.40224
      H   25    0.11334      0.00000     0.38471    0.00194     0.38666
      H   26    0.09323      0.00000     0.40547    0.00130     0.40677
      H   27    0.08903      0.00000     0.40883    0.00214     0.41097
      H   28    0.09748      0.00000     0.40152    0.00101     0.40252
      H   29    0.09828      0.00000     0.39994    0.00178     0.40172
      H   30    0.09627      0.00000     0.40233    0.00140     0.40373
      H   31    0.09970      0.00000     0.39889    0.00140     0.40030
      H   32    0.08797      0.00000     0.40975    0.00228     0.41203
      H   33    0.09953      0.00000     0.39943    0.00104     0.40047
      H   34    0.09910      0.00000     0.39971    0.00119     0.40090
      H   35    0.09800      0.00000     0.40053    0.00147     0.40200
      H   36    0.09359      0.00000     0.40466    0.00175     0.40641
      H   37    0.10324      0.00000     0.39532    0.00144     0.39676
      H   38    0.10029      0.00000     0.39856    0.00115     0.39971
      H   39    0.17236      0.00000     0.32327    0.00437     0.32764
      H   40    0.07832      0.00000     0.41988    0.00180     0.42168
      H   41    0.09295      0.00000     0.40608    0.00097     0.40705
      H   42    0.09061      0.00000     0.40803    0.00136     0.40939
 =======================================================================
   * Total *    0.00000     14.99416    43.82267    0.18318    59.00000

 Normal termination of Gaussian 16 at Thu Dec 10 17:47:29 2020.
