 Gaussian 16, Revision A.03,

 -----------------------------------------------------------
 # opt freq B3LYP/6-31G(d) empiricaldispersion=gd3bj scf=xqc
 -----------------------------------------------------------

 ------------------------------
 CID_116949105_JID_117_neutraal
 ------------------------------
 Symbolic Z-matrix:
 Charge =  0 Multiplicity = 1

 SCF Done:  E(RB3LYP) =  -426.428781180     A.U. after   12 cycles
 SCF Done:  E(RB3LYP) =  -426.431214613     A.U. after   11 cycles
 SCF Done:  E(RB3LYP) =  -426.428901777     A.U. after   11 cycles
 SCF Done:  E(RB3LYP) =  -426.430078489     A.U. after   11 cycles
 SCF Done:  E(RB3LYP) =  -426.432025442     A.U. after    8 cycles
 SCF Done:  E(RB3LYP) =  -426.432123944     A.U. after   10 cycles
 SCF Done:  E(RB3LYP) =  -426.432382604     A.U. after   10 cycles
 SCF Done:  E(RB3LYP) =  -426.432429118     A.U. after    9 cycles
 SCF Done:  E(RB3LYP) =  -426.432434665     A.U. after    8 cycles
 SCF Done:  E(RB3LYP) =  -426.432435748     A.U. after    7 cycles
 SCF Done:  E(RB3LYP) =  -426.432436011     A.U. after    6 cycles
 SCF Done:  E(RB3LYP) =  -426.432436054     A.U. after    6 cycles
 Optimization completed.
    -- Stationary point found.

 1\1\GINC-NODE307\FOpt\RB3LYP\6-31G(d)\C8H20N2\VSC10255\08-Dec-2020\0\\
 # opt freq B3LYP/6-31G(d) empiricaldispersion=gd3bj scf=xqc\\CID_11694
 9105_JID_117_neutraal\\0,1\C,0.9636226299,0.037178424,0.0520549006\C,0
 .7039951714,0.5453251588,1.4730905391\C,1.0150168942,2.0355848233,1.68
 25269488\C,0.2667105574,3.0198486653,0.7431612592\C,-1.2811369032,3.06
 88455368,0.6621373192\C,-1.9607054044,3.1400450392,2.0449246948\C,-1.6
 555333255,4.3295155649,-0.1348526123\N,-1.7703104126,1.9208664438,-0.1
 331293476\N,0.9453389389,2.3166898518,3.1223900537\C,1.3968566785,3.63

 Normal termination of Gaussian 16 at Tue Dec  8 10:18:40 2020.

 --------------------------------------------------------------------
 #N Geom=AllCheck Guess=TCheck SCRF=Check GenChk RB3LYP/6-31G(d) Freq
 --------------------------------------------------------------------

 Structure from the checkpoint file:  "JID_117.chk"
 ------------------------------
 CID_116949105_JID_117_neutraal
 ------------------------------
 Charge =  0 Multiplicity = 1

 SCF Done:  E(RB3LYP) =  -426.432436054     A.U. after    1 cycles

  Exact polarizability: 104.496  -0.103 104.489   1.594   0.503  88.166
 Approx polarizability: 136.071   0.950 137.185   2.375   1.616 131.993

                      1                      2                      3
                      A                      A                      A
 Frequencies --     52.7135                92.1757               138.9938
 Red. masses --      2.9710                 2.5051                 2.7447
 Frc consts  --      0.0049                 0.0125                 0.0312
 IR Inten    --      0.4657                 0.9725                 2.0056

                      4                      5                      6
                      A                      A                      A
 Frequencies --    175.2997               193.7067               213.6385
 Red. masses --      1.5969                 2.0314                 2.1876
 Frc consts  --      0.0289                 0.0449                 0.0588
 IR Inten    --      0.5472                 1.3405                 0.6018

                      7                      8                      9
                      A                      A                      A
 Frequencies --    242.1160               251.6980               260.2050
 Red. masses --      1.5696                 1.3758                 1.4947
 Frc consts  --      0.0542                 0.0514                 0.0596
 IR Inten    --      0.1817                 2.1371                 8.2164

                     10                     11                     12
                      A                      A                      A
 Frequencies --    278.2638               305.5422               329.9813
 Red. masses --      1.3682                 1.6735                 1.3313
 Frc consts  --      0.0624                 0.0920                 0.0854
 IR Inten    --      1.5907                21.4232                29.6035

                     13                     14                     15
                      A                      A                      A
 Frequencies --    340.9715               374.6244               412.5837
 Red. masses --      1.1665                 2.0706                 2.5027
 Frc consts  --      0.0799                 0.1712                 0.2510
 IR Inten    --     14.7600                 0.1937                 3.4748

                     16                     17                     18
                      A                      A                      A
 Frequencies --    426.2721               444.0594               451.2916
 Red. masses --      2.3349                 2.7846                 2.5882
 Frc consts  --      0.2500                 0.3235                 0.3106
 IR Inten    --      1.1133                 1.2628                 5.7216

                     19                     20                     21
                      A                      A                      A
 Frequencies --    476.1535               624.5243               724.1303
 Red. masses --      2.0097                 2.1778                 2.6935
 Frc consts  --      0.2685                 0.5005                 0.8321
 IR Inten    --      5.1239                15.5406                30.6255

                     22                     23                     24
                      A                      A                      A
 Frequencies --    752.5759               803.3596               854.5626
 Red. masses --      1.7440                 1.5253                 1.9251
 Frc consts  --      0.5820                 0.5800                 0.8283
 IR Inten    --     77.1420                 1.5252                14.6785

                     25                     26                     27
                      A                      A                      A
 Frequencies --    871.1624               922.0589               931.2580
 Red. masses --      1.7457                 1.7041                 1.5363
 Frc consts  --      0.7806                 0.8536                 0.7850
 IR Inten    --     38.5787                10.9612                56.0021

                     28                     29                     30
                      A                      A                      A
 Frequencies --    941.6693               969.1859              1002.9170
 Red. masses --      1.5982                 1.6392                 1.8119
 Frc consts  --      0.8350                 0.9072                 1.0738
 IR Inten    --     10.2425                 8.1249                 7.7282

                     31                     32                     33
                      A                      A                      A
 Frequencies --   1005.4559              1044.2791              1068.8102
 Red. masses --      1.7571                 1.3346                 1.9044
 Frc consts  --      1.0466                 0.8575                 1.2818
 IR Inten    --      6.8365                 4.9247                 2.1527

                     34                     35                     36
                      A                      A                      A
 Frequencies --   1093.7331              1120.8277              1136.3832
 Red. masses --      1.3975                 1.9586                 1.4949
 Frc consts  --      0.9850                 1.4497                 1.1374
 IR Inten    --      8.3131                 3.3843                 1.5254

                     37                     38                     39
                      A                      A                      A
 Frequencies --   1152.4458              1175.2816              1216.6001
 Red. masses --      1.8844                 1.7620                 2.2645
 Frc consts  --      1.4746                 1.4340                 1.9747
 IR Inten    --     12.3520                24.9537                34.6593

                     40                     41                     42
                      A                      A                      A
 Frequencies --   1235.1345              1258.5657              1300.8275
 Red. masses --      2.3880                 1.9824                 1.5153
 Frc consts  --      2.1464                 1.8501                 1.5108
 IR Inten    --     26.6704                 6.4407                 5.3458

                     43                     44                     45
                      A                      A                      A
 Frequencies --   1334.8671              1336.6136              1350.1728
 Red. masses --      1.4825                 1.3504                 1.3323
 Frc consts  --      1.5564                 1.4215                 1.4310
 IR Inten    --      3.1939                 1.0275                 1.2860

                     46                     47                     48
                      A                      A                      A
 Frequencies --   1376.6135              1410.0439              1424.3376
 Red. masses --      1.4650                 1.4193                 1.2702
 Frc consts  --      1.6358                 1.6626                 1.5183
 IR Inten    --     13.9149                 3.1416                 8.3473

                     49                     50                     51
                      A                      A                      A
 Frequencies --   1431.1674              1443.3307              1448.4841
 Red. masses --      1.4565                 1.2381                 1.2389
 Frc consts  --      1.7577                 1.5196                 1.5315
 IR Inten    --      0.2715                 0.8968                 9.9513

                     52                     53                     54
                      A                      A                      A
 Frequencies --   1480.6900              1499.9144              1511.9284
 Red. masses --      1.1635                 1.0896                 1.1372
 Frc consts  --      1.5030                 1.4442                 1.5316
 IR Inten    --      2.3762                 7.0916                 8.5719

                     55                     56                     57
                      A                      A                      A
 Frequencies --   1516.9030              1521.2105              1524.4119
 Red. masses --      1.0572                 1.0798                 1.0637
 Frc consts  --      1.4333                 1.4722                 1.4564
 IR Inten    --      1.0316                 2.0697                10.1801

                     58                     59                     60
                      A                      A                      A
 Frequencies --   1529.8938              1533.0746              1537.5817
 Red. masses --      1.0579                 1.0614                 1.0682
 Frc consts  --      1.4588                 1.4698                 1.4879
 IR Inten    --      2.9485                 0.3590                 9.9145

                     61                     62                     63
                      A                      A                      A
 Frequencies --   1544.7832              1552.1637              1555.5999
 Red. masses --      1.0621                 1.0559                 1.0551
 Frc consts  --      1.4933                 1.4989                 1.5043
 IR Inten    --      6.5952                 5.9658                 1.8705

                     64                     65                     66
                      A                      A                      A
 Frequencies --   1699.1668              2960.3767              2993.5873
 Red. masses --      1.0910                 1.0600                 1.0817
 Frc consts  --      1.8559                 5.4734                 5.7114
 IR Inten    --     37.4191                77.5704                10.0844

                     67                     68                     69
                      A                      A                      A
 Frequencies --   3017.4574              3036.5427              3043.0807
 Red. masses --      1.0713                 1.0361                 1.0399
 Frc consts  --      5.7472                 5.6287                 5.6738
 IR Inten    --     54.3618                27.0811                26.5524

                     70                     71                     72
                      A                      A                      A
 Frequencies --   3047.3736              3053.9633              3066.9289
 Red. masses --      1.0387                 1.0605                 1.0725
 Frc consts  --      5.6833                 5.8277                 5.9439
 IR Inten    --     41.6054                28.5248                55.9192

                     73                     74                     75
                      A                      A                      A
 Frequencies --   3080.3325              3089.0665              3098.0686
 Red. masses --      1.0912                 1.1002                 1.1008
 Frc consts  --      6.1003                 6.1853                 6.2248
 IR Inten    --     35.5660                25.5464                26.1349

                     76                     77                     78
                      A                      A                      A
 Frequencies --   3106.7989              3108.1354              3111.5555
 Red. masses --      1.1014                 1.0986                 1.1028
 Frc consts  --      6.2635                 6.2528                 6.2909
 IR Inten    --     33.0122                41.4176                32.6436

                     79                     80                     81
                      A                      A                      A
 Frequencies --   3113.8127              3133.8346              3138.8592
 Red. masses --      1.1017                 1.1028                 1.1008
 Frc consts  --      6.2934                 6.3811                 6.3897
 IR Inten    --     51.3192                27.6889                16.6941

                     82                     83                     84
                      A                      A                      A
 Frequencies --   3456.6587              3538.3557              3549.7838
 Red. masses --      1.0519                 1.0729                 1.0889
 Frc consts  --      7.4049                 7.9141                 8.0841
 IR Inten    --      5.4263                 0.7904                 0.9175

 - Thermochemistry -
 -------------------
 Temperature   298.150 Kelvin.  Pressure   1.00000 Atm.
 Atom     1 has atomic number  6 and mass  12.00000

 Molecular mass:   144.16265 amu.
 Principal axes and moments of inertia in atomic units:
                           1         2         3
     Eigenvalues --  1331.634051670.970932459.27373
           X            0.99893  -0.04589   0.00526
           Y            0.04588   0.99894   0.00300
           Z           -0.00540  -0.00276   0.99998
 This molecule is an asymmetric top.
 Rotational symmetry number  1.
 Warning -- assumption of classical behavior for rotation
           may cause significant error
 Rotational temperatures (Kelvin)      0.06504     0.05183     0.03522
 Rotational constants (GHZ):           1.35528     1.08006     0.73385
 Zero-point vibrational energy     741526.6 (Joules/Mol)
                                  177.22911 (Kcal/Mol)
 Warning -- explicit consideration of  19 degrees of freedom as
           vibrations may cause significant error
 Vibrational temperatures:     75.84   132.62   199.98   252.22   278.70
          (Kelvin)            307.38   348.35   362.14   374.38   400.36
                              439.61   474.77   490.58   539.00   593.62
                              613.31   638.90   649.31   685.08   898.55
                             1041.86  1082.79  1155.86  1229.52  1253.41
                             1326.64  1339.87  1354.85  1394.44  1442.97
                             1446.63  1502.48  1537.78  1573.64  1612.62
                             1635.00  1658.11  1690.97  1750.42  1777.08
                             1810.80  1871.60  1920.58  1923.09  1942.60
                             1980.64  2028.74  2049.30  2059.13  2076.63
                             2084.05  2130.38  2158.04  2175.33  2182.49
                             2188.68  2193.29  2201.18  2205.75  2212.24
                             2222.60  2233.22  2238.16  2444.72  4259.32
                             4307.10  4341.45  4368.91  4378.31  4384.49
                             4393.97  4412.63  4431.91  4444.48  4457.43
                             4469.99  4471.91  4476.83  4480.08  4508.89
                             4516.12  4973.36  5090.90  5107.35

 Zero-point correction=                           0.282433 (Hartree/Particle)
 Thermal correction to Energy=                    0.295129
 Thermal correction to Enthalpy=                  0.296074
 Thermal correction to Gibbs Free Energy=         0.245074
 Sum of electronic and zero-point Energies=           -426.150003
 Sum of electronic and thermal Energies=              -426.137307
 Sum of electronic and thermal Enthalpies=            -426.136362
 Sum of electronic and thermal Free Energies=         -426.187362

                     E (Thermal)             CV                S
                      KCal/Mol        Cal/Mol-Kelvin    Cal/Mol-Kelvin
 Total                  185.196             48.843            107.337
 Electronic               0.000              0.000              0.000
 Translational            0.889              2.981             40.808
 Rotational               0.889              2.981             30.082
 Vibrational            183.419             42.882             36.446
 Vibration     1          0.596              1.977              4.713
 Vibration     2          0.602              1.955              3.613
 Vibration     3          0.615              1.914              2.818
 Vibration     4          0.627              1.873              2.378
 Vibration     5          0.635              1.849              2.192
 Vibration     6          0.644              1.820              2.012
 Vibration     7          0.658              1.776              1.787
 Vibration     8          0.664              1.760              1.719
 Vibration     9          0.668              1.745              1.660
 Vibration    10          0.679              1.714              1.544
 Vibration    11          0.696              1.663              1.386
 Vibration    12          0.713              1.616              1.260
 Vibration    13          0.720              1.594              1.208
 Vibration    14          0.746              1.524              1.061
 Vibration    15          0.776              1.443              0.918
 Vibration    16          0.788              1.413              0.871
 Vibration    17          0.804              1.374              0.814
 Vibration    18          0.810              1.358              0.792
 Vibration    19          0.833              1.303              0.721

 Optimization completed.
    -- Stationary point found.

 1\1\GINC-NODE307\Freq\RB3LYP\6-31G(d)\C8H20N2\VSC10255\08-Dec-2020\0\\
 #N Geom=AllCheck Guess=TCheck SCRF=Check GenChk RB3LYP/6-31G(d) Freq\\
 CID_116949105_JID_117_neutraal\\0,1\C,0.9636226299,0.037178424,0.05205
 49006\C,0.7039951714,0.5453251588,1.4730905391\C,1.0150168942,2.035584
 8233,1.6825269488\C,0.2667105574,3.0198486653,0.7431612592\C,-1.281136
 9032,3.0688455368,0.6621373192\C,-1.9607054044,3.1400450392,2.04492469
 48\C,-1.6555333255,4.3295155649,-0.1348526123\N,-1.7703104126,1.920866
 4438,-0.1331293476\N,0.9453389389,2.3166898518,3.1223900537\C,1.396856

 Normal termination of Gaussian 16 at Tue Dec  8 10:24:45 2020.

 ----------------------------------------------------------------------
 # B3LYP/6-311++G(d,p) empiricaldispersion=gd3bj scf=xqc pop=npa geom=c
 heck
 ----------------------------------------------------------------------

 --------------------------------------
 CID_116949105_JID_117_Energie_neutraal
 --------------------------------------
 Structure from the checkpoint file:  "JID_117.chk"
 Charge =  0 Multiplicity = 1

 SCF Done:  E(RB3LYP) =  -426.565429174     A.U. after   13 cycles
 Normal termination of Gaussian 16 at Tue Dec  8 10:26:59 2020.

 ----------------------------------------------------------------------
 # B3LYP/6-311++G(d,p) empiricaldispersion=gd3bj scf=xqc pop=npa geom=c
 heck
 ----------------------------------------------------------------------

 ------------------------------------
 CID_116949105_JID_117_Energie_kation
 ------------------------------------
 Structure from the checkpoint file:  "JID_117.chk"
 Charge =  1 Multiplicity = 2

 SCF Done:  E(UB3LYP) =  -426.266088738     A.U. after   24 cycles
 Normal termination of Gaussian 16 at Tue Dec  8 10:34:14 2020.
 Gaussian 16:  ES64L-G16RevA.03 25-Dec-2016

 -----------------------------------
 CID_116949105_JID_117_Energie_anion
 -----------------------------------
 Structure from the checkpoint file:  "JID_117.chk"
 Charge = -1 Multiplicity = 2

                         Standard orientation:
 ---------------------------------------------------------------------
 Center     Atomic      Atomic             Coordinates (Angstroms)
 Number     Number       Type             X           Y           Z
 ---------------------------------------------------------------------
      1          6           0       -1.161537    2.659660   -0.286882
      2          6           0       -1.478853    1.367624    0.471350
      3          6           0       -1.244580    0.081810   -0.336901
      4          6           0        0.188486   -0.107312   -0.904087
      5          6           0        1.442609   -0.121285    0.007930
      6          6           0        1.298602   -1.056530    1.225946
      7          6           0        2.623024   -0.608433   -0.848786
      8          7           0        1.773816    1.262880    0.412881
      9          7           0       -1.806246   -1.042087    0.423669
     10          6           0       -1.850582   -2.320751   -0.267277
     11          1           0       -0.098008    2.736828   -0.529546
     12          1           0       -1.438403    3.536791    0.308887
     13          1           0       -1.729105    2.705564   -1.224525
     14          1           0       -0.904847    1.328886    1.409724
     15          1           0       -2.532039    1.359723    0.774417
     16          1           0       -1.881246    0.162060   -1.232197
     17          1           0        0.182530   -1.052156   -1.461498
     18          1           0        0.361501    0.676627   -1.650299
     19          1           0        0.977398   -2.064491    0.938243
     20          1           0        2.262298   -1.149167    1.742451
     21          1           0        0.581335   -0.659854    1.952789
     22          1           0        2.746853    0.032082   -1.727448
     23          1           0        3.557396   -0.582302   -0.273319
     24          1           0        2.465811   -1.639286   -1.183721
     25          1           0        1.093142    1.595627    1.092779
     26          1           0        2.669006    1.254098    0.903202
     27          1           0       -1.319392   -1.144944    1.308675
     28          1           0       -0.870389   -2.753346   -0.537870
     29          1           0       -2.374639   -3.049915    0.360112
     30          1           0       -2.425212   -2.207062   -1.194464
 ---------------------------------------------------------------------

 SCF Done:  E(UB3LYP) =  -426.549805352     A.U. after   27 cycles

 The electronic state is 2-A.
 Alpha  occ. eigenvalues --  -14.18774 -14.18007 -10.10012 -10.09208 -10.07939
 Alpha  occ. eigenvalues --  -10.06133 -10.05419 -10.05258 -10.04904 -10.04766
 Alpha  occ. eigenvalues --   -0.80117  -0.78210  -0.67838  -0.65542  -0.60472
 Alpha  occ. eigenvalues --   -0.58201  -0.56804  -0.52153  -0.48238  -0.43698
 Alpha  occ. eigenvalues --   -0.38456  -0.37985  -0.36244  -0.34741  -0.34283
 Alpha  occ. eigenvalues --   -0.32488  -0.31295  -0.30613  -0.29684  -0.28459
 Alpha  occ. eigenvalues --   -0.27250  -0.26869  -0.26369  -0.25293  -0.24920
 Alpha  occ. eigenvalues --   -0.23776  -0.22936  -0.21752  -0.20330  -0.13654
 Alpha  occ. eigenvalues --   -0.11698   0.04714
 Alpha virt. eigenvalues --    0.07213   0.07368   0.08146   0.09551   0.09819
 Alpha virt. eigenvalues --    0.10079   0.10218   0.10406   0.11933   0.12588
 Alpha virt. eigenvalues --    0.13087   0.13395   0.13482   0.13763   0.14302

  Beta  occ. eigenvalues --  -14.18763 -14.17971 -10.10010 -10.09202 -10.07904
  Beta  occ. eigenvalues --  -10.06117 -10.05402 -10.05244 -10.04858 -10.04731
  Beta  occ. eigenvalues --   -0.80093  -0.78161  -0.67808  -0.65488  -0.60430
  Beta  occ. eigenvalues --   -0.58127  -0.56744  -0.52093  -0.48181  -0.43632
  Beta  occ. eigenvalues --   -0.38407  -0.37951  -0.36195  -0.34706  -0.34242
  Beta  occ. eigenvalues --   -0.32457  -0.31253  -0.30570  -0.29650  -0.28422
  Beta  occ. eigenvalues --   -0.27209  -0.26834  -0.26331  -0.25256  -0.24878
  Beta  occ. eigenvalues --   -0.23743  -0.22907  -0.21724  -0.20289  -0.13616
  Beta  occ. eigenvalues --   -0.11676
  Beta virt. eigenvalues --    0.06934   0.07967   0.08131   0.08687   0.10212
  Beta virt. eigenvalues --    0.10282   0.10442   0.10807   0.10892   0.12486
  Beta virt. eigenvalues --    0.12885   0.13418   0.13669   0.13864   0.14249

 Mulliken charges and spin densities:
               1          2
     1  C    0.164153  -0.856885
     2  C    0.032546  -0.046362
     3  C   -1.173456   0.640545
     4  C    2.173894  -2.551643
     5  C   -3.040103   3.240691
     6  C    1.039882  -1.769832
     7  C    1.514982  -1.975824
     8  N   -0.303176   0.056814
     9  N   -0.118330   0.127708
    10  C    0.713016  -1.058766
    11  H    0.075205   0.112990
    12  H   -0.196583   0.322582
    13  H    0.000452   0.115544
    14  H   -0.169472   0.287560
    15  H   -0.042884   0.230394
    16  H    0.005654   0.179541
    17  H    0.099393   0.070860
    18  H    0.294274  -0.131044
    19  H   -0.183299   0.361072
    20  H   -0.556862   0.710090
    21  H   -0.162792   0.273570
    22  H   -0.162763   0.321978
    23  H   -0.305159   0.434482
    24  H   -0.176764   0.317947
    25  H    0.125490   0.089276
    26  H   -0.146262   0.389636
    27  H    0.261918  -0.048128
    28  H   -0.215880   0.344192
    29  H   -0.391823   0.526656
    30  H   -0.155252   0.284358
 Sum of Mulliken charges =  -1.00000   1.00000

 Dipole moment (field-independent basis, Debye):
    X=             -2.7150    Y=              2.0538    Z=             -1.7120  Tot=              3.8105
 Quadrupole moment (field-independent basis, Debye-Ang):
   XX=           -123.2366   YY=           -117.4152   ZZ=           -100.2159
   XY=             -1.9036   XZ=             -2.8290   YZ=             -1.2499

 Summary of Natural Population Analysis:

                                       Natural Population
                Natural  -----------------------------------------------
    Atom  No    Charge         Core      Valence    Rydberg      Total
 -----------------------------------------------------------------------
      C    1   -0.29064      0.99966     2.28666    0.00432     3.29064
      C    2   -0.19318      0.99961     2.18420    0.00937     3.19318
      C    3   -0.00409      0.99958     1.99183    0.01267     3.00409
      C    4   -0.20235      0.99956     2.19198    0.01082     3.20235
      C    5    0.04593      0.99959     1.94016    0.01432     2.95407
      C    6   -0.29452      0.99961     2.28684    0.00807     3.29452
      C    7   -0.28353      0.99962     2.27612    0.00779     3.28353
      N    8   -0.42726      0.99975     2.91636    0.01114     3.92726
      N    9   -0.34360      0.99974     2.83218    0.01168     3.84360
      C   10   -0.17876      0.99966     2.17052    0.00859     3.17876
      H   11    0.10864      0.00000     0.38998    0.00138     0.39136
      H   12    0.09675      0.00000     0.40226    0.00099     0.40325
      H   13    0.09278      0.00000     0.40614    0.00108     0.40722
      H   14    0.08939      0.00000     0.40902    0.00159     0.41061
      H   15    0.10157      0.00000     0.39699    0.00144     0.39843
      H   16    0.08772      0.00000     0.41044    0.00184     0.41228
      H   17    0.10222      0.00000     0.39628    0.00150     0.39778
      H   18    0.10542      0.00000     0.39317    0.00141     0.39458
      H   19    0.10199      0.00000     0.39634    0.00167     0.39801
      H   20    0.10237      0.00000     0.39569    0.00193     0.39763
      H   21    0.09400      0.00000     0.40417    0.00183     0.40600
      H   22    0.10180      0.00000     0.39707    0.00113     0.39820
      H   23    0.09884      0.00000     0.39984    0.00131     0.40116
      H   24    0.10094      0.00000     0.39776    0.00129     0.39906
      H   25    0.17410      0.00000     0.32354    0.00236     0.32590
      H   26    0.17544      0.00000     0.32206    0.00250     0.32456
      H   27    0.17307      0.00000     0.32332    0.00361     0.32693
      H   28    0.08088      0.00000     0.41742    0.00170     0.41912
      H   29    0.09438      0.00000     0.40460    0.00102     0.40562
      H   30    0.08969      0.00000     0.40911    0.00119     0.41031
 =======================================================================
   * Total *    0.00000      9.99639    30.87206    0.13155    41.00000

 Normal termination of Gaussian 16 at Tue Dec  8 10:44:26 2020.
