 Gaussian 16, Revision A.03,

 -----------------------------------------------------------
 # opt freq B3LYP/6-31G(d) empiricaldispersion=gd3bj scf=xqc
 -----------------------------------------------------------

 --------------------------------
 CID_104850005_JID_10768_neutraal
 --------------------------------
 Symbolic Z-matrix:
 Charge =  0 Multiplicity = 1

 SCF Done:  E(RB3LYP) =  -878.125508882     A.U. after   15 cycles
 SCF Done:  E(RB3LYP) =  -878.131548952     A.U. after   13 cycles
 SCF Done:  E(RB3LYP) =  -878.131665577     A.U. after   14 cycles
 SCF Done:  E(RB3LYP) =  -878.133228369     A.U. after   13 cycles
 SCF Done:  E(RB3LYP) =  -878.133481576     A.U. after   12 cycles
 SCF Done:  E(RB3LYP) =  -878.133396537     A.U. after   12 cycles
 SCF Done:  E(RB3LYP) =  -878.133577169     A.U. after   11 cycles
 SCF Done:  E(RB3LYP) =  -878.133603714     A.U. after   10 cycles
 SCF Done:  E(RB3LYP) =  -878.133609756     A.U. after    9 cycles
 SCF Done:  E(RB3LYP) =  -878.133610286     A.U. after    8 cycles
 SCF Done:  E(RB3LYP) =  -878.133632433     A.U. after   11 cycles
 SCF Done:  E(RB3LYP) =  -878.133628421     A.U. after   11 cycles
 SCF Done:  E(RB3LYP) =  -878.133633733     A.U. after   10 cycles
 SCF Done:  E(RB3LYP) =  -878.133635883     A.U. after   10 cycles
 SCF Done:  E(RB3LYP) =  -878.133635940     A.U. after    7 cycles
 Optimization completed.
    -- Stationary point found.
 Normal termination of Gaussian 16 at Sat Dec 12 16:54:14 2020.

 --------------------------------------------------------------------
 #N Geom=AllCheck Guess=TCheck SCRF=Check GenChk RB3LYP/6-31G(d) Freq
 --------------------------------------------------------------------

 Structure from the checkpoint file:  "JID_10768.chk"
 --------------------------------
 CID_104850005_JID_10768_neutraal
 --------------------------------
 Charge =  0 Multiplicity = 1

 SCF Done:  E(RB3LYP) =  -878.133635940     A.U. after    1 cycles

  Exact polarizability: 285.581   8.658 153.124  14.959  -5.835 117.969
 Approx polarizability: 420.569  28.712 255.726  29.830 -19.394 181.166

                      1                      2                      3
                      A                      A                      A
 Frequencies --     35.4974                37.9547                59.8052
 Red. masses --      7.8132                 4.3742                 2.0019
 Frc consts  --      0.0058                 0.0037                 0.0042
 IR Inten    --      3.4689                 2.5618                 3.4936

                      4                      5                      6
                      A                      A                      A
 Frequencies --     68.5393               104.8409               120.3336
 Red. masses --      3.7375                 3.5812                 3.0602
 Frc consts  --      0.0103                 0.0232                 0.0261
 IR Inten    --      2.2348                 1.8611                 2.3244

                      7                      8                      9
                      A                      A                      A
 Frequencies --    129.8732               140.1267               150.0262
 Red. masses --      2.7035                 6.2778                 3.7473
 Frc consts  --      0.0269                 0.0726                 0.0497
 IR Inten    --      0.6112                 1.6761                 1.1167

                     10                     11                     12
                      A                      A                      A
 Frequencies --    187.1817               205.3002               246.0211
 Red. masses --      3.3065                 2.9291                 8.2782
 Frc consts  --      0.0683                 0.0727                 0.2952
 IR Inten    --      4.5893                 6.2143                 0.0880

                     13                     14                     15
                      A                      A                      A
 Frequencies --    257.8661               287.7569               309.4253
 Red. masses --      4.6736                 3.1771                 3.0760
 Frc consts  --      0.1831                 0.1550                 0.1735
 IR Inten    --      8.9352                 0.8363                 3.2001

                     16                     17                     18
                      A                      A                      A
 Frequencies --    350.2296               367.7353               427.0349
 Red. masses --      5.0393                 4.4594                 5.8328
 Frc consts  --      0.3642                 0.3553                 0.6267
 IR Inten    --      3.9129                 0.6745                 4.8086

                     19                     20                     21
                      A                      A                      A
 Frequencies --    440.0543               464.4382               486.5266
 Red. masses --      6.4636                 3.3363                 4.9669
 Frc consts  --      0.7375                 0.4240                 0.6927
 IR Inten    --      0.4334                 3.3428                 1.0314

                     22                     23                     24
                      A                      A                      A
 Frequencies --    502.7596               545.8172               556.2820
 Red. masses --      3.9388                 6.0256                 4.2334
 Frc consts  --      0.5866                 1.0576                 0.7718
 IR Inten    --      7.1103                 3.5429                 0.2739

                     25                     26                     27
                      A                      A                      A
 Frequencies --    571.2863               600.4090               616.6755
 Red. masses --      4.6763                 4.7238                 4.0431
 Frc consts  --      0.8992                 1.0033                 0.9059
 IR Inten    --      4.8429                 5.5564                12.8410

                     28                     29                     30
                      A                      A                      A
 Frequencies --    638.7277               661.2530               669.1623
 Red. masses --      5.7433                 4.4604                 4.3261
 Frc consts  --      1.3805                 1.1491                 1.1413
 IR Inten    --     10.6729                 2.7354                 7.1963

                     31                     32                     33
                      A                      A                      A
 Frequencies --    686.8612               708.1547               733.8140
 Red. masses --      3.5597                 1.4602                 5.5293
 Frc consts  --      0.9895                 0.4314                 1.7543
 IR Inten    --     12.1427                26.7402                 8.8478

                     34                     35                     36
                      A                      A                      A
 Frequencies --    753.4057               762.1987               849.7681
 Red. masses --      2.6843                 3.9120                 1.4707
 Frc consts  --      0.8977                 1.3390                 0.6257
 IR Inten    --      2.1045                 1.3858                20.2398

                     37                     38                     39
                      A                      A                      A
 Frequencies --    864.8074               878.8477               903.7114
 Red. masses --      1.3253                 1.6069                 2.6298
 Frc consts  --      0.5840                 0.7313                 1.2654
 IR Inten    --      6.1299                 2.0008                 4.8734

                     40                     41                     42
                      A                      A                      A
 Frequencies --    910.8413               914.3131               928.0505
 Red. masses --      1.8125                 1.8413                 3.5136
 Frc consts  --      0.8860                 0.9069                 1.7830
 IR Inten    --     11.2232                 3.7741                11.9470

                     43                     44                     45
                      A                      A                      A
 Frequencies --    964.1800               966.0391              1016.2859
 Red. masses --      1.3179                 5.4850                 2.3600
 Frc consts  --      0.7219                 3.0159                 1.4361
 IR Inten    --      0.0994                31.7871                 5.7135

                     46                     47                     48
                      A                      A                      A
 Frequencies --   1052.0626              1063.2817              1083.7467
 Red. masses --      4.2826                 1.9702                 1.9500
 Frc consts  --      2.7928                 1.3123                 1.3494
 IR Inten    --     71.0421                 6.5864                 2.2646

                     49                     50                     51
                      A                      A                      A
 Frequencies --   1094.9164              1140.1116              1166.1722
 Red. masses --      2.2585                 2.0963                 1.5520
 Frc consts  --      1.5953                 1.6054                 1.2436
 IR Inten    --     34.4467                28.2887                18.6116

                     52                     53                     54
                      A                      A                      A
 Frequencies --   1171.0710              1180.2419              1185.7550
 Red. masses --      1.3663                 1.8258                 1.3494
 Frc consts  --      1.1040                 1.4985                 1.1178
 IR Inten    --      7.6914                11.0232                 4.5864

                     55                     56                     57
                      A                      A                      A
 Frequencies --   1189.3434              1218.2822              1229.4439
 Red. masses --      2.0934                 1.4328                 1.5660
 Frc consts  --      1.7447                 1.2530                 1.3947
 IR Inten    --      9.7108                 3.3101                 7.1829

                     58                     59                     60
                      A                      A                      A
 Frequencies --   1271.5435              1281.4785              1300.9607
 Red. masses --      1.6584                 1.4808                 1.8359
 Frc consts  --      1.5798                 1.4327                 1.8308
 IR Inten    --     30.9306                 9.9211                54.7853

                     61                     62                     63
                      A                      A                      A
 Frequencies --   1305.1815              1337.0109              1354.6493
 Red. masses --      2.5816                 4.5533                 3.0889
 Frc consts  --      2.5910                 4.7957                 3.3397
 IR Inten    --     49.9896                79.1134                 7.7180

                     64                     65                     66
                      A                      A                      A
 Frequencies --   1361.3794              1383.6510              1391.7175
 Red. masses --      1.4821                 1.9864                 1.6004
 Frc consts  --      1.6184                 2.2406                 1.8264
 IR Inten    --      7.9407                 0.7825                 7.8201

                     67                     68                     69
                      A                      A                      A
 Frequencies --   1435.4435              1452.5591              1488.2040
 Red. masses --      3.9290                 3.5311                 1.2131
 Frc consts  --      4.7699                 4.3896                 1.5830
 IR Inten    --     43.2317                37.7252                43.8775

                     70                     71                     72
                      A                      A                      A
 Frequencies --   1500.0709              1505.1660              1511.1648
 Red. masses --      3.1466                 1.3603                 1.1958
 Frc consts  --      4.1717                 1.8157                 1.6089
 IR Inten    --    114.3433                 7.2683                30.3368

                     73                     74                     75
                      A                      A                      A
 Frequencies --   1520.4631              1525.8736              1532.9178
 Red. masses --      1.0704                 1.1328                 1.0558
 Frc consts  --      1.4580                 1.5539                 1.4617
 IR Inten    --      7.6608                 9.5267                 3.3244

                     76                     77                     78
                      A                      A                      A
 Frequencies --   1535.6546              1555.9310              1595.2926
 Red. masses --      3.5940                 3.4128                 6.6167
 Frc consts  --      4.9936                 4.8680                 9.9214
 IR Inten    --     42.4034               225.3471                15.2545

                     79                     80                     81
                      A                      A                      A
 Frequencies --   1617.2902              1663.5823              1778.0239
 Red. masses --      7.1135                 6.2421                12.1103
 Frc consts  --     10.9625                10.1782                22.5570
 IR Inten    --     28.0407                11.0208               355.1979

                     82                     83                     84
                      A                      A                      A
 Frequencies --   2354.1980              3023.1911              3045.2208
 Red. masses --     12.6794                 1.0706                 1.0627
 Frc consts  --     41.4033                 5.7650                 5.8061
 IR Inten    --     35.6280                12.1325                11.4250

                     85                     86                     87
                      A                      A                      A
 Frequencies --   3052.4078              3054.9090              3080.9483
 Red. masses --      1.0630                 1.0354                 1.0974
 Frc consts  --      5.8351                 5.6931                 6.1373
 IR Inten    --     31.4666                44.9137                22.2512

                     88                     89                     90
                      A                      A                      A
 Frequencies --   3099.0450              3116.9964              3134.7916
 Red. masses --      1.1035                 1.0929                 1.1018
 Frc consts  --      6.2445                 6.2563                 6.3792
 IR Inten    --     37.2439                21.6090                19.0964

                     91                     92                     93
                      A                      A                      A
 Frequencies --   3173.5555              3215.1356              3232.9438
 Red. masses --      1.1053                 1.0893                 1.0950
 Frc consts  --      6.5589                 6.6344                 6.7431
 IR Inten    --     13.4992                 2.4100                 1.4207

                     94                     95                     96
                      A                      A                      A
 Frequencies --   3235.5880              3273.8095              3291.8686
 Red. masses --      1.0925                 1.0895                 1.1047
 Frc consts  --      6.7385                 6.8799                 7.0531
 IR Inten    --      0.0290                 0.7464                 0.9269

 - Thermochemistry -
 -------------------
 Temperature   298.150 Kelvin.  Pressure   1.00000 Atm.
 Atom     1 has atomic number  6 and mass  12.00000

 Molecular mass:   266.10553 amu.
 Principal axes and moments of inertia in atomic units:
                           1         2         3
     Eigenvalues --  2109.349069719.09591**********
           X            0.99992  -0.01134  -0.00511
           Y            0.01145   0.99969   0.02223
           Z            0.00486  -0.02229   0.99974
 This molecule is an asymmetric top.
 Rotational symmetry number  1.
 Warning -- assumption of classical behavior for rotation
           may cause significant error
 Rotational temperatures (Kelvin)      0.04106     0.00891     0.00858
 Rotational constants (GHZ):           0.85559     0.18569     0.17878
 Zero-point vibrational energy     708455.2 (Joules/Mol)
                                  169.32487 (Kcal/Mol)
 Warning -- explicit consideration of  27 degrees of freedom as
           vibrations may cause significant error
 Vibrational temperatures:     51.07    54.61    86.05    98.61   150.84
          (Kelvin)            173.13   186.86   201.61   215.85   269.31
                              295.38   353.97   371.01   414.02   445.19
                              503.90   529.09   614.41   633.14   668.22
                              700.00   723.36   785.31   800.37   821.95
                              863.85   887.26   918.99   951.40   962.78
                              988.24  1018.88  1055.79  1083.98  1096.63
                             1222.63  1244.26  1264.47  1300.24  1310.50
                             1315.49  1335.26  1387.24  1389.91  1462.21
                             1513.68  1529.83  1559.27  1575.34  1640.37
                             1677.86  1684.91  1698.10  1706.04  1711.20
                             1752.84  1768.90  1829.47  1843.76  1871.79
                             1877.87  1923.66  1949.04  1958.72  1990.77
                             2002.37  2065.28  2089.91  2141.19  2158.27
                             2165.60  2174.23  2187.61  2195.39  2205.53
                             2209.46  2238.64  2295.27  2326.92  2393.52
                             2558.18  3387.17  4349.70  4381.39  4391.73
                             4395.33  4432.80  4458.83  4484.66  4510.27
                             4566.04  4625.86  4651.49  4655.29  4710.28
                             4736.26

 Zero-point correction=                           0.269836 (Hartree/Particle)
 Thermal correction to Energy=                    0.287010
 Thermal correction to Enthalpy=                  0.287955
 Thermal correction to Gibbs Free Energy=         0.223985
 Sum of electronic and zero-point Energies=           -877.863800
 Sum of electronic and thermal Energies=              -877.846625
 Sum of electronic and thermal Enthalpies=            -877.845681
 Sum of electronic and thermal Free Energies=         -877.909651

                     E (Thermal)             CV                S
                      KCal/Mol        Cal/Mol-Kelvin    Cal/Mol-Kelvin
 Total                  180.102             65.734            134.636
 Electronic               0.000              0.000              0.000
 Translational            0.889              2.981             42.635
 Rotational               0.889              2.981             33.692
 Vibrational            178.324             59.773             58.309
 Vibration     1          0.594              1.982              5.496
 Vibration     2          0.594              1.982              5.363
 Vibration     3          0.597              1.973              4.464
 Vibration     4          0.598              1.969              4.195
 Vibration     5          0.605              1.945              3.362
 Vibration     6          0.609              1.932              3.095
 Vibration     7          0.612              1.923              2.948
 Vibration     8          0.615              1.913              2.802
 Vibration     9          0.618              1.903              2.672
 Vibration    10          0.632              1.857              2.256
 Vibration    11          0.640              1.832              2.085
 Vibration    12          0.660              1.769              1.759
 Vibration    13          0.667              1.749              1.676
 Vibration    14          0.685              1.696              1.487
 Vibration    15          0.699              1.656              1.365
 Vibration    16          0.727              1.575              1.165
 Vibration    17          0.740              1.539              1.089
 Vibration    18          0.789              1.411              0.868
 Vibration    19          0.800              1.383              0.826
 Vibration    20          0.822              1.329              0.753
 Vibration    21          0.843              1.280              0.693
 Vibration    22          0.858              1.244              0.651
 Vibration    23          0.901              1.149              0.553
 Vibration    24          0.912              1.126              0.531
 Vibration    25          0.927              1.093              0.502
 Vibration    26          0.959              1.031              0.449
 Vibration    27          0.976              0.997              0.422

 Optimization completed.
    -- Stationary point found.
 Normal termination of Gaussian 16 at Sat Dec 12 17:11:50 2020.

 ----------------------------------------------------------------------
 # B3LYP/6-311++G(d,p) empiricaldispersion=gd3bj scf=xqc pop=npa geom=c
 heck
 ----------------------------------------------------------------------

 ----------------------------------------
 CID_104850005_JID_10768_Energie_neutraal
 ----------------------------------------
 Structure from the checkpoint file:  "JID_10768.chk"
 Charge =  0 Multiplicity = 1

 SCF Done:  E(RB3LYP) =  -878.364875491     A.U. after   18 cycles
 Normal termination of Gaussian 16 at Sat Dec 12 17:19:08 2020.

 ----------------------------------------------------------------------
 # B3LYP/6-311++G(d,p) empiricaldispersion=gd3bj scf=xqc pop=npa geom=c
 heck
 ----------------------------------------------------------------------

 --------------------------------------
 CID_104850005_JID_10768_Energie_kation
 --------------------------------------
 Structure from the checkpoint file:  "JID_10768.chk"
 Charge =  1 Multiplicity = 2

 SCF Done:  E(UB3LYP) =  -878.060730258     A.U. after   33 cycles
 SCF Done:  E(UB3LYP) =  -878.060730259     a.u. after    2 cycles
 Normal termination of Gaussian 16 at Sat Dec 12 17:54:05 2020.
 Gaussian 16:  ES64L-G16RevA.03 25-Dec-2016

 ----------------------------------------------------------------------
 # B3LYP/6-311++G(d,p) empiricaldispersion=gd3bj scf=xqc pop=npa geom=c
 heck
 ----------------------------------------------------------------------

 -------------------------------------
 CID_104850005_JID_10768_Energie_anion
 -------------------------------------
 Structure from the checkpoint file:  "JID_10768.chk"
 Charge = -1 Multiplicity = 2

                         Standard orientation:
 ---------------------------------------------------------------------
 Center     Atomic      Atomic             Coordinates (Angstroms)
 Number     Number       Type             X           Y           Z
 ---------------------------------------------------------------------
      1          6           0       -0.246103   -0.742730    2.585838
      2          8           0       -0.809070   -1.332842    1.402580
      3          6           0       -1.551896   -0.500552    0.611894
      4          6           0       -0.986737    0.587594   -0.082358
      5          6           0       -1.800029    1.405400   -0.872789
      6          6           0       -3.158080    1.144455   -1.003506
      7          6           0       -3.713975    0.037759   -0.342490
      8          6           0       -2.908965   -0.777736    0.464919
      9          6           0       -5.109604   -0.254233   -0.481193
     10          7           0       -6.242992   -0.488464   -0.594447
     11          7           0        0.395357    0.871698    0.024681
     12          6           0        0.917256    2.091869    0.476851
     13          6           0        2.281307    1.998004    0.490949
     14          6           0        2.616088    0.685337    0.024201
     15          6           0        1.434880    0.013657   -0.258216
     16          6           0        1.331728   -1.363787   -0.824626
     17          6           0        2.659520   -1.703004   -1.527584
     18          6           0        3.875695   -1.392602   -0.639237
     19          6           0        3.926208    0.063344   -0.164888
     20          8           0        4.982861    0.635376    0.064765
     21          1           0        0.218124   -1.565701    3.130775
     22          1           0       -1.037124   -0.295012    3.198492
     23          1           0        0.508974    0.011036    2.346459
     24          1           0       -1.343206    2.234965   -1.402328
     25          1           0       -3.784824    1.774432   -1.624334
     26          1           0       -3.328363   -1.623900    0.996702
     27          1           0        0.244260    2.884376    0.768319
     28          1           0        2.983737    2.760179    0.795078
     29          1           0        0.490010   -1.437135   -1.523787
     30          1           0        1.127290   -2.087402   -0.024564
     31          1           0        2.732301   -1.116720   -2.452263
     32          1           0        2.665039   -2.759778   -1.815823
     33          1           0        3.845771   -2.026243    0.260688
     34          1           0        4.817370   -1.612671   -1.150391
 ---------------------------------------------------------------------

 SCF Done:  E(UB3LYP) =  -878.393812323     A.U. after   25 cycles

 The electronic state is 2-A.
 Alpha  occ. eigenvalues --  -19.03856 -18.98491 -14.26365 -14.16541 -10.13792
 Alpha  occ. eigenvalues --  -10.12207 -10.11353 -10.09804 -10.09385 -10.08509
 Alpha  occ. eigenvalues --  -10.08109 -10.08020 -10.07809 -10.06768 -10.06268
 Alpha  occ. eigenvalues --  -10.06253 -10.05900 -10.05778 -10.05403 -10.05105
 Alpha  occ. eigenvalues --   -0.95478  -0.91901  -0.88688  -0.77097  -0.74700
 Alpha  occ. eigenvalues --   -0.72583  -0.69526  -0.64681  -0.64304  -0.62876
 Alpha  occ. eigenvalues --   -0.60790  -0.58682  -0.53813  -0.51756  -0.50847
 Alpha  occ. eigenvalues --   -0.48819  -0.45949  -0.43637  -0.42087  -0.40172
 Alpha  occ. eigenvalues --   -0.38985  -0.37288  -0.37139  -0.36358  -0.35790
 Alpha  occ. eigenvalues --   -0.34289  -0.33258  -0.32945  -0.32156  -0.31849
 Alpha  occ. eigenvalues --   -0.31277  -0.30497  -0.28812  -0.28413  -0.27660
 Alpha  occ. eigenvalues --   -0.26576  -0.26210  -0.25165  -0.24760  -0.24575
 Alpha  occ. eigenvalues --   -0.24076  -0.23139  -0.21627  -0.19978  -0.18323
 Alpha  occ. eigenvalues --   -0.16032  -0.13861  -0.13732  -0.12419  -0.12051
 Alpha  occ. eigenvalues --    0.02553
 Alpha virt. eigenvalues --    0.06774   0.07097   0.07899   0.08454   0.09156
 Alpha virt. eigenvalues --    0.09623   0.09868   0.10246   0.10624   0.10921
 Alpha virt. eigenvalues --    0.11716   0.11814   0.12207   0.12750   0.13281

  Beta  occ. eigenvalues --  -19.03861 -18.98376 -14.26427 -14.16238 -10.13718
  Beta  occ. eigenvalues --  -10.12195 -10.11388 -10.09629 -10.09352 -10.08504
  Beta  occ. eigenvalues --  -10.08120 -10.07816 -10.07586 -10.06788 -10.06264
  Beta  occ. eigenvalues --  -10.05926 -10.05854 -10.05733 -10.05398 -10.04937
  Beta  occ. eigenvalues --   -0.95464  -0.91692  -0.88544  -0.76633  -0.74313
  Beta  occ. eigenvalues --   -0.72442  -0.69254  -0.64468  -0.64065  -0.62492
  Beta  occ. eigenvalues --   -0.60683  -0.58498  -0.53258  -0.51665  -0.50726
  Beta  occ. eigenvalues --   -0.48696  -0.45690  -0.43483  -0.41983  -0.39989
  Beta  occ. eigenvalues --   -0.38840  -0.37145  -0.37004  -0.36289  -0.35757
  Beta  occ. eigenvalues --   -0.34151  -0.33108  -0.32810  -0.32005  -0.31703
  Beta  occ. eigenvalues --   -0.31144  -0.30357  -0.28755  -0.28227  -0.27201
  Beta  occ. eigenvalues --   -0.26339  -0.25630  -0.25089  -0.24522  -0.24436
  Beta  occ. eigenvalues --   -0.23688  -0.22667  -0.20557  -0.19808  -0.18118
  Beta  occ. eigenvalues --   -0.15306  -0.13674  -0.12805  -0.11722  -0.10907
  Beta virt. eigenvalues --    0.06883   0.07348   0.07796   0.08419   0.08847
  Beta virt. eigenvalues --    0.09145   0.09755   0.09992   0.10243   0.10767
  Beta virt. eigenvalues --    0.10913   0.11692   0.11863   0.12274   0.12755

 Mulliken charges and spin densities:
               1          2
     1  C   -0.227634  -0.032692
     2  O   -0.077816   0.005952
     3  C   -0.582167   0.027693
     4  C    0.161036   0.244334
     5  C    0.090994   0.093575
     6  C   -0.943540   0.048936
     7  C    2.032636   0.245177
     8  C   -0.153889   0.134904
     9  C   -1.756428  -0.106699
    10  N   -0.302353   0.162917
    11  N    0.525670  -0.023731
    12  C   -0.071296   0.011133
    13  C    0.048643  -0.007722
    14  C   -0.174320  -0.004945
    15  C    0.113133   0.096632
    16  C   -0.378307  -0.007691
    17  C   -0.463615   0.013573
    18  C   -0.212382  -0.011131
    19  C   -0.417817   0.035254
    20  O   -0.347753   0.039113
    21  H    0.148347  -0.001220
    22  H    0.106759   0.026967
    23  H    0.142239   0.003636
    24  H    0.151302  -0.003870
    25  H    0.147442  -0.001336
    26  H    0.169229  -0.008139
    27  H    0.146383   0.003197
    28  H    0.170633   0.001438
    29  H    0.165346   0.003407
    30  H    0.189021   0.005260
    31  H    0.141064  -0.000555
    32  H    0.151203  -0.000072
    33  H    0.141868   0.007415
    34  H    0.166369  -0.000711
 Sum of Mulliken charges =  -1.00000   1.00000

 Dipole moment (field-independent basis, Debye):
    X=              6.3641    Y=             -0.7103    Z=              1.0853  Tot=              6.4949
 Quadrupole moment (field-independent basis, Debye-Ang):
   XX=           -253.9707   YY=           -124.1085   ZZ=           -121.7595
   XY=            -16.6496   XZ=             -8.9683   YZ=             -0.5924

 Summary of Natural Population Analysis:

                                       Natural Population
                Natural  -----------------------------------------------
    Atom  No    Charge         Core      Valence    Rydberg      Total
 -----------------------------------------------------------------------
      C    1   -0.09645      0.99959     2.08971    0.00715     3.09645
      O    2   -0.29445      0.99986     3.28378    0.01081     4.29445
      C    3    0.14185      0.99934     1.84503    0.01378     2.85815
      C    4    0.11846      0.99942     1.87058    0.01154     2.88154
      C    5   -0.09846      0.99955     2.09149    0.00743     3.09846
      C    6   -0.07678      0.99955     2.06979    0.00744     3.07678
      C    7   -0.03720      0.99943     2.02719    0.01058     3.03720
      C    8   -0.06420      0.99950     2.05538    0.00933     3.06420
      C    9    0.14472      0.99964     1.83751    0.01812     2.85528
      N   10   -0.16207      0.99979     2.65108    0.01120     3.66207
      N   11   -0.20757      0.99960     2.69678    0.01119     3.70757
      C   12   -0.01359      0.99957     2.00411    0.00991     3.01359
      C   13   -0.12968      0.99954     2.12076    0.00938     3.12968
      C   14   -0.11772      0.99941     2.10933    0.00899     3.11772
      C   15    0.14615      0.99948     1.84187    0.01250     2.85385
      C   16   -0.21144      0.99960     2.20476    0.00709     3.21144
      C   17   -0.18171      0.99964     2.17574    0.00633     3.18171
      C   18   -0.22949      0.99961     2.22238    0.00750     3.22949
      C   19    0.28272      0.99959     1.69719    0.02050     2.71728
      O   20   -0.29838      0.99988     3.29082    0.00768     4.29838
      H   21    0.08508      0.00000     0.41413    0.00079     0.41492
      H   22    0.08120      0.00000     0.41703    0.00177     0.41880
      H   23    0.08993      0.00000     0.40899    0.00108     0.41007
      H   24    0.09918      0.00000     0.39987    0.00096     0.40082
      H   25    0.09874      0.00000     0.40036    0.00090     0.40126
      H   26    0.10240      0.00000     0.39667    0.00092     0.39760
      H   27    0.10141      0.00000     0.39767    0.00092     0.39859
      H   28    0.10805      0.00000     0.39096    0.00099     0.39195
      H   29    0.11164      0.00000     0.38725    0.00111     0.38836
      H   30    0.11137      0.00000     0.38729    0.00135     0.38863
      H   31    0.09457      0.00000     0.40429    0.00114     0.40543
      H   32    0.09440      0.00000     0.40439    0.00122     0.40560
      H   33    0.10302      0.00000     0.39582    0.00116     0.39698
      H   34    0.10432      0.00000     0.39433    0.00135     0.39568
 =======================================================================
   * Total *    0.00000     19.99158    49.78433    0.22409    70.00000

 Normal termination of Gaussian 16 at Sat Dec 12 18:07:35 2020.
