 Gaussian 16, Revision A.03,

 -----------------------------------------------------------
 # opt freq B3LYP/6-31G(d) empiricaldispersion=gd3bj scf=xqc
 -----------------------------------------------------------

 -------------------------------
 CID_129995191_JID_2840_neutraal
 -------------------------------
 Symbolic Z-matrix:
 Charge =  0 Multiplicity = 1

 SCF Done:  E(RB3LYP) =  -593.180374733     A.U. after   14 cycles
 SCF Done:  E(RB3LYP) =  -593.177937365     A.U. after   14 cycles
 SCF Done:  E(RB3LYP) =  -593.183162421     A.U. after   12 cycles
 SCF Done:  E(RB3LYP) =  -593.184170850     A.U. after   13 cycles
 SCF Done:  E(RB3LYP) =  -593.184861062     A.U. after   12 cycles
 SCF Done:  E(RB3LYP) =  -593.184808448     A.U. after   11 cycles
 SCF Done:  E(RB3LYP) =  -593.185017916     A.U. after   11 cycles
 SCF Done:  E(RB3LYP) =  -593.185025395     A.U. after   11 cycles
 SCF Done:  E(RB3LYP) =  -593.185042541     A.U. after   10 cycles
 SCF Done:  E(RB3LYP) =  -593.185044065     A.U. after    9 cycles
 SCF Done:  E(RB3LYP) =  -593.185047134     A.U. after    8 cycles
 SCF Done:  E(RB3LYP) =  -593.185048545     A.U. after    8 cycles
 SCF Done:  E(RB3LYP) =  -593.185048836     A.U. after    8 cycles
 SCF Done:  E(RB3LYP) =  -593.185048874     A.U. after    7 cycles
 Optimization completed.
    -- Stationary point found.
 Normal termination of Gaussian 16 at Wed Dec  9 18:07:32 2020.

 --------------------------------------------------------------------
 #N Geom=AllCheck Guess=TCheck SCRF=Check GenChk RB3LYP/6-31G(d) Freq
 --------------------------------------------------------------------

 Structure from the checkpoint file:  "JID_2840.chk"
 -------------------------------
 CID_129995191_JID_2840_neutraal
 -------------------------------
 Charge =  0 Multiplicity = 1

 SCF Done:  E(RB3LYP) =  -593.185048874     A.U. after    1 cycles

  Exact polarizability: 103.809   1.802  96.814   4.671  -0.711  76.472
 Approx polarizability: 139.521  -1.263 149.645  10.094  -5.543 112.848

                      1                      2                      3
                      A                      A                      A
 Frequencies --     47.0818                63.3784                99.5122
 Red. masses --      7.7105                 9.7554                 2.2871
 Frc consts  --      0.0101                 0.0231                 0.0133
 IR Inten    --      1.4535                 3.0979                 0.9920

                      4                      5                      6
                      A                      A                      A
 Frequencies --    119.2697               148.5428               174.4001
 Red. masses --      3.3623                 3.8971                 3.6138
 Frc consts  --      0.0282                 0.0507                 0.0648
 IR Inten    --      0.7072                 7.5875                 0.4547

                      7                      8                      9
                      A                      A                      A
 Frequencies --    178.5152               275.3981               303.0149
 Red. masses --      5.3400                 3.3309                 3.3452
 Frc consts  --      0.1003                 0.1488                 0.1810
 IR Inten    --      1.2253                 0.1035                 1.1979

                     10                     11                     12
                      A                      A                      A
 Frequencies --    406.1727               422.6073               449.6897
 Red. masses --      4.2901                 3.5822                 1.9241
 Frc consts  --      0.4170                 0.3769                 0.2293
 IR Inten    --      4.4279                 9.1076                11.1690

                     13                     14                     15
                      A                      A                      A
 Frequencies --    506.6702               541.2036               577.4378
 Red. masses --      1.6708                 2.0097                 3.0659
 Frc consts  --      0.2527                 0.3468                 0.6023
 IR Inten    --    125.4674               156.0603                20.5249

                     16                     17                     18
                      A                      A                      A
 Frequencies --    585.5096               654.8417               669.3353
 Red. masses --      2.7724                 1.4168                 1.2636
 Frc consts  --      0.5600                 0.3580                 0.3335
 IR Inten    --     30.8100                71.6903                14.0328

                     19                     20                     21
                      A                      A                      A
 Frequencies --    718.3482               756.6879               767.7142
 Red. masses --      3.2920                 1.9886                 2.8237
 Frc consts  --      1.0009                 0.6709                 0.9805
 IR Inten    --     19.5795                 6.8351                43.2485

                     22                     23                     24
                      A                      A                      A
 Frequencies --    792.0317               822.0005               876.2876
 Red. masses --      1.8888                 2.5534                 3.3883
 Frc consts  --      0.6981                 1.0165                 1.5330
 IR Inten    --      1.6042                 2.9068                 1.5694

                     25                     26                     27
                      A                      A                      A
 Frequencies --    889.3651               902.9951               920.1046
 Red. masses --      3.7168                 2.3492                 1.8534
 Frc consts  --      1.7321                 1.1286                 0.9244
 IR Inten    --      3.0183                 1.1152                 0.8950

                     28                     29                     30
                      A                      A                      A
 Frequencies --    974.3004               991.1268              1045.7346
 Red. masses --      1.8929                 1.9367                 1.7541
 Frc consts  --      1.0587                 1.1209                 1.1302
 IR Inten    --      8.4454                 2.5429                 0.6432

                     31                     32                     33
                      A                      A                      A
 Frequencies --   1060.9682              1096.5268              1122.6068
 Red. masses --      2.8840                 2.0703                 2.7903
 Frc consts  --      1.9127                 1.4666                 2.0718
 IR Inten    --      0.6059                 1.2410                14.2142

                     34                     35                     36
                      A                      A                      A
 Frequencies --   1141.4048              1166.8310              1203.3459
 Red. masses --      1.5842                 1.7923                 1.4114
 Frc consts  --      1.2160                 1.4377                 1.2042
 IR Inten    --     29.9800                95.9101                48.9537

                     37                     38                     39
                      A                      A                      A
 Frequencies --   1228.7793              1242.0905              1248.9417
 Red. masses --      1.3724                 1.3992                 1.3986
 Frc consts  --      1.2209                 1.2719                 1.2854
 IR Inten    --     31.5059                 8.7915                30.8266

                     40                     41                     42
                      A                      A                      A
 Frequencies --   1284.4245              1303.7906              1329.1879
 Red. masses --      1.2291                 1.1937                 1.3844
 Frc consts  --      1.1947                 1.1956                 1.4411
 IR Inten    --      7.0605                 0.8093                11.0545

                     43                     44                     45
                      A                      A                      A
 Frequencies --   1337.6404              1356.3010              1359.9995
 Red. masses --      1.3625                 1.4781                 1.5035
 Frc consts  --      1.4364                 1.6020                 1.6384
 IR Inten    --      0.8499                 6.9389                 5.6720

                     46                     47                     48
                      A                      A                      A
 Frequencies --   1374.0493              1390.7229              1411.0587
 Red. masses --      1.5824                 1.7679                 2.0716
 Frc consts  --      1.7602                 2.0146                 2.4303
 IR Inten    --     25.8001                29.0279                71.5990

                     49                     50                     51
                      A                      A                      A
 Frequencies --   1418.8036              1514.0214              1516.4170
 Red. masses --      1.8083                 1.0969                 1.0858
 Frc consts  --      2.1447                 1.4815                 1.4711
 IR Inten    --      7.6242                 5.9815                 0.7983

                     52                     53                     54
                      A                      A                      A
 Frequencies --   1525.6203              1545.7429              1669.4925
 Red. masses --      1.0856                 1.1062                 1.2312
 Frc consts  --      1.4887                 1.5572                 2.0219
 IR Inten    --      7.6055                 2.4999               126.7144

                     55                     56                     57
                      A                      A                      A
 Frequencies --   1797.7360              1809.1937              3045.8888
 Red. masses --      8.0845                 9.0392                 1.0823
 Frc consts  --     15.3941                17.4321                 5.9159
 IR Inten    --    293.6287               293.4889                 2.4806

                     58                     59                     60
                      A                      A                      A
 Frequencies --   3060.3717              3071.3952              3074.0824
 Red. masses --      1.0645                 1.0668                 1.0614
 Frc consts  --      5.8742                 5.9295                 5.9096
 IR Inten    --     19.6255                12.7726                32.3668

                     61                     62                     63
                      A                      A                      A
 Frequencies --   3082.7973              3105.6854              3111.6044
 Red. masses --      1.0657                 1.0976                 1.0858
 Frc consts  --      5.9672                 6.2378                 6.1941
 IR Inten    --     38.0936                23.2063                 6.4431

                     64                     65                     66
                      A                      A                      A
 Frequencies --   3120.5803              3123.8047              3136.4848
 Red. masses --      1.1021                 1.1037                 1.1037
 Frc consts  --      6.3232                 6.3455                 6.3970
 IR Inten    --      7.6597                17.7154                45.6248

                     67                     68                     69
                      A                      A                      A
 Frequencies --   3520.1893              3668.8458              3675.4882
 Red. masses --      1.0507                 1.0993                 1.0650
 Frc consts  --      7.6714                 8.7182                 8.4766
 IR Inten    --    142.1813                97.5102                44.8496

 - Thermochemistry -
 -------------------
 Temperature   298.150 Kelvin.  Pressure   1.00000 Atm.
 Atom     1 has atomic number  6 and mass  12.00000

 Molecular mass:   171.08954 amu.
 Principal axes and moments of inertia in atomic units:
                           1         2         3
     Eigenvalues --  1294.989142463.051603204.04604
           X            0.99891   0.04663  -0.00344
           Y           -0.04660   0.99886   0.01012
           Z            0.00391  -0.00995   0.99994
 This molecule is an asymmetric top.
 Rotational symmetry number  1.
 Warning -- assumption of classical behavior for rotation
           may cause significant error
 Rotational temperatures (Kelvin)      0.06688     0.03517     0.02703
 Rotational constants (GHZ):           1.39363     0.73273     0.56327
 Zero-point vibrational energy     561839.3 (Joules/Mol)
                                  134.28281 (Kcal/Mol)
 Warning -- explicit consideration of  16 degrees of freedom as
           vibrations may cause significant error
 Vibrational temperatures:     67.74    91.19   143.18   171.60   213.72
          (Kelvin)            250.92   256.84   396.24   435.97   584.39
                              608.04   647.00   728.99   778.67   830.80
                              842.42   942.17   963.02  1033.54  1088.71
                             1104.57  1139.56  1182.68  1260.78  1279.60
                             1299.21  1323.83  1401.80  1426.01  1504.58
                             1526.50  1577.66  1615.18  1642.23  1678.81
                             1731.35  1767.94  1787.09  1796.95  1848.00
                             1875.86  1912.40  1924.57  1951.41  1956.74
                             1976.95  2000.94  2030.20  2041.34  2178.34
                             2181.79  2195.03  2223.98  2402.03  2586.54
                             2603.03  4382.35  4403.19  4419.05  4422.92
                             4435.46  4468.39  4476.90  4489.82  4494.46
                             4512.70  5064.77  5278.65  5288.21

 Zero-point correction=                           0.213993 (Hartree/Particle)
 Thermal correction to Energy=                    0.225545
 Thermal correction to Enthalpy=                  0.226489
 Thermal correction to Gibbs Free Energy=         0.175890
 Sum of electronic and zero-point Energies=           -592.971056
 Sum of electronic and thermal Energies=              -592.959504
 Sum of electronic and thermal Enthalpies=            -592.958560
 Sum of electronic and thermal Free Energies=         -593.009158

                     E (Thermal)             CV                S
                      KCal/Mol        Cal/Mol-Kelvin    Cal/Mol-Kelvin
 Total                  141.531             43.736            106.493
 Electronic               0.000              0.000              0.000
 Translational            0.889              2.981             41.319
 Rotational               0.889              2.981             30.703
 Vibrational            139.754             37.775             34.472
 Vibration     1          0.595              1.979              4.936
 Vibration     2          0.597              1.972              4.349
 Vibration     3          0.604              1.949              3.464
 Vibration     4          0.609              1.933              3.112
 Vibration     5          0.618              1.904              2.691
 Vibration     6          0.627              1.874              2.388
 Vibration     7          0.629              1.869              2.344
 Vibration     8          0.677              1.719              1.562
 Vibration     9          0.694              1.668              1.400
 Vibration    10          0.771              1.457              0.940
 Vibration    11          0.785              1.421              0.883
 Vibration    12          0.809              1.362              0.797
 Vibration    13          0.862              1.235              0.642
 Vibration    14          0.896              1.159              0.563
 Vibration    15          0.934              1.080              0.490
 Vibration    16          0.943              1.063              0.475

                           ! Non-Optimized Parameters !
 Normal termination of Gaussian 16 at Wed Dec  9 18:13:50 2020.

 ----------------------------------------------------------------------
 # B3LYP/6-311++G(d,p) empiricaldispersion=gd3bj scf=xqc pop=npa geom=c
 heck
 ----------------------------------------------------------------------

 ---------------------------------------
 CID_129995191_JID_2840_Energie_neutraal
 ---------------------------------------
 Structure from the checkpoint file:  "JID_2840.chk"
 Charge =  0 Multiplicity = 1

 SCF Done:  E(RB3LYP) =  -593.373355198     A.U. after   14 cycles
 Normal termination of Gaussian 16 at Wed Dec  9 18:16:29 2020.

 ----------------------------------------------------------------------
 # B3LYP/6-311++G(d,p) empiricaldispersion=gd3bj scf=xqc pop=npa geom=c
 heck
 ----------------------------------------------------------------------

 -------------------------------------
 CID_129995191_JID_2840_Energie_kation
 -------------------------------------
 Structure from the checkpoint file:  "JID_2840.chk"
 Charge =  1 Multiplicity = 2

 SCF Done:  E(UB3LYP) =  -593.034112953     A.U. after   30 cycles
 Normal termination of Gaussian 16 at Wed Dec  9 18:24:28 2020.
 Gaussian 16:  ES64L-G16RevA.03 25-Dec-2016

 ----------------------------------------------------------------------
 # B3LYP/6-311++G(d,p) empiricaldispersion=gd3bj scf=xqc pop=npa geom=c
 heck
 ----------------------------------------------------------------------

 ------------------------------------
 CID_129995191_JID_2840_Energie_anion
 ------------------------------------
 Structure from the checkpoint file:  "JID_2840.chk"
 Charge = -1 Multiplicity = 2

                         Standard orientation:
 ---------------------------------------------------------------------
 Center     Atomic      Atomic             Coordinates (Angstroms)
 Number     Number       Type             X           Y           Z
 ---------------------------------------------------------------------
      1          6           0       -2.397053   -1.453785    0.078856
      2          6           0       -1.199318   -1.506049   -0.903596
      3          6           0        0.001794   -0.972140   -0.105607
      4          6           0       -0.638140    0.129293    0.798429
      5          6           0       -1.940890   -0.552946    1.262035
      6          6           0       -0.847202    1.413572    0.027315
      7          8           0       -0.006107    2.282337   -0.132431
      8          8           0       -2.072982    1.526607   -0.530236
      9          6           0        1.215684   -0.560068   -0.946949
     10          6           0        2.431498   -0.297364   -0.057970
     11          8           0        3.145259   -1.211104    0.336339
     12          7           0        2.636436    1.010431    0.273079
     13          1           0       -2.660793   -2.453138    0.438410
     14          1           0       -3.283779   -1.042023   -0.409244
     15          1           0       -1.007347   -2.511061   -1.291927
     16          1           0       -1.385012   -0.856054   -1.766982
     17          1           0        0.336985   -1.756038    0.586023
     18          1           0        0.030326    0.382579    1.625516
     19          1           0       -2.706307    0.165284    1.565371
     20          1           0       -1.704929   -1.166183    2.138003
     21          1           0       -2.069822    2.370030   -1.022249
     22          1           0        1.483110   -1.391673   -1.605218
     23          1           0        0.979164    0.306447   -1.573883
     24          1           0        1.899784    1.695195    0.131603
     25          1           0        3.345957    1.197810    0.968566
 ---------------------------------------------------------------------

 SCF Done:  E(UB3LYP) =  -593.362666799     A.U. after   33 cycles
 SCF Done:  E(UB3LYP) =  -593.362666799     a.u. after    1 cycles

 The electronic state is 2-A.
 Alpha  occ. eigenvalues --  -19.06569 -19.01858 -18.98978 -14.22762 -10.20811
 Alpha  occ. eigenvalues --  -10.17460 -10.08965 -10.08944 -10.07878 -10.06774
 Alpha  occ. eigenvalues --  -10.06523 -10.06239  -1.01073  -0.93813  -0.92005
 Alpha  occ. eigenvalues --   -0.80385  -0.75472  -0.66586  -0.63676  -0.58464
 Alpha  occ. eigenvalues --   -0.54011  -0.48834  -0.47516  -0.46406  -0.43561
 Alpha  occ. eigenvalues --   -0.40916  -0.39165  -0.38485  -0.36732  -0.35541
 Alpha  occ. eigenvalues --   -0.34726  -0.32053  -0.31743  -0.30668  -0.29841
 Alpha  occ. eigenvalues --   -0.29064  -0.25646  -0.24832  -0.24177  -0.23949
 Alpha  occ. eigenvalues --   -0.23357  -0.22224  -0.21919  -0.18808  -0.17349
 Alpha  occ. eigenvalues --   -0.15743   0.04570
 Alpha virt. eigenvalues --    0.06993   0.07609   0.08130   0.08737   0.09659
 Alpha virt. eigenvalues --    0.10309   0.10440   0.11132   0.11723   0.11804
 Alpha virt. eigenvalues --    0.12739   0.13297   0.13744   0.14667   0.15813

  Beta  occ. eigenvalues --  -19.06487 -19.01832 -18.98973 -14.22745 -10.20799
  Beta  occ. eigenvalues --  -10.17459 -10.08949 -10.08930 -10.07866 -10.06748
  Beta  occ. eigenvalues --  -10.06502 -10.06220  -1.00972  -0.93804  -0.91918
  Beta  occ. eigenvalues --   -0.80360  -0.75437  -0.66554  -0.63610  -0.58411
  Beta  occ. eigenvalues --   -0.53898  -0.48780  -0.47442  -0.46332  -0.43529
  Beta  occ. eigenvalues --   -0.40867  -0.39113  -0.38436  -0.36694  -0.35485
  Beta  occ. eigenvalues --   -0.34680  -0.32019  -0.31710  -0.30612  -0.29815
  Beta  occ. eigenvalues --   -0.29036  -0.25597  -0.24786  -0.24135  -0.23910
  Beta  occ. eigenvalues --   -0.23305  -0.22178  -0.21880  -0.18738  -0.17311
  Beta  occ. eigenvalues --   -0.15733
  Beta virt. eigenvalues --    0.07045   0.08061   0.08187   0.08773   0.09212
  Beta virt. eigenvalues --    0.09956   0.10635   0.11099   0.11708   0.11823
  Beta virt. eigenvalues --    0.12084   0.13041   0.13595   0.14001   0.14852

 Mulliken charges and spin densities:
               1          2
     1  C    0.523048  -0.961217
     2  C   -0.107806  -0.253058
     3  C   -0.871910   1.002785
     4  C    0.429641   0.101870
     5  C    0.726766  -1.396895
     6  C    0.645061  -0.993872
     7  O   -0.328321   0.040759
     8  O   -0.268006   0.155483
     9  C    0.925155  -1.286449
    10  C   -0.492370   0.335317
    11  O   -0.349558  -0.001004
    12  N   -0.374324   0.038431
    13  H   -0.095670   0.236218
    14  H   -0.066802   0.229845
    15  H   -0.198365   0.346481
    16  H   -0.056630   0.241273
    17  H    0.137710   0.089790
    18  H   -0.375669   0.677461
    19  H   -0.249317   0.442111
    20  H   -0.277110   0.432623
    21  H   -0.757528   1.066451
    22  H    0.075981   0.107009
    23  H   -0.078576   0.260278
    24  H    0.372842  -0.071684
    25  H    0.111755   0.159995
 Sum of Mulliken charges =  -1.00000   1.00000

 Dipole moment (field-independent basis, Debye):
    X=              3.4166    Y=             -1.7139    Z=              0.3104  Tot=              3.8350
 Quadrupole moment (field-independent basis, Debye-Ang):
   XX=           -128.3035   YY=           -118.8823   ZZ=           -103.7803
   XY=             14.8064   XZ=             -5.0584   YZ=              7.5938

 Summary of Natural Population Analysis:

                                       Natural Population
                Natural  -----------------------------------------------
    Atom  No    Charge         Core      Valence    Rydberg      Total
 -----------------------------------------------------------------------
      C    1   -0.19100      0.99964     2.18406    0.00730     3.19100
      C    2   -0.18990      0.99961     2.18304    0.00724     3.18990
      C    3   -0.09835      0.99957     2.08953    0.00925     3.09835
      C    4   -0.15709      0.99953     2.14452    0.01305     3.15709
      C    5   -0.18922      0.99963     2.18016    0.00943     3.18922
      C    6    0.41931      0.99966     1.55509    0.02594     2.58069
      O    7   -0.32656      0.99986     3.31976    0.00694     4.32656
      O    8   -0.34041      0.99987     3.33257    0.00797     4.34041
      C    9   -0.23182      0.99956     2.22397    0.00830     3.23182
      C   10    0.34063      0.99970     1.63630    0.02337     2.65937
      O   11   -0.32904      0.99987     3.32304    0.00612     4.32904
      N   12   -0.40910      0.99969     2.90183    0.00758     3.90910
      H   13    0.09648      0.00000     0.40197    0.00155     0.40352
      H   14    0.10377      0.00000     0.39466    0.00157     0.39623
      H   15    0.10100      0.00000     0.39773    0.00126     0.39900
      H   16    0.10017      0.00000     0.39810    0.00172     0.39983
      H   17    0.10410      0.00000     0.39399    0.00191     0.39590
      H   18    0.11805      0.00000     0.37983    0.00211     0.38195
      H   19    0.10849      0.00000     0.38981    0.00170     0.39151
      H   20    0.10023      0.00000     0.39822    0.00156     0.39977
      H   21    0.25107      0.00000     0.21043    0.03850     0.24893
      H   22    0.11208      0.00000     0.38684    0.00108     0.38792
      H   23    0.10622      0.00000     0.39232    0.00146     0.39378
      H   24    0.21085      0.00000     0.28674    0.00242     0.28915
      H   25    0.19001      0.00000     0.30809    0.00190     0.30999
 =======================================================================
   * Total *   -0.00000     11.99621    33.81258    0.19121    46.00000

 Normal termination of Gaussian 16 at Wed Dec  9 18:32:41 2020.
