 Gaussian 16, Revision A.03,

 -----------------------------------------------------------
 # opt freq B3LYP/6-31G(d) empiricaldispersion=gd3bj scf=xqc
 -----------------------------------------------------------

 -------------------------------
 CID_81276282_JID_10372_neutraal
 -------------------------------
 Symbolic Z-matrix:
 Charge =  0 Multiplicity = 1

 SCF Done:  E(RB3LYP) =  -1167.64502600     A.U. after   15 cycles
 SCF Done:  E(RB3LYP) =  -1167.65135930     A.U. after   13 cycles
 SCF Done:  E(RB3LYP) =  -1167.65225725     A.U. after   12 cycles
 SCF Done:  E(RB3LYP) =  -1167.65266802     A.U. after   13 cycles
 SCF Done:  E(RB3LYP) =  -1167.65282693     A.U. after   13 cycles
 SCF Done:  E(RB3LYP) =  -1167.65326316     A.U. after   11 cycles
 SCF Done:  E(RB3LYP) =  -1167.65344849     A.U. after   13 cycles
 SCF Done:  E(RB3LYP) =  -1167.65347634     A.U. after   10 cycles
 SCF Done:  E(RB3LYP) =  -1167.65349546     A.U. after   10 cycles
 SCF Done:  E(RB3LYP) =  -1167.65350600     A.U. after   11 cycles
 SCF Done:  E(RB3LYP) =  -1167.65352143     A.U. after    9 cycles
 SCF Done:  E(RB3LYP) =  -1167.65352149     A.U. after    8 cycles
 SCF Done:  E(RB3LYP) =  -1167.65352151     A.U. after    7 cycles
 SCF Done:  E(RB3LYP) =  -1167.65352155     A.U. after    7 cycles
 SCF Done:  E(RB3LYP) =  -1167.65352157     A.U. after    7 cycles
 Optimization completed.
    -- Stationary point found.
 Normal termination of Gaussian 16 at Mon Dec 14 19:18:18 2020.

 --------------------------------------------------------------------
 #N Geom=AllCheck Guess=TCheck SCRF=Check GenChk RB3LYP/6-31G(d) Freq
 --------------------------------------------------------------------

 Structure from the checkpoint file:  "JID_10372.chk"
 -------------------------------
 CID_81276282_JID_10372_neutraal
 -------------------------------
 Charge =  0 Multiplicity = 1

 SCF Done:  E(RB3LYP) =  -1167.65352157     A.U. after    1 cycles

  Exact polarizability: 330.293  -9.865 189.674  18.572  -5.547 158.825
 Approx polarizability: 443.576 -19.518 307.326  47.499 -17.476 272.369

                      1                      2                      3
                      A                      A                      A
 Frequencies --     12.9298                27.1046                31.5364
 Red. masses --      4.4185                 1.4715                 2.0286
 Frc consts  --      0.0004                 0.0006                 0.0012
 IR Inten    --      2.2490                 1.0966                 0.3045

                      4                      5                      6
                      A                      A                      A
 Frequencies --     44.8755                54.4810                70.6822
 Red. masses --      3.9829                 4.5411                 4.3358
 Frc consts  --      0.0047                 0.0079                 0.0128
 IR Inten    --      0.1247                 3.6857                 0.9073

                      7                      8                      9
                      A                      A                      A
 Frequencies --     97.5137               121.7922               136.3082
 Red. masses --      2.4980                 1.1463                 3.9633
 Frc consts  --      0.0140                 0.0100                 0.0434
 IR Inten    --      2.0058                 0.5247                 1.4932

                     10                     11                     12
                      A                      A                      A
 Frequencies --    169.8479               195.5936               205.5385
 Red. masses --      6.5063                 1.4855                 1.7081
 Frc consts  --      0.1106                 0.0335                 0.0425
 IR Inten    --      3.3767                 1.1869                 5.3295

                     13                     14                     15
                      A                      A                      A
 Frequencies --    210.9748               215.1199               243.5467
 Red. masses --      2.4830                 1.7747                 2.1324
 Frc consts  --      0.0651                 0.0484                 0.0745
 IR Inten    --      0.3617                 0.7913                 0.9897

                     16                     17                     18
                      A                      A                      A
 Frequencies --    260.2469               284.5587               285.7993
 Red. masses --      3.5232                 3.2727                 2.9633
 Frc consts  --      0.1406                 0.1561                 0.1426
 IR Inten    --      1.8209                 2.5990                 2.0550

                     19                     20                     21
                      A                      A                      A
 Frequencies --    315.3672               342.8751               356.5825
 Red. masses --      3.2408                 1.7572                 3.4107
 Frc consts  --      0.1899                 0.1217                 0.2555
 IR Inten    --      0.4308               108.1973                31.5262

                     22                     23                     24
                      A                      A                      A
 Frequencies --    367.1082               402.8964               440.7449
 Red. masses --      2.0743                 3.4725                 3.5414
 Frc consts  --      0.1647                 0.3321                 0.4053
 IR Inten    --     72.0606                 0.9491                11.5109

                     25                     26                     27
                      A                      A                      A
 Frequencies --    457.3868               476.0717               478.1408
 Red. masses --      3.1615                 4.0517                 3.2511
 Frc consts  --      0.3897                 0.5410                 0.4379
 IR Inten    --      2.3963                 6.2763                 8.4938

                     28                     29                     30
                      A                      A                      A
 Frequencies --    505.4632               531.5234               568.9809
 Red. masses --      4.1953                 4.1055                 4.6067
 Frc consts  --      0.6315                 0.6834                 0.8787
 IR Inten    --      4.4002                 0.3178                 1.8389

                     31                     32                     33
                      A                      A                      A
 Frequencies --    576.4122               585.3960               605.6554
 Red. masses --      4.4648                 3.1635                 1.7158
 Frc consts  --      0.8740                 0.6387                 0.3708
 IR Inten    --      1.8665                 3.7391                10.6912

                     34                     35                     36
                      A                      A                      A
 Frequencies --    618.0271               638.8329               659.5384
 Red. masses --      1.6755                 4.6465                 5.0873
 Frc consts  --      0.3771                 1.1172                 1.3038
 IR Inten    --      2.2543                 5.1154                 2.2809

                     37                     38                     39
                      A                      A                      A
 Frequencies --    717.8445               739.9368               743.3003
 Red. masses --      5.6804                 4.8864                 4.3665
 Frc consts  --      1.7246                 1.5763                 1.4214
 IR Inten    --      1.4469                 0.7948                 5.3661

                     40                     41                     42
                      A                      A                      A
 Frequencies --    760.0454               815.2442               825.8396
 Red. masses --      3.4194                 3.5354                 1.4766
 Frc consts  --      1.1638                 1.3844                 0.5933
 IR Inten    --      7.5205                 4.0198                26.0510

                     43                     44                     45
                      A                      A                      A
 Frequencies --    846.4315               874.8594               897.1412
 Red. masses --      1.5528                 1.4177                 1.2806
 Frc consts  --      0.6554                 0.6393                 0.6073
 IR Inten    --      8.9505                10.7474                 1.9316

                     46                     47                     48
                      A                      A                      A
 Frequencies --    903.7250               948.0658               959.9990
 Red. masses --      2.7240                 3.2651                 1.3327
 Frc consts  --      1.3108                 1.7291                 0.7236
 IR Inten    --     45.8007                 5.7584                 0.7072

                     49                     50                     51
                      A                      A                      A
 Frequencies --    965.1592               973.2518              1016.7443
 Red. masses --      1.5128                 2.5166                 1.4703
 Frc consts  --      0.8303                 1.4045                 0.8955
 IR Inten    --      4.7753                 5.9783                 0.3330

                     52                     53                     54
                      A                      A                      A
 Frequencies --   1037.0242              1046.0158              1071.8525
 Red. masses --      1.6586                 1.5082                 1.5067
 Frc consts  --      1.0509                 0.9723                 1.0199
 IR Inten    --      1.4780                 6.0238                 2.1891

                     55                     56                     57
                      A                      A                      A
 Frequencies --   1075.4573              1077.1451              1104.4769
 Red. masses --      1.5164                 1.5183                 2.4034
 Frc consts  --      1.0333                 1.0379                 1.7274
 IR Inten    --      8.1369                 8.0731                 4.9238

                     58                     59                     60
                      A                      A                      A
 Frequencies --   1127.8833              1149.7938              1155.6877
 Red. masses --      2.6258                 1.3839                 1.9127
 Frc consts  --      1.9680                 1.0779                 1.5052
 IR Inten    --     72.8992                14.8651                27.7552

                     61                     62                     63
                      A                      A                      A
 Frequencies --   1179.0588              1194.9480              1205.0922
 Red. masses --      1.4208                 1.6592                 1.7828
 Frc consts  --      1.1638                 1.3959                 1.5254
 IR Inten    --     13.3365                 3.3254                16.8612

                     64                     65                     66
                      A                      A                      A
 Frequencies --   1228.9159              1267.5721              1297.2959
 Red. masses --      1.7482                 2.5638                 3.5261
 Frc consts  --      1.5555                 2.4270                 3.4964
 IR Inten    --     11.8177                 4.5290               143.9138

                     67                     68                     69
                      A                      A                      A
 Frequencies --   1314.9013              1321.0530              1339.5176
 Red. masses --      1.8586                 1.6427                 3.1777
 Frc consts  --      1.8933                 1.6891                 3.3594
 IR Inten    --     65.9295                 6.3239                35.5601

                     70                     71                     72
                      A                      A                      A
 Frequencies --   1346.9449              1368.1888              1388.2365
 Red. masses --      3.7062                 6.0600                 4.0196
 Frc consts  --      3.9617                 6.6837                 4.5641
 IR Inten    --     35.3409               285.9263               199.6416

                     73                     74                     75
                      A                      A                      A
 Frequencies --   1400.3772              1442.3861              1443.7394
 Red. masses --      3.1209                 1.2439                 1.2701
 Frc consts  --      3.6059                 1.5247                 1.5598
 IR Inten    --    174.8360                 0.6468                 0.3911

                     76                     77                     78
                      A                      A                      A
 Frequencies --   1447.1884              1455.2914              1480.8328
 Red. masses --      1.2439                 2.6793                 2.7928
 Frc consts  --      1.5349                 3.3432                 3.6084
 IR Inten    --      0.9110                 3.5568                 3.5487

                     79                     80                     81
                      A                      A                      A
 Frequencies --   1486.5466              1507.8943              1515.4986
 Red. masses --      1.2610                 1.0505                 1.0902
 Frc consts  --      1.6418                 1.4073                 1.4752
 IR Inten    --      4.8894                 2.7301                 3.0682

                     82                     83                     84
                      A                      A                      A
 Frequencies --   1517.2149              1520.0403              1522.8910
 Red. masses --      1.0532                 1.1522                 1.1079
 Frc consts  --      1.4284                 1.5685                 1.5139
 IR Inten    --      6.2089                13.8616                 4.5038

                     85                     86                     87
                      A                      A                      A
 Frequencies --   1524.1237              1528.5215              1543.2107
 Red. masses --      1.1745                 1.1955                 1.1491
 Frc consts  --      1.6075                 1.6456                 1.6124
 IR Inten    --     12.1979                 8.9781                15.3328

                     88                     89                     90
                      A                      A                      A
 Frequencies --   1554.8243              1559.1999              1602.6457
 Red. masses --      2.2175                 2.1047                 5.2265
 Frc consts  --      3.1585                 3.0148                 7.9092
 IR Inten    --     20.4347               156.1109               111.3048

                     91                     92                     93
                      A                      A                      A
 Frequencies --   1632.3155              1655.0282              1665.1688
 Red. masses --      6.2610                 1.3507                 4.4506
 Frc consts  --      9.8288                 2.1799                 7.2709
 IR Inten    --      2.0915               255.2576               208.3578

                     94                     95                     96
                      A                      A                      A
 Frequencies --   1674.2750              3011.5363              3033.5279
 Red. masses --      5.5849                 1.0495                 1.0516
 Frc consts  --      9.2241                 5.6081                 5.7014
 IR Inten    --    107.2177                69.7317                32.0486

                     97                     98                     99
                      A                      A                      A
 Frequencies --   3043.6083              3044.4671              3084.8234
 Red. masses --      1.0399                 1.0426                 1.0914
 Frc consts  --      5.6756                 5.6937                 6.1191
 IR Inten    --     42.1614                21.9240                28.7499

                    100                    101                    102
                      A                      A                      A
 Frequencies --   3099.6332              3103.2141              3105.3294
 Red. masses --      1.0971                 1.0923                 1.0844
 Frc consts  --      6.2103                 6.1973                 6.1610
 IR Inten    --     18.2493                15.6220                18.3429

                    103                    104                    105
                      A                      A                      A
 Frequencies --   3127.5449              3136.5995              3147.9518
 Red. masses --      1.1023                 1.1033                 1.1021
 Frc consts  --      6.3525                 6.3951                 6.4348
 IR Inten    --     15.5444                18.8033                11.2850

                    106                    107                    108
                      A                      A                      A
 Frequencies --   3159.5354              3172.7766              3182.4743
 Red. masses --      1.0980                 1.0898                 1.0883
 Frc consts  --      6.4579                 6.4639                 6.4941
 IR Inten    --     19.0691                26.4196                16.1505

                    109                    110                    111
                      A                      A                      A
 Frequencies --   3206.2142              3213.1752              3218.3623
 Red. masses --      1.0941                 1.0891                 1.0880
 Frc consts  --      6.6265                 6.6249                 6.6395
 IR Inten    --      8.7853                11.3264                 1.4483

                    112                    113                    114
                      A                      A                      A
 Frequencies --   3235.3567              3571.5940              3698.5066
 Red. masses --      1.0928                 1.0445                 1.1048
 Frc consts  --      6.7394                 7.8502                 8.9039
 IR Inten    --     11.0012                45.1769                30.1230

 - Thermochemistry -
 -------------------
 Temperature   298.150 Kelvin.  Pressure   1.00000 Atm.
 Atom     1 has atomic number  6 and mass  12.00000

 Molecular mass:   284.13472 amu.
 Principal axes and moments of inertia in atomic units:
                           1         2         3
     Eigenvalues --  2650.65398********************
           X            0.99999  -0.00051  -0.00384
           Y            0.00050   1.00000  -0.00170
           Z            0.00384   0.00170   0.99999
 This molecule is an asymmetric top.
 Rotational symmetry number  1.
 Warning -- assumption of classical behavior for rotation
           may cause significant error
 Rotational temperatures (Kelvin)      0.03268     0.00678     0.00627
 Rotational constants (GHZ):           0.68087     0.14135     0.13074
 Zero-point vibrational energy     880185.6 (Joules/Mol)
                                  210.36942 (Kcal/Mol)
 Warning -- explicit consideration of  34 degrees of freedom as
           vibrations may cause significant error
 Vibrational temperatures:     18.60    39.00    45.37    64.57    78.39
          (Kelvin)            101.70   140.30   175.23   196.12   244.37
                              281.42   295.72   303.55   309.51   350.41
                              374.44   409.42   411.20   453.74   493.32
                              513.04   528.19   579.68   634.13   658.08
                              684.96   687.94   727.25   764.74   818.64
                              829.33   842.25   871.40   889.20   919.14
                              948.93  1032.82  1064.60  1069.44  1093.54
                             1172.95  1188.20  1217.83  1258.73  1290.79
                             1300.26  1364.06  1381.22  1388.65  1400.29
                             1462.87  1492.05  1504.98  1542.16  1547.34
                             1549.77  1589.10  1622.77  1654.30  1662.78
                             1696.40  1719.26  1733.86  1768.14  1823.75
                             1866.52  1891.85  1900.70  1927.27  1937.95
                             1968.52  1997.36  2014.83  2075.27  2077.22
                             2082.18  2093.84  2130.59  2138.81  2169.52
                             2180.46  2182.93  2187.00  2191.10  2192.87
                             2199.20  2220.34  2237.05  2243.34  2305.85
                             2348.54  2381.22  2395.81  2408.91  4332.93
                             4364.57  4379.07  4380.31  4438.37  4459.68
                             4464.83  4467.88  4499.84  4512.87  4529.20
                             4545.87  4564.92  4578.87  4613.03  4623.04
                             4630.51  4654.96  5138.73  5321.33

 Zero-point correction=                           0.335245 (Hartree/Particle)
 Thermal correction to Energy=                    0.355729
 Thermal correction to Enthalpy=                  0.356673
 Thermal correction to Gibbs Free Energy=         0.283596
 Sum of electronic and zero-point Energies=          -1167.318277
 Sum of electronic and thermal Energies=             -1167.297793
 Sum of electronic and thermal Enthalpies=           -1167.296848
 Sum of electronic and thermal Free Energies=        -1167.369926

                     E (Thermal)             CV                S
                      KCal/Mol        Cal/Mol-Kelvin    Cal/Mol-Kelvin
 Total                  223.223             76.833            153.804
 Electronic               0.000              0.000              0.000
 Translational            0.889              2.981             42.831
 Rotational               0.889              2.981             34.501
 Vibrational            221.446             70.871             76.472
 Vibration     1          0.593              1.987              7.501
 Vibration     2          0.593              1.984              6.031
 Vibration     3          0.594              1.983              5.730
 Vibration     4          0.595              1.979              5.031
 Vibration     5          0.596              1.976              4.648
 Vibration     6          0.598              1.968              4.134
 Vibration     7          0.603              1.951              3.503
 Vibration     8          0.609              1.931              3.072
 Vibration     9          0.614              1.917              2.855
 Vibration    10          0.625              1.880              2.437
 Vibration    11          0.636              1.846              2.174
 Vibration    12          0.640              1.832              2.083
 Vibration    13          0.643              1.824              2.035
 Vibration    14          0.645              1.818              2.000
 Vibration    15          0.659              1.773              1.777
 Vibration    16          0.668              1.745              1.660
 Vibration    17          0.683              1.702              1.506
 Vibration    18          0.684              1.700              1.499
 Vibration    19          0.703              1.644              1.334
 Vibration    20          0.722              1.590              1.199
 Vibration    21          0.732              1.562              1.137
 Vibration    22          0.740              1.540              1.092
 Vibration    23          0.768              1.464              0.952
 Vibration    24          0.801              1.381              0.824
 Vibration    25          0.816              1.345              0.774
 Vibration    26          0.833              1.303              0.721
 Vibration    27          0.835              1.299              0.715
 Vibration    28          0.861              1.238              0.645
 Vibration    29          0.886              1.180              0.584
 Vibration    30          0.925              1.098              0.506
 Vibration    31          0.933              1.082              0.492
 Vibration    32          0.942              1.063              0.475
 Vibration    33          0.964              1.020              0.440
 Vibration    34          0.978              0.994              0.420

                           ! Non-Optimized Parameters !
 Normal termination of Gaussian 16 at Mon Dec 14 19:39:58 2020.

 ----------------------------------------------------------------------
 # B3LYP/6-311++G(d,p) empiricaldispersion=gd3bj scf=xqc pop=npa geom=c
 heck
 ----------------------------------------------------------------------

 ---------------------------------------
 CID_81276282_JID_10372_Energie_neutraal
 ---------------------------------------
 Structure from the checkpoint file:  "JID_10372.chk"
 Charge =  0 Multiplicity = 1

 SCF Done:  E(RB3LYP) =  -1167.88134118     A.U. after   17 cycles
 Normal termination of Gaussian 16 at Mon Dec 14 19:51:24 2020.

 ----------------------------------------------------------------------
 # B3LYP/6-311++G(d,p) empiricaldispersion=gd3bj scf=xqc pop=npa geom=c
 heck
 ----------------------------------------------------------------------

 -------------------------------------
 CID_81276282_JID_10372_Energie_kation
 -------------------------------------
 Structure from the checkpoint file:  "JID_10372.chk"
 Charge =  1 Multiplicity = 2

 SCF Done:  E(UB3LYP) =  -1167.63114635     A.U. after   26 cycles
 Normal termination of Gaussian 16 at Mon Dec 14 20:15:35 2020.
 Gaussian 16:  ES64L-G16RevA.03 25-Dec-2016

 ----------------------------------------------------------------------
 # B3LYP/6-311++G(d,p) empiricaldispersion=gd3bj scf=xqc pop=npa geom=c
 heck
 ----------------------------------------------------------------------

 ------------------------------------
 CID_81276282_JID_10372_Energie_anion
 ------------------------------------
 Structure from the checkpoint file:  "JID_10372.chk"
 Charge = -1 Multiplicity = 2

                         Standard orientation:
 ---------------------------------------------------------------------
 Center     Atomic      Atomic             Coordinates (Angstroms)
 Number     Number       Type             X           Y           Z
 ---------------------------------------------------------------------
      1          6           0        5.638341   -2.049690   -0.578977
      2          6           0        4.436997   -1.146397   -0.442889
      3          6           0        4.260885   -0.349412    0.691642
      4          6           0        3.167349    0.511367    0.840743
      5          6           0        2.226638    0.575058   -0.199671
      6          6           0        2.384706   -0.219770   -1.339531
      7          6           0        3.474460   -1.075313   -1.458396
      8          7           0        1.111290    1.464653   -0.094215
      9          6           0        1.350447    2.862786   -0.420356
     10          6           0       -0.185180    0.972018   -0.056545
     11          6           0       -0.434382   -0.373684    0.280707
     12          6           0       -1.720730   -0.897712    0.376182
     13          6           0       -2.830802   -0.054299    0.112098
     14          6           0       -2.577300    1.275831   -0.257803
     15          6           0       -1.295738    1.795234   -0.330299
     16          6           0       -4.243136   -0.496496    0.178039
     17         16           0       -5.414678   -0.018777   -0.918347
     18          7           0       -4.558308   -1.333797    1.194219
     19          6           0       -1.846699   -2.372446    0.700047
     20          6           0        2.994943    1.339841    2.087978
     21          1           0        6.395246   -1.605679   -1.238638
     22          1           0        6.113625   -2.231946    0.389891
     23          1           0        5.363599   -3.018621   -1.010115
     24          1           0        4.991494   -0.407559    1.495761
     25          1           0        1.635076   -0.165545   -2.123479
     26          1           0        3.583012   -1.690092   -2.348463
     27          1           0        1.058619    3.106610   -1.453076
     28          1           0        0.799741    3.521065    0.260815
     29          1           0        2.416548    3.066288   -0.311023
     30          1           0        0.408377   -1.030458    0.464293
     31          1           0       -3.425866    1.908474   -0.493555
     32          1           0       -1.162428    2.830993   -0.616831
     33          1           0       -3.933058   -1.466374    1.976181
     34          1           0       -5.524636   -1.611852    1.298249
     35          1           0       -0.921774   -2.892448    0.434226
     36          1           0       -2.011564   -2.553292    1.771289
     37          1           0       -2.673216   -2.842385    0.161517
     38          1           0        3.626514    0.963085    2.897888
     39          1           0        3.267521    2.389941    1.919812
     40          1           0        1.952350    1.332748    2.420979
 ---------------------------------------------------------------------

 SCF Done:  E(UB3LYP) =  -1167.88324276     A.U. after   33 cycles
 SCF Done:  E(UB3LYP) =  -1167.88324276     a.u. after    1 cycles

 The electronic state is 2-A.
 Alpha  occ. eigenvalues --  -88.64963 -14.23025 -14.21089 -10.11018 -10.10972
 Alpha  occ. eigenvalues --  -10.10184 -10.09567 -10.09172 -10.09009 -10.08577
 Alpha  occ. eigenvalues --  -10.08280 -10.08121 -10.08041 -10.08010 -10.06699
 Alpha  occ. eigenvalues --  -10.06197 -10.05131 -10.04998 -10.04943 -10.04879
 Alpha  occ. eigenvalues --   -7.73726  -5.70079  -5.69625  -5.69288  -0.85758
 Alpha  occ. eigenvalues --   -0.81403  -0.76809  -0.73463  -0.69427  -0.67436
 Alpha  occ. eigenvalues --   -0.65788  -0.64854  -0.61779  -0.60498  -0.59562
 Alpha  occ. eigenvalues --   -0.57388  -0.56039  -0.52131  -0.50547  -0.47768
 Alpha  occ. eigenvalues --   -0.47038  -0.45007  -0.42655  -0.41612  -0.40034
 Alpha  occ. eigenvalues --   -0.39203  -0.37468  -0.36256  -0.34928  -0.34632
 Alpha  occ. eigenvalues --   -0.34112  -0.33342  -0.32868  -0.32481  -0.32019
 Alpha  occ. eigenvalues --   -0.31493  -0.31216  -0.30590  -0.29572  -0.29081
 Alpha  occ. eigenvalues --   -0.27984  -0.26733  -0.26216  -0.25821  -0.25690
 Alpha  occ. eigenvalues --   -0.25361  -0.24185  -0.22420  -0.21382  -0.18122
 Alpha  occ. eigenvalues --   -0.16300  -0.15260  -0.13505  -0.10629  -0.08860
 Alpha  occ. eigenvalues --   -0.07123   0.03790
 Alpha virt. eigenvalues --    0.05151   0.06209   0.06871   0.07010   0.07452
 Alpha virt. eigenvalues --    0.07531   0.08406   0.08908   0.09268   0.09752
 Alpha virt. eigenvalues --    0.09916   0.10386   0.10966   0.11159   0.11326

  Beta  occ. eigenvalues --  -88.64929 -14.23002 -14.20978 -10.10983 -10.10964
  Beta  occ. eigenvalues --  -10.09723 -10.09384 -10.09115 -10.08947 -10.08564
  Beta  occ. eigenvalues --  -10.08286 -10.08132 -10.08039 -10.07982 -10.06566
  Beta  occ. eigenvalues --  -10.06203 -10.05177 -10.05004 -10.04991 -10.04777
  Beta  occ. eigenvalues --   -7.73696  -5.70075  -5.69506  -5.69267  -0.85633
  Beta  occ. eigenvalues --   -0.80967  -0.76724  -0.73305  -0.69322  -0.67376
  Beta  occ. eigenvalues --   -0.65644  -0.64574  -0.61637  -0.60447  -0.59281
  Beta  occ. eigenvalues --   -0.57363  -0.55934  -0.52043  -0.50384  -0.47636
  Beta  occ. eigenvalues --   -0.46830  -0.44789  -0.42566  -0.41485  -0.39972
  Beta  occ. eigenvalues --   -0.39132  -0.37352  -0.36108  -0.34838  -0.34558
  Beta  occ. eigenvalues --   -0.34007  -0.33260  -0.32782  -0.32438  -0.31934
  Beta  occ. eigenvalues --   -0.31346  -0.31186  -0.30545  -0.29536  -0.29019
  Beta  occ. eigenvalues --   -0.27867  -0.26461  -0.25949  -0.25701  -0.25535
  Beta  occ. eigenvalues --   -0.25029  -0.23356  -0.22018  -0.21105  -0.17701
  Beta  occ. eigenvalues --   -0.16155  -0.14897  -0.13175  -0.09848  -0.08505
  Beta  occ. eigenvalues --   -0.06884
  Beta virt. eigenvalues --    0.05459   0.06385   0.06997   0.07098   0.07468
  Beta virt. eigenvalues --    0.07536   0.08405   0.08601   0.09009   0.09492
  Beta virt. eigenvalues --    0.09681   0.09991   0.10352   0.11052   0.11089

 Mulliken charges and spin densities:
               1          2
     1  C    0.610635  -1.190673
     2  C   -0.062841   0.441059
     3  C   -0.261336  -0.172175
     4  C   -0.042519   0.107839
     5  C   -0.285747  -0.052145
     6  C    0.080074   0.150763
     7  C   -0.820986   0.266169
     8  N    0.483157  -0.009570
     9  C   -0.076197  -0.180618
    10  C   -0.293100   0.152529
    11  C   -0.010392   0.004748
    12  C    0.710769   0.000664
    13  C    0.944417  -0.047341
    14  C   -0.883349   0.048546
    15  C   -0.107497  -0.056015
    16  C   -0.735357   0.172372
    17  S   -0.951578   0.133064
    18  N   -0.179113   0.077084
    19  C   -0.645230   0.008202
    20  C   -0.253724  -0.207728
    21  H    0.136541   0.022709
    22  H   -0.166332   0.308181
    23  H   -0.085843   0.231923
    24  H   -0.089545   0.243676
    25  H    0.130982   0.027347
    26  H    0.078326   0.080978
    27  H    0.131471   0.007784
    28  H    0.115426   0.048151
    29  H    0.071528   0.069708
    30  H    0.201619  -0.108004
    31  H    0.125805  -0.001821
    32  H    0.121189   0.006318
    33  H    0.222803  -0.009124
    34  H    0.255492   0.000797
    35  H    0.058681   0.063923
    36  H    0.097180   0.053510
    37  H    0.174745   0.031087
    38  H    0.036412   0.099147
    39  H    0.013464   0.146830
    40  H    0.149971   0.030107
 Sum of Mulliken charges =  -1.00000   1.00000

 Dipole moment (field-independent basis, Debye):
    X=              7.1850    Y=              0.8965    Z=              2.3410  Tot=              7.6098
 Quadrupole moment (field-independent basis, Debye-Ang):
   XX=           -251.9937   YY=           -148.9489   ZZ=           -143.0623
   XY=             10.7860   XZ=            -21.0620   YZ=             -3.9532

 Summary of Natural Population Analysis:

                                       Natural Population
                Natural  -----------------------------------------------
    Atom  No    Charge         Core      Valence    Rydberg      Total
 -----------------------------------------------------------------------
      C    1   -0.29109      0.99964     2.28655    0.00490     3.29109
      C    2   -0.00948      0.99952     2.00007    0.00990     3.00948
      C    3   -0.10590      0.99948     2.09730    0.00912     3.10590
      C    4   -0.00804      0.99946     1.99901    0.00957     3.00804
      C    5    0.08541      0.99942     1.90367    0.01151     2.91459
      C    6   -0.09654      0.99951     2.08908    0.00795     3.09654
      C    7   -0.10212      0.99952     2.09390    0.00870     3.10212
      N    8   -0.25337      0.99962     2.74341    0.01034     3.75337
      C    9   -0.17161      0.99965     2.16591    0.00606     3.17161
      C   10    0.12918      0.99949     1.86023    0.01110     2.87082
      C   11   -0.14541      0.99949     2.13760    0.00832     3.14541
      C   12    0.02296      0.99949     1.96798    0.00957     2.97704
      C   13   -0.07890      0.99941     2.06798    0.01151     3.07890
      C   14   -0.04355      0.99954     2.03588    0.00813     3.04355
      C   15   -0.15194      0.99954     2.14535    0.00705     3.15194
      C   16    0.13335      0.99960     1.84917    0.01788     2.86665
      S   17   -0.14124      4.99957     3.12708    0.01459     8.14124
      N   18   -0.37420      0.99968     2.86389    0.01063     3.87420
      C   19   -0.29534      0.99964     2.29053    0.00517     3.29534
      C   20   -0.29383      0.99964     2.28954    0.00465     3.29383
      H   21    0.10122      0.00000     0.39764    0.00113     0.39878
      H   22    0.10180      0.00000     0.39710    0.00110     0.39820
      H   23    0.10319      0.00000     0.39555    0.00126     0.39681
      H   24    0.09620      0.00000     0.40283    0.00097     0.40380
      H   25    0.10619      0.00000     0.39257    0.00124     0.39381
      H   26    0.09757      0.00000     0.40157    0.00086     0.40243
      H   27    0.08761      0.00000     0.41066    0.00173     0.41239
      H   28    0.09442      0.00000     0.40386    0.00172     0.40558
      H   29    0.09949      0.00000     0.39971    0.00080     0.40051
      H   30    0.10124      0.00000     0.39689    0.00187     0.39876
      H   31    0.10788      0.00000     0.39096    0.00116     0.39212
      H   32    0.09798      0.00000     0.40103    0.00100     0.40202
      H   33    0.18617      0.00000     0.31236    0.00147     0.31383
      H   34    0.19219      0.00000     0.30610    0.00171     0.30781
      H   35    0.09982      0.00000     0.39931    0.00087     0.40018
      H   36    0.09492      0.00000     0.40351    0.00157     0.40508
      H   37    0.11037      0.00000     0.38846    0.00116     0.38963
      H   38    0.09976      0.00000     0.39945    0.00079     0.40024
      H   39    0.10297      0.00000     0.39571    0.00132     0.39703
      H   40    0.11069      0.00000     0.38821    0.00110     0.38931
 =======================================================================
   * Total *    0.00000     23.99090    51.79760    0.21150    76.00000

 Normal termination of Gaussian 16 at Mon Dec 14 20:46:02 2020.
