 Gaussian 16, Revision A.03,

 -----------------------------------------------------------
 # opt freq B3LYP/6-31G(d) empiricaldispersion=gd3bj scf=xqc
 -----------------------------------------------------------

 ------------------------------
 CID_19788698_JID_8682_neutraal
 ------------------------------
 Symbolic Z-matrix:
 Charge =  0 Multiplicity = 1

 SCF Done:  E(RB3LYP) =  -845.289242027     A.U. after   15 cycles
 SCF Done:  E(RB3LYP) =  -845.293739400     A.U. after   13 cycles
 SCF Done:  E(RB3LYP) =  -845.294420955     A.U. after   13 cycles
 SCF Done:  E(RB3LYP) =  -845.296436498     A.U. after   13 cycles
 SCF Done:  E(RB3LYP) =  -845.295812045     A.U. after   12 cycles
 SCF Done:  E(RB3LYP) =  -845.296616540     A.U. after   14 cycles
 SCF Done:  E(RB3LYP) =  -845.296908480     A.U. after   12 cycles
 SCF Done:  E(RB3LYP) =  -845.297265689     A.U. after   12 cycles
 SCF Done:  E(RB3LYP) =  -845.297436943     A.U. after   12 cycles
 SCF Done:  E(RB3LYP) =  -845.297531619     A.U. after   12 cycles
 SCF Done:  E(RB3LYP) =  -845.298809107     A.U. after   11 cycles
 SCF Done:  E(RB3LYP) =  -845.298812744     A.U. after   11 cycles
 SCF Done:  E(RB3LYP) =  -845.298812928     A.U. after   10 cycles
 SCF Done:  E(RB3LYP) =  -845.298813386     A.U. after    9 cycles
 SCF Done:  E(RB3LYP) =  -845.298813420     A.U. after    8 cycles
 Optimization completed.
    -- Stationary point found.
 Normal termination of Gaussian 16 at Fri Dec 11 21:59:07 2020.

 --------------------------------------------------------------------
 #N Geom=AllCheck Guess=TCheck SCRF=Check GenChk RB3LYP/6-31G(d) Freq
 --------------------------------------------------------------------

 Structure from the checkpoint file:  "JID_8682.chk"
 ------------------------------
 CID_19788698_JID_8682_neutraal
 ------------------------------
 Charge =  0 Multiplicity = 1

 SCF Done:  E(RB3LYP) =  -845.298813420     A.U. after    1 cycles

  Exact polarizability: 214.929 -13.397 149.925  16.213  11.505 107.665
 Approx polarizability: 275.574 -25.578 247.656  36.889  30.990 172.459

                      1                      2                      3
                      A                      A                      A
 Frequencies --     15.3758                24.4863                39.2750
 Red. masses --      5.5977                 5.4172                 4.3250
 Frc consts  --      0.0008                 0.0019                 0.0039
 IR Inten    --      1.2568                 0.8243                 1.1709

                      4                      5                      6
                      A                      A                      A
 Frequencies --     48.8738                68.2777                78.3810
 Red. masses --      4.0129                 4.3085                 3.7686
 Frc consts  --      0.0056                 0.0118                 0.0136
 IR Inten    --      3.7480                 1.6487                 3.7711

                      7                      8                      9
                      A                      A                      A
 Frequencies --     99.8341               107.2289               118.1033
 Red. masses --      5.0796                 3.6591                 4.2122
 Frc consts  --      0.0298                 0.0248                 0.0346
 IR Inten    --      0.9511                 1.8926                 2.4426

                     10                     11                     12
                      A                      A                      A
 Frequencies --    153.6019               164.8022               235.7107
 Red. masses --      4.5632                 2.9936                 1.2830
 Frc consts  --      0.0634                 0.0479                 0.0420
 IR Inten    --      0.8091                 3.8316                 1.0086

                     13                     14                     15
                      A                      A                      A
 Frequencies --    238.7958               269.7828               291.3996
 Red. masses --      4.3371                 2.7212                 4.2001
 Frc consts  --      0.1457                 0.1167                 0.2101
 IR Inten    --      4.8516                33.6487                 1.2625

                     16                     17                     18
                      A                      A                      A
 Frequencies --    301.8418               322.6951               339.8539
 Red. masses --      3.1554                 1.2718                 2.4084
 Frc consts  --      0.1694                 0.0780                 0.1639
 IR Inten    --      4.0399               143.7378                15.1608

                     19                     20                     21
                      A                      A                      A
 Frequencies --    373.8684               398.0055               424.1684
 Red. masses --      2.5388                 2.8211                 3.0607
 Frc consts  --      0.2091                 0.2633                 0.3245
 IR Inten    --      5.4919                11.7580                 2.7294

                     22                     23                     24
                      A                      A                      A
 Frequencies --    432.0129               440.6300               500.7545
 Red. masses --      3.5664                 2.6298                 4.5439
 Frc consts  --      0.3922                 0.3008                 0.6713
 IR Inten    --      3.6103                18.5704                 5.3966

                     25                     26                     27
                      A                      A                      A
 Frequencies --    538.4545               566.4472               597.4901
 Red. masses --      3.0288                 3.1240                 3.1521
 Frc consts  --      0.5174                 0.5906                 0.6630
 IR Inten    --      1.7803                 3.4734                18.5300

                     28                     29                     30
                      A                      A                      A
 Frequencies --    631.2955               654.1415               712.1924
 Red. masses --      3.7227                 6.8573                 3.3240
 Frc consts  --      0.8741                 1.7288                 0.9934
 IR Inten    --     10.5124                 0.9127                26.1799

                     31                     32                     33
                      A                      A                      A
 Frequencies --    738.1188               765.9366               787.7466
 Red. masses --      2.4603                 3.0693                 2.6152
 Frc consts  --      0.7897                 1.0609                 0.9561
 IR Inten    --      7.3434                13.9694                 7.6666

                     34                     35                     36
                      A                      A                      A
 Frequencies --    808.0269               844.4550               860.4557
 Red. masses --      2.0666                 1.8621                 1.8645
 Frc consts  --      0.7950                 0.7824                 0.8134
 IR Inten    --      5.1399                 3.4001                15.5868

                     37                     38                     39
                      A                      A                      A
 Frequencies --    868.1786               870.5322               895.1701
 Red. masses --      1.7210                 1.9064                 2.6111
 Frc consts  --      0.7643                 0.8512                 1.2328
 IR Inten    --      2.9533                 8.1177                 6.5689

                     40                     41                     42
                      A                      A                      A
 Frequencies --    897.9738               957.6071               980.6661
 Red. masses --      2.1850                 1.8079                 1.3276
 Frc consts  --      1.0381                 0.9768                 0.7523
 IR Inten    --      7.6383                 4.4056                 0.1781

                     43                     44                     45
                      A                      A                      A
 Frequencies --    992.3337              1013.1436              1032.1885
 Red. masses --      1.3096                 1.9307                 2.4081
 Frc consts  --      0.7598                 1.1676                 1.5116
 IR Inten    --      0.9330                 4.4938                 6.2730

                     46                     47                     48
                      A                      A                      A
 Frequencies --   1036.2593              1047.8373              1057.6894
 Red. masses --      3.2018                 2.7804                 4.0342
 Frc consts  --      2.0257                 1.7987                 2.6591
 IR Inten    --      3.3439                30.6183                94.7009

                     49                     50                     51
                      A                      A                      A
 Frequencies --   1083.9843              1127.3254              1131.7542
 Red. masses --      2.5882                 2.1391                 1.5115
 Frc consts  --      1.7918                 1.6017                 1.1407
 IR Inten    --      2.6750                13.9279                32.9664

                     52                     53                     54
                      A                      A                      A
 Frequencies --   1144.2084              1150.5725              1190.2304
 Red. masses --      2.3296                 1.8410                 1.2987
 Frc consts  --      1.7970                 1.4359                 1.0840
 IR Inten    --    139.2067                65.3383                 4.0949

                     55                     56                     57
                      A                      A                      A
 Frequencies --   1199.3416              1212.7070              1215.8120
 Red. masses --      1.2387                 1.8380                 1.1690
 Frc consts  --      1.0498                 1.5926                 1.0182
 IR Inten    --      5.3142                46.1368                77.1814

                     58                     59                     60
                      A                      A                      A
 Frequencies --   1239.5272              1249.6841              1301.0886
 Red. masses --      2.4733                 1.4576                 1.3051
 Frc consts  --      2.2389                 1.3412                 1.3017
 IR Inten    --      3.8157                24.5512                18.2216

                     61                     62                     63
                      A                      A                      A
 Frequencies --   1311.3356              1343.3585              1350.9339
 Red. masses --      3.8423                 1.1335                 1.3280
 Frc consts  --      3.8928                 1.2052                 1.4280
 IR Inten    --    531.4316                 8.5850                19.8360

                     64                     65                     66
                      A                      A                      A
 Frequencies --   1363.1928              1377.4382              1381.1199
 Red. masses --      3.0481                 1.3273                 1.8138
 Frc consts  --      3.3373                 1.4838                 2.0384
 IR Inten    --      9.9859                 3.5768                 3.1065

                     67                     68                     69
                      A                      A                      A
 Frequencies --   1396.6120              1406.5293              1420.2404
 Red. masses --      1.4373                 1.3356                 1.2935
 Frc consts  --      1.6518                 1.5567                 1.5373
 IR Inten    --      3.4405                 8.4791                22.3287

                     70                     71                     72
                      A                      A                      A
 Frequencies --   1423.7391              1444.0544              1463.1788
 Red. masses --      1.4320                 1.3318                 2.6163
 Frc consts  --      1.7103                 1.6363                 3.3001
 IR Inten    --     42.7439                 9.2231                20.8564

                     73                     74                     75
                      A                      A                      A
 Frequencies --   1484.7211              1508.1979              1514.9694
 Red. masses --      1.0902                 1.0882                 1.0821
 Frc consts  --      1.4160                 1.4584                 1.4633
 IR Inten    --      9.5165                 6.9338                 1.8222

                     76                     77                     78
                      A                      A                      A
 Frequencies --   1515.5440              1518.7215              1528.1779
 Red. masses --      1.0560                 1.0768                 1.1104
 Frc consts  --      1.4290                 1.4633                 1.5279
 IR Inten    --     12.9254                 6.6194                 6.7537

                     79                     80                     81
                      A                      A                      A
 Frequencies --   1538.2443              1561.5450              1628.7069
 Red. masses --      1.0572                 2.4638                 6.5151
 Frc consts  --      1.4738                 3.5397                10.1825
 IR Inten    --      7.4364                 1.9824                 4.7327

                     82                     83                     84
                      A                      A                      A
 Frequencies --   1670.8722              1795.3974              1817.0164
 Red. masses --      5.7192                11.5557                10.8251
 Frc consts  --      9.4074                21.9465                21.0572
 IR Inten    --     46.7834               221.5555               108.7315

                     85                     86                     87
                      A                      A                      A
 Frequencies --   2995.9910              3027.4285              3056.2104
 Red. masses --      1.0704                 1.0678                 1.0648
 Frc consts  --      5.6609                 5.7661                 5.8600
 IR Inten    --     46.7402                19.4456                22.5718

                     88                     89                     90
                      A                      A                      A
 Frequencies --   3061.9338              3063.1240              3078.2783
 Red. masses --      1.0364                 1.0639                 1.0925
 Frc consts  --      5.7247                 5.8814                 6.0995
 IR Inten    --     19.9981                25.2965                17.2679

                     91                     92                     93
                      A                      A                      A
 Frequencies --   3093.8448              3108.1159              3118.3383
 Red. masses --      1.0588                 1.0979                 1.1013
 Frc consts  --      5.9711                 6.2489                 6.3099
 IR Inten    --     30.8667                15.8514                28.3916

                     94                     95                     96
                      A                      A                      A
 Frequencies --   3127.6687              3140.5751              3149.5313
 Red. masses --      1.1020                 1.1045                 1.0943
 Frc consts  --      6.3515                 6.4182                 6.3955
 IR Inten    --     26.8446                 8.3670                16.6943

                     97                     98                     99
                      A                      A                      A
 Frequencies --   3160.0334              3181.6920              3207.1878
 Red. masses --      1.1070                 1.0894                 1.0888
 Frc consts  --      6.5128                 6.4979                 6.5988
 IR Inten    --     26.8552                14.7012                 2.5309

                    100                    101                    102
                      A                      A                      A
 Frequencies --   3225.7969              3233.8283              3741.9501
 Red. masses --      1.0932                 1.0922                 1.0664
 Frc consts  --      6.7024                 6.7293                 8.7975
 IR Inten    --      2.1245                 3.2608                23.9073

 - Thermochemistry -
 -------------------
 Temperature   298.150 Kelvin.  Pressure   1.00000 Atm.
 Atom     1 has atomic number  6 and mass  12.00000

 Molecular mass:   250.12051 amu.
 Principal axes and moments of inertia in atomic units:
                           1         2         3
     Eigenvalues --  1899.72547********************
           X            0.99999  -0.00164  -0.00310
           Y            0.00164   1.00000  -0.00018
           Z            0.00311   0.00018   1.00000
 This molecule is an asymmetric top.
 Rotational symmetry number  1.
 Warning -- assumption of classical behavior for rotation
           may cause significant error
 Rotational temperatures (Kelvin)      0.04559     0.00838     0.00755
 Rotational constants (GHZ):           0.95000     0.17457     0.15739
 Zero-point vibrational energy     792069.7 (Joules/Mol)
                                  189.30920 (Kcal/Mol)
 Warning -- explicit consideration of  27 degrees of freedom as
           vibrations may cause significant error
 Vibrational temperatures:     22.12    35.23    56.51    70.32    98.24
          (Kelvin)            112.77   143.64   154.28   169.92   221.00
                              237.11   339.14   343.57   388.16   419.26
                              434.28   464.29   488.97   537.91   572.64
                              610.28   621.57   633.97   720.47   774.72
                              814.99   859.65   908.29   941.16  1024.69
                             1061.99  1102.01  1133.39  1162.57  1214.98
                             1238.00  1249.12  1252.50  1287.95  1291.98
                             1377.78  1410.96  1427.75  1457.69  1485.09
                             1490.95  1507.60  1521.78  1559.61  1621.97
                             1628.34  1646.26  1655.42  1712.48  1725.59
                             1744.81  1749.28  1783.40  1798.02  1871.98
                             1886.72  1932.79  1943.69  1961.33  1981.83
                             1987.12  2009.41  2023.68  2043.41  2048.44
                             2077.67  2105.19  2136.18  2169.96  2179.70
                             2180.53  2185.10  2198.71  2213.19  2246.72
                             2343.35  2404.01  2583.18  2614.28  4310.56
                             4355.79  4397.21  4405.44  4407.15  4428.96
                             4451.35  4471.89  4486.59  4500.02  4518.59
                             4531.47  4546.58  4577.75  4614.43  4641.20
                             4652.76  5383.83

 Zero-point correction=                           0.301683 (Hartree/Particle)
 Thermal correction to Energy=                    0.320049
 Thermal correction to Enthalpy=                  0.320994
 Thermal correction to Gibbs Free Energy=         0.252178
 Sum of electronic and zero-point Energies=           -844.997130
 Sum of electronic and thermal Energies=              -844.978764
 Sum of electronic and thermal Enthalpies=            -844.977820
 Sum of electronic and thermal Free Energies=         -845.046635

                     E (Thermal)             CV                S
                      KCal/Mol        Cal/Mol-Kelvin    Cal/Mol-Kelvin
 Total                  200.834             67.297            144.834
 Electronic               0.000              0.000              0.000
 Translational            0.889              2.981             42.451
 Rotational               0.889              2.981             33.776
 Vibrational            199.057             61.335             68.607
 Vibration     1          0.593              1.986              7.156
 Vibration     2          0.593              1.985              6.232
 Vibration     3          0.594              1.981              5.295
 Vibration     4          0.595              1.978              4.862
 Vibration     5          0.598              1.969              4.202
 Vibration     6          0.600              1.964              3.931
 Vibration     7          0.604              1.949              3.458
 Vibration     8          0.606              1.943              3.318
 Vibration     9          0.608              1.934              3.131
 Vibration    10          0.619              1.899              2.627
 Vibration    11          0.623              1.886              2.494
 Vibration    12          0.655              1.786              1.835
 Vibration    13          0.657              1.781              1.812
 Vibration    14          0.674              1.729              1.598
 Vibration    15          0.687              1.690              1.466
 Vibration    16          0.694              1.670              1.407
 Vibration    17          0.708              1.630              1.296
 Vibration    18          0.720              1.596              1.213
 Vibration    19          0.745              1.526              1.064
 Vibration    20          0.764              1.474              0.970
 Vibration    21          0.786              1.418              0.878
 Vibration    22          0.793              1.400              0.852
 Vibration    23          0.801              1.382              0.825
 Vibration    24          0.856              1.248              0.656
 Vibration    25          0.893              1.165              0.569
 Vibration    26          0.922              1.104              0.511
 Vibration    27          0.955              1.037              0.454

 Optimization completed.
    -- Stationary point found.
 Normal termination of Gaussian 16 at Fri Dec 11 22:12:41 2020.

 ----------------------------------------------------------------------
 # B3LYP/6-311++G(d,p) empiricaldispersion=gd3bj scf=xqc pop=npa geom=c
 heck
 ----------------------------------------------------------------------

 --------------------------------------
 CID_19788698_JID_8682_Energie_neutraal
 --------------------------------------
 Structure from the checkpoint file:  "JID_8682.chk"
 Charge =  0 Multiplicity = 1

 SCF Done:  E(RB3LYP) =  -845.546326114     A.U. after   15 cycles
 Normal termination of Gaussian 16 at Fri Dec 11 22:17:58 2020.

 ----------------------------------------------------------------------
 # B3LYP/6-311++G(d,p) empiricaldispersion=gd3bj scf=xqc pop=npa geom=c
 heck
 ----------------------------------------------------------------------

 ------------------------------------
 CID_19788698_JID_8682_Energie_kation
 ------------------------------------
 Structure from the checkpoint file:  "JID_8682.chk"
 Charge =  1 Multiplicity = 2

 SCF Done:  E(UB3LYP) =  -845.227462486     A.U. after   33 cycles
 SCF Done:  E(UB3LYP) =  -845.227462486     a.u. after    1 cycles
 Normal termination of Gaussian 16 at Fri Dec 11 22:33:40 2020.
 Gaussian 16:  ES64L-G16RevA.03 25-Dec-2016

 ----------------------------------------------------------------------
 # B3LYP/6-311++G(d,p) empiricaldispersion=gd3bj scf=xqc pop=npa geom=c
 heck
 ----------------------------------------------------------------------

 -----------------------------------
 CID_19788698_JID_8682_Energie_anion
 -----------------------------------
 Structure from the checkpoint file:  "JID_8682.chk"
 Charge = -1 Multiplicity = 2

                         Standard orientation:
 ---------------------------------------------------------------------
 Center     Atomic      Atomic             Coordinates (Angstroms)
 Number     Number       Type             X           Y           Z
 ---------------------------------------------------------------------
      1          6           0       -6.044622    0.052286    0.347939
      2          6           0       -5.165610    0.214563   -0.881775
      3          8           0       -3.838491   -0.308649   -0.648648
      4          6           0       -2.975341    0.515329   -0.010509
      5          8           0       -3.259556    1.644924    0.340878
      6          6           0       -1.646485   -0.116991    0.201535
      7          6           0       -0.660410    0.626755    0.860638
      8          6           0        0.600112    0.078696    1.081886
      9          6           0        0.907670   -1.217169    0.642732
     10          6           0       -0.089783   -1.955138   -0.010210
     11          6           0       -1.354059   -1.417873   -0.229617
     12          6           0        2.297638   -1.783024    0.810410
     13          6           0        3.097256   -1.791649   -0.510409
     14          6           0        3.228268   -0.406358   -1.146186
     15          6           0        4.067637    0.565034   -0.324633
     16          8           0        4.933359    0.181239    0.438121
     17          6           0        3.773422    2.057720   -0.508030
     18          8           0        2.517003    2.406214    0.064537
     19          1           0       -6.083683   -0.996197    0.660454
     20          1           0       -7.064501    0.384644    0.123658
     21          1           0       -5.659017    0.655343    1.173979
     22          1           0       -5.540561   -0.369890   -1.725243
     23          1           0       -5.083078    1.264263   -1.173261
     24          1           0       -0.901913    1.629685    1.196780
     25          1           0        1.360934    0.668264    1.583974
     26          1           0        0.129877   -2.964693   -0.349463
     27          1           0       -2.119182   -1.997966   -0.732354
     28          1           0        2.849653   -1.201804    1.555611
     29          1           0        2.239539   -2.811705    1.186543
     30          1           0        4.098438   -2.186679   -0.312044
     31          1           0        2.611717   -2.464839   -1.226709
     32          1           0        3.728418   -0.486184   -2.123603
     33          1           0        2.240559    0.022234   -1.353836
     34          1           0        4.530944    2.625854    0.034372
     35          1           0        3.821466    2.324583   -1.576679
     36          1           0        1.807724    1.982175   -0.443906
 ---------------------------------------------------------------------

 SCF Done:  E(UB3LYP) =  -845.553705897     A.U. after   28 cycles

 The electronic state is 2-A.
 Alpha  occ. eigenvalues --  -19.03529 -19.02193 -18.99644 -18.96077 -10.14600
 Alpha  occ. eigenvalues --  -10.13483 -10.12336 -10.11642 -10.07058 -10.06952
 Alpha  occ. eigenvalues --  -10.06280 -10.05379 -10.04317 -10.04103 -10.03944
 Alpha  occ. eigenvalues --  -10.03888 -10.03831 -10.03660  -0.97237  -0.93523
 Alpha  occ. eigenvalues --   -0.91756  -0.87953  -0.73197  -0.69279  -0.67036
 Alpha  occ. eigenvalues --   -0.64206  -0.61641  -0.61214  -0.58088  -0.55069
 Alpha  occ. eigenvalues --   -0.50884  -0.47910  -0.46824  -0.43911  -0.42585
 Alpha  occ. eigenvalues --   -0.40794  -0.40261  -0.37938  -0.36686  -0.35914
 Alpha  occ. eigenvalues --   -0.35178  -0.34751  -0.34244  -0.32805  -0.32337
 Alpha  occ. eigenvalues --   -0.31088  -0.30580  -0.29900  -0.29235  -0.29028
 Alpha  occ. eigenvalues --   -0.28095  -0.27710  -0.26565  -0.25371  -0.24677
 Alpha  occ. eigenvalues --   -0.24244  -0.23267  -0.22954  -0.22203  -0.21270
 Alpha  occ. eigenvalues --   -0.20784  -0.19669  -0.18279  -0.14336  -0.13330
 Alpha  occ. eigenvalues --   -0.12913  -0.12277   0.04133
 Alpha virt. eigenvalues --    0.06069   0.06835   0.07916   0.08510   0.09195
 Alpha virt. eigenvalues --    0.09495   0.09749   0.10308   0.10986   0.11071
 Alpha virt. eigenvalues --    0.11378   0.11880   0.12147   0.13060   0.13070

  Beta  occ. eigenvalues --  -19.03477 -19.02136 -18.99475 -18.95851 -10.14381
  Beta  occ. eigenvalues --  -10.13299 -10.12339 -10.11644 -10.07044 -10.06966
  Beta  occ. eigenvalues --  -10.06254 -10.05403 -10.04373 -10.03979 -10.03921
  Beta  occ. eigenvalues --  -10.03768 -10.03603 -10.03520  -0.97012  -0.93241
  Beta  occ. eigenvalues --   -0.91564  -0.87605  -0.72903  -0.69126  -0.66946
  Beta  occ. eigenvalues --   -0.63902  -0.61449  -0.60976  -0.57942  -0.54939
  Beta  occ. eigenvalues --   -0.50695  -0.47772  -0.46511  -0.43731  -0.42408
  Beta  occ. eigenvalues --   -0.40691  -0.40059  -0.37802  -0.36524  -0.35695
  Beta  occ. eigenvalues --   -0.34964  -0.34592  -0.34051  -0.32587  -0.32158
  Beta  occ. eigenvalues --   -0.30934  -0.30448  -0.29755  -0.29156  -0.28810
  Beta  occ. eigenvalues --   -0.27606  -0.27287  -0.26257  -0.25268  -0.24527
  Beta  occ. eigenvalues --   -0.23754  -0.23079  -0.22813  -0.21756  -0.21127
  Beta  occ. eigenvalues --   -0.20658  -0.19567  -0.17512  -0.14104  -0.13144
  Beta  occ. eigenvalues --   -0.12388  -0.10963
  Beta virt. eigenvalues --    0.06649   0.06969   0.08154   0.08849   0.08948
  Beta virt. eigenvalues --    0.09383   0.09522   0.09843   0.10377   0.10943
  Beta virt. eigenvalues --    0.11078   0.11458   0.11860   0.12180   0.12940

 Mulliken charges and spin densities:
               1          2
     1  C   -0.158044  -0.179545
     2  C   -0.247251   0.073760
     3  O   -0.021244   0.009426
     4  C   -0.434707   0.072893
     5  O   -0.341794   0.083531
     6  C    0.602612   0.049194
     7  C   -0.425447   0.137463
     8  C   -0.692798  -0.035325
     9  C    0.950363   0.191550
    10  C   -0.599062  -0.007968
    11  C   -0.502932   0.144100
    12  C   -0.130816  -0.057288
    13  C   -0.346124  -0.014515
    14  C   -0.059139  -0.101032
    15  C   -0.076284   0.197891
    16  O   -0.296803   0.057232
    17  C   -0.287364  -0.214589
    18  O   -0.200461  -0.007192
    19  H    0.093042   0.037013
    20  H    0.047883   0.063844
    21  H    0.132577   0.045549
    22  H    0.118958   0.018962
    23  H    0.172198  -0.006079
    24  H    0.190477   0.000058
    25  H    0.202077  -0.015509
    26  H    0.103266   0.005282
    27  H    0.164751  -0.006646
    28  H    0.179134   0.002182
    29  H    0.112640   0.045793
    30  H    0.145746   0.011889
    31  H    0.115392   0.016650
    32  H    0.043694   0.135836
    33  H    0.151617  -0.025958
    34  H    0.154325   0.014163
    35  H   -0.026555   0.167552
    36  H    0.166073   0.089833
 Sum of Mulliken charges =  -1.00000   1.00000

 Dipole moment (field-independent basis, Debye):
    X=             -1.4677    Y=             -2.6412    Z=             -2.7206  Tot=              4.0660
 Quadrupole moment (field-independent basis, Debye-Ang):
   XX=           -175.2302   YY=           -131.4087   ZZ=           -120.0564
   XY=              3.3032   XZ=             -1.8959   YZ=             -0.9743

 Summary of Natural Population Analysis:

                                       Natural Population
                Natural  -----------------------------------------------
    Atom  No    Charge         Core      Valence    Rydberg      Total
 -----------------------------------------------------------------------
      C    1   -0.29901      0.99966     2.29492    0.00443     3.29901
      C    2   -0.01606      0.99959     2.00543    0.01103     3.01606
      O    3   -0.28476      0.99986     3.27714    0.00776     4.28476
      C    4    0.42292      0.99963     1.55084    0.02661     2.57708
      O    5   -0.30523      0.99987     3.30051    0.00484     4.30523
      C    6   -0.06507      0.99945     2.05488    0.01073     3.06507
      C    7   -0.06050      0.99954     2.05147    0.00950     3.06050
      C    8   -0.13155      0.99952     2.12276    0.00927     3.13155
      C    9    0.04030      0.99951     1.95046    0.00973     2.95970
      C   10   -0.12592      0.99952     2.11736    0.00903     3.12592
      C   11   -0.05879      0.99954     2.04955    0.00970     3.05879
      C   12   -0.19945      0.99961     2.19178    0.00806     3.19945
      C   13   -0.18116      0.99963     2.17286    0.00867     3.18116
      C   14   -0.24492      0.99958     2.23619    0.00915     3.24492
      C   15    0.30026      0.99968     1.67793    0.02213     2.69974
      O   16   -0.27751      0.99987     3.27102    0.00662     4.27751
      C   17   -0.05098      0.99956     2.03844    0.01297     3.05098
      O   18   -0.36088      0.99990     3.35413    0.00685     4.36088
      H   19    0.09689      0.00000     0.40180    0.00131     0.40311
      H   20    0.09369      0.00000     0.40501    0.00131     0.40631
      H   21    0.10914      0.00000     0.38951    0.00135     0.39086
      H   22    0.08235      0.00000     0.41636    0.00128     0.41765
      H   23    0.09402      0.00000     0.40471    0.00127     0.40598
      H   24    0.10731      0.00000     0.39185    0.00084     0.39269
      H   25    0.10427      0.00000     0.39459    0.00114     0.39573
      H   26    0.09134      0.00000     0.40760    0.00106     0.40866
      H   27    0.10081      0.00000     0.39832    0.00088     0.39919
      H   28    0.10425      0.00000     0.39473    0.00102     0.39575
      H   29    0.09799      0.00000     0.40095    0.00105     0.40201
      H   30    0.10105      0.00000     0.39793    0.00102     0.39895
      H   31    0.09364      0.00000     0.40551    0.00085     0.40636
      H   32    0.11018      0.00000     0.38871    0.00111     0.38982
      H   33    0.10625      0.00000     0.39240    0.00135     0.39375
      H   34    0.09151      0.00000     0.40723    0.00127     0.40849
      H   35    0.07867      0.00000     0.41977    0.00156     0.42133
      H   36    0.23494      0.00000     0.26195    0.00312     0.26506
 =======================================================================
   * Total *    0.00000     17.99355    48.79659    0.20987    67.00000

 Normal termination of Gaussian 16 at Fri Dec 11 22:46:54 2020.
