 Gaussian 16, Revision A.03,

 -----------------------------------------------------------
 # opt freq B3LYP/6-31G(d) empiricaldispersion=gd3bj scf=xqc
 -----------------------------------------------------------

 -------------------------------
 CID_130662257_JID_3344_neutraal
 -------------------------------
 Symbolic Z-matrix:
 Charge =  0 Multiplicity = 1

 SCF Done:  E(RB3LYP) =  -560.579759376     A.U. after   13 cycles
 SCF Done:  E(RB3LYP) =  -560.588480781     A.U. after   11 cycles
 SCF Done:  E(RB3LYP) =  -560.590342761     A.U. after   11 cycles
 SCF Done:  E(RB3LYP) =  -560.592888905     A.U. after   13 cycles
 SCF Done:  E(RB3LYP) =  -560.593472870     A.U. after   11 cycles
 SCF Done:  E(RB3LYP) =  -560.594549352     A.U. after   11 cycles
 SCF Done:  E(RB3LYP) =  -560.594809552     A.U. after   10 cycles
 SCF Done:  E(RB3LYP) =  -560.594852453     A.U. after    9 cycles
 SCF Done:  E(RB3LYP) =  -560.594861869     A.U. after    9 cycles
 SCF Done:  E(RB3LYP) =  -560.594863855     A.U. after    8 cycles
 SCF Done:  E(RB3LYP) =  -560.594864191     A.U. after    7 cycles
 SCF Done:  E(RB3LYP) =  -560.594864285     A.U. after    7 cycles
 Optimization completed.
    -- Stationary point found.
 Normal termination of Gaussian 16 at Wed Dec  9 22:58:09 2020.

 --------------------------------------------------------------------
 #N Geom=AllCheck Guess=TCheck SCRF=Check GenChk RB3LYP/6-31G(d) Freq
 --------------------------------------------------------------------

 Structure from the checkpoint file:  "JID_3344.chk"
 -------------------------------
 CID_130662257_JID_3344_neutraal
 -------------------------------
 Charge =  0 Multiplicity = 1

 SCF Done:  E(RB3LYP) =  -560.594864285     A.U. after    1 cycles

  Exact polarizability: 134.091  -3.928 114.997  -2.026   0.617 104.008
 Approx polarizability: 166.993  -2.052 158.234  -1.995   1.070 161.673

                      1                      2                      3
                      A                      A                      A
 Frequencies --     32.8964                43.3063                59.0654
 Red. masses --      3.2310                 3.4757                 3.5211
 Frc consts  --      0.0021                 0.0038                 0.0072
 IR Inten    --      0.3071                 3.4337                 0.2229

                      4                      5                      6
                      A                      A                      A
 Frequencies --     89.0716               148.1465               171.5433
 Red. masses --      2.9768                 2.2827                 2.7620
 Frc consts  --      0.0139                 0.0295                 0.0479
 IR Inten    --      0.0500                 0.5598                 0.3324

                      7                      8                      9
                      A                      A                      A
 Frequencies --    195.0218               225.0675               235.0593
 Red. masses --      1.8278                 2.5282                 1.2226
 Frc consts  --      0.0410                 0.0755                 0.0398
 IR Inten    --      0.3934                 0.7831                 0.3510

                     10                     11                     12
                      A                      A                      A
 Frequencies --    267.7584               358.3921               417.5466
 Red. masses --      2.2983                 2.7843                 2.7274
 Frc consts  --      0.0971                 0.2107                 0.2802
 IR Inten    --      0.0846                 1.4495                 3.9011

                     13                     14                     15
                      A                      A                      A
 Frequencies --    437.8054               510.1023               530.4820
 Red. masses --      2.9418                 2.7036                 2.3628
 Frc consts  --      0.3322                 0.4145                 0.3918
 IR Inten    --      0.4955                 0.5738                11.1986

                     16                     17                     18
                      A                      A                      A
 Frequencies --    599.0078               659.8034               682.5516
 Red. masses --      3.0720                 3.1854                 2.3393
 Frc consts  --      0.6494                 0.8170                 0.6421
 IR Inten    --      2.2087                 4.9471                 9.7177

                     19                     20                     21
                      A                      A                      A
 Frequencies --    699.7258               763.6235               793.1503
 Red. masses --      4.1546                 2.4987                 2.0327
 Frc consts  --      1.1985                 0.8585                 0.7534
 IR Inten    --      2.3751                18.8112                 1.7211

                     22                     23                     24
                      A                      A                      A
 Frequencies --    807.9256               817.2154               850.5797
 Red. masses --      1.8255                 1.6376                 2.0687
 Frc consts  --      0.7021                 0.6444                 0.8818
 IR Inten    --     27.1908                 6.7444                 5.2372

                     25                     26                     27
                      A                      A                      A
 Frequencies --    887.3308               889.6571               892.3159
 Red. masses --      1.9663                 2.6822                 1.8499
 Frc consts  --      0.9121                 1.2508                 0.8678
 IR Inten    --      9.4748                 3.3418                11.5139

                     28                     29                     30
                      A                      A                      A
 Frequencies --    901.2448               946.2518               967.3905
 Red. masses --      1.4594                 2.3506                 2.3592
 Frc consts  --      0.6984                 1.2400                 1.3008
 IR Inten    --      6.2148                 0.8190                 6.8504

                     31                     32                     33
                      A                      A                      A
 Frequencies --    994.5964              1000.1451              1036.0029
 Red. masses --      1.8190                 1.6193                 2.4455
 Frc consts  --      1.0602                 0.9543                 1.5465
 IR Inten    --      3.0714                 1.3148                25.4288

                     34                     35                     36
                      A                      A                      A
 Frequencies --   1047.1766              1048.8997              1066.0735
 Red. masses --      2.1279                 1.4867                 1.5336
 Frc consts  --      1.3748                 0.9637                 1.0269
 IR Inten    --      3.0248                 2.9259                 3.2085

                     37                     38                     39
                      A                      A                      A
 Frequencies --   1096.2876              1101.3504              1119.3505
 Red. masses --      2.3444                 1.6400                 2.6710
 Frc consts  --      1.6601                 1.1721                 1.9717
 IR Inten    --     22.0499                 2.6355                68.4594

                     40                     41                     42
                      A                      A                      A
 Frequencies --   1124.8449              1139.0524              1158.4031
 Red. masses --      1.3185                 2.2673                 2.5710
 Frc consts  --      0.9829                 1.7332                 2.0327
 IR Inten    --      1.4570                43.1714                14.0233

                     43                     44                     45
                      A                      A                      A
 Frequencies --   1171.1288              1194.9652              1204.7158
 Red. masses --      2.1772                 2.0720                 1.2944
 Frc consts  --      1.7594                 1.7432                 1.1068
 IR Inten    --     16.6444                23.2507                 0.3563

                     46                     47                     48
                      A                      A                      A
 Frequencies --   1226.5370              1240.5844              1244.2186
 Red. masses --      1.5008                 1.4405                 1.3260
 Frc consts  --      1.3303                 1.3063                 1.2095
 IR Inten    --      9.4522                 3.2355                14.3947

                     49                     50                     51
                      A                      A                      A
 Frequencies --   1257.7121              1272.6587              1308.8391
 Red. masses --      1.4880                 1.2226                 1.3253
 Frc consts  --      1.3868                 1.1667                 1.3376
 IR Inten    --      9.8420                 0.7047                 0.7171

                     52                     53                     54
                      A                      A                      A
 Frequencies --   1317.4138              1335.4111              1343.7067
 Red. masses --      1.2929                 1.3414                 1.9773
 Frc consts  --      1.3221                 1.4094                 2.1034
 IR Inten    --      3.5465                 0.0425                 2.2842

                     55                     56                     57
                      A                      A                      A
 Frequencies --   1350.5560              1363.0641              1382.2423
 Red. masses --      1.2814                 1.2060                 1.3110
 Frc consts  --      1.3770                 1.3202                 1.4758
 IR Inten    --      1.2765                11.9461                 8.9529

                     58                     59                     60
                      A                      A                      A
 Frequencies --   1384.9253              1397.5058              1410.9177
 Red. masses --      1.4803                 1.4221                 1.3456
 Frc consts  --      1.6729                 1.6364                 1.5782
 IR Inten    --      1.1974                12.3128                 5.7434

                     61                     62                     63
                      A                      A                      A
 Frequencies --   1421.0543              1435.3588              1463.0572
 Red. masses --      1.3608                 1.4659                 2.2934
 Frc consts  --      1.6190                 1.7795                 2.8924
 IR Inten    --      2.0985                14.7020                30.0319

                     64                     65                     66
                      A                      A                      A
 Frequencies --   1506.9285              1508.5262              1515.0741
 Red. masses --      1.1949                 1.1751                 1.0638
 Frc consts  --      1.5987                 1.5756                 1.4387
 IR Inten    --      6.8411                 6.2473                 5.6238

                     67                     68                     69
                      A                      A                      A
 Frequencies --   1520.2748              1521.3357              1526.6064
 Red. masses --      1.1007                 1.0894                 1.0550
 Frc consts  --      1.4989                 1.4855                 1.4486
 IR Inten    --      4.9978                 0.1532                 4.2161

                     70                     71                     72
                      A                      A                      A
 Frequencies --   1538.7063              1561.1884              2955.2758
 Red. masses --      1.1167                 1.0968                 1.0829
 Frc consts  --      1.5578                 1.5751                 5.5725
 IR Inten    --      5.1251                 0.9383                63.1635

                     73                     74                     75
                      A                      A                      A
 Frequencies --   3015.8214              3041.9389              3044.7961
 Red. masses --      1.0700                 1.0707                 1.0602
 Frc consts  --      5.7338                 5.8372                 5.7908
 IR Inten    --     71.2298                13.1963                54.9566

                     76                     77                     78
                      A                      A                      A
 Frequencies --   3045.8219              3050.7439              3054.8441
 Red. masses --      1.0616                 1.0848                 1.0410
 Frc consts  --      5.8025                 5.9484                 5.7235
 IR Inten    --     20.3852                51.3633                 9.8149

                     79                     80                     81
                      A                      A                      A
 Frequencies --   3059.7717              3074.9014              3077.9623
 Red. masses --      1.0760                 1.0755                 1.0955
 Frc consts  --      5.9352                 5.9915                 6.1148
 IR Inten    --     31.4365                52.6437                79.1053

                     82                     83                     84
                      A                      A                      A
 Frequencies --   3079.2360              3081.0117              3119.0954
 Red. masses --      1.0989                 1.1016                 1.0989
 Frc consts  --      6.1388                 6.1610                 6.2986
 IR Inten    --     35.1258                26.4715                26.6376

                     85                     86                     87
                      A                      A                      A
 Frequencies --   3127.0477              3134.3563              3150.6092
 Red. masses --      1.1023                 1.1027                 1.0964
 Frc consts  --      6.3509                 6.3829                 6.4123
 IR Inten    --     32.8114                29.2490                32.1569

                     88                     89                     90
                      A                      A                      A
 Frequencies --   3166.3980              3177.0343              3471.7983
 Red. masses --      1.0885                 1.0927                 1.0732
 Frc consts  --      6.4300                 6.4985                 7.6217
 IR Inten    --     19.7957                36.9121                 1.1730

 - Thermochemistry -
 -------------------
 Temperature   298.150 Kelvin.  Pressure   1.00000 Atm.
 Atom     1 has atomic number  6 and mass  12.00000

 Molecular mass:   181.14666 amu.
 Principal axes and moments of inertia in atomic units:
                           1         2         3
     Eigenvalues --  1133.378233773.529874313.26071
           X            0.99994  -0.01021  -0.00260
           Y            0.01021   0.99995  -0.00099
           Z            0.00261   0.00096   1.00000
 This molecule is an asymmetric top.
 Rotational symmetry number  1.
 Warning -- assumption of classical behavior for rotation
           may cause significant error
 Rotational temperatures (Kelvin)      0.07642     0.02295     0.02008
 Rotational constants (GHZ):           1.59236     0.47826     0.41842
 Zero-point vibrational energy     763605.7 (Joules/Mol)
                                  182.50614 (Kcal/Mol)
 Warning -- explicit consideration of  16 degrees of freedom as
           vibrations may cause significant error
 Vibrational temperatures:     47.33    62.31    84.98   128.15   213.15
          (Kelvin)            246.81   280.59   323.82   338.20   385.24
                              515.65   600.76   629.90   733.92   763.25
                              861.84   949.31   982.04  1006.75  1098.68
                             1141.17  1162.42  1175.79  1223.79  1276.67
                             1280.02  1283.84  1296.69  1361.45  1391.86
                             1431.00  1438.99  1490.58  1506.65  1509.13
                             1533.84  1577.31  1584.60  1610.50  1618.40
                             1638.84  1666.68  1684.99  1719.29  1733.32
                             1764.71  1784.92  1790.15  1809.57  1831.07
                             1883.13  1895.46  1921.36  1933.29  1943.15
                             1961.15  1988.74  1992.60  2010.70  2030.00
                             2044.58  2065.16  2105.01  2168.13  2170.43
                             2179.85  2187.34  2188.86  2196.45  2213.86
                             2246.20  4251.98  4339.09  4376.67  4380.78
                             4382.26  4389.34  4395.24  4402.33  4424.10
                             4428.50  4430.33  4432.89  4487.68  4499.12
                             4509.64  4533.02  4555.74  4571.04  4995.14

 Zero-point correction=                           0.290842 (Hartree/Particle)
 Thermal correction to Energy=                    0.303434
 Thermal correction to Enthalpy=                  0.304378
 Thermal correction to Gibbs Free Energy=         0.250603
 Sum of electronic and zero-point Energies=           -560.304022
 Sum of electronic and thermal Energies=              -560.291431
 Sum of electronic and thermal Enthalpies=            -560.290486
 Sum of electronic and thermal Free Energies=         -560.344262

                     E (Thermal)             CV                S
                      KCal/Mol        Cal/Mol-Kelvin    Cal/Mol-Kelvin
 Total                  190.408             48.526            113.180
 Electronic               0.000              0.000              0.000
 Translational            0.889              2.981             41.489
 Rotational               0.889              2.981             31.290
 Vibrational            188.630             42.564             40.401
 Vibration     1          0.594              1.983              5.647
 Vibration     2          0.595              1.980              5.102
 Vibration     3          0.596              1.974              4.488
 Vibration     4          0.602              1.957              3.680
 Vibration     5          0.618              1.905              2.696
 Vibration     6          0.626              1.878              2.419
 Vibration     7          0.636              1.847              2.180
 Vibration     8          0.650              1.803              1.918
 Vibration     9          0.655              1.787              1.840
 Vibration    10          0.673              1.732              1.611
 Vibration    11          0.733              1.558              1.129
 Vibration    12          0.781              1.432              0.900
 Vibration    13          0.798              1.388              0.834
 Vibration    14          0.865              1.228              0.633
 Vibration    15          0.885              1.183              0.586
 Vibration    16          0.957              1.034              0.451

                           ! Non-Optimized Parameters !
 Normal termination of Gaussian 16 at Wed Dec  9 23:07:16 2020.

 ----------------------------------------------------------------------
 # B3LYP/6-311++G(d,p) empiricaldispersion=gd3bj scf=xqc pop=npa geom=c
 heck
 ----------------------------------------------------------------------

 ---------------------------------------
 CID_130662257_JID_3344_Energie_neutraal
 ---------------------------------------
 Structure from the checkpoint file:  "JID_3344.chk"
 Charge =  0 Multiplicity = 1

 SCF Done:  E(RB3LYP) =  -560.750523469     A.U. after   13 cycles
 Normal termination of Gaussian 16 at Wed Dec  9 23:10:38 2020.

 ----------------------------------------------------------------------
 # B3LYP/6-311++G(d,p) empiricaldispersion=gd3bj scf=xqc pop=npa geom=c
 heck
 ----------------------------------------------------------------------

 -------------------------------------
 CID_130662257_JID_3344_Energie_kation
 -------------------------------------
 Structure from the checkpoint file:  "JID_3344.chk"
 Charge =  1 Multiplicity = 2

 SCF Done:  E(UB3LYP) =  -560.451197878     A.U. after   23 cycles
 Normal termination of Gaussian 16 at Wed Dec  9 23:18:34 2020.
 Gaussian 16:  ES64L-G16RevA.03 25-Dec-2016

 ----------------------------------------------------------------------
 # B3LYP/6-311++G(d,p) empiricaldispersion=gd3bj scf=xqc pop=npa geom=c
 heck
 ----------------------------------------------------------------------

 ------------------------------------
 CID_130662257_JID_3344_Energie_anion
 ------------------------------------
 Structure from the checkpoint file:  "JID_3344.chk"
 Charge = -1 Multiplicity = 2

                         Standard orientation:
 ---------------------------------------------------------------------
 Center     Atomic      Atomic             Coordinates (Angstroms)
 Number     Number       Type             X           Y           Z
 ---------------------------------------------------------------------
      1          6           0        1.643570    2.208045   -0.057794
      2          6           0        1.984867    0.825684    0.469099
      3          6           0        1.076009   -0.299709   -0.050204
      4          6           0        2.018222   -1.518725    0.021426
      5          6           0        3.362451   -0.895149   -0.355695
      6          8           0        3.315275    0.471244    0.076633
      7          7           0       -0.182687   -0.359953    0.675606
      8          6           0       -1.148546   -1.261324    0.106451
      9          6           0       -2.057404   -0.793876   -1.009095
     10          6           0       -2.625110   -1.082604    0.367493
     11          6           0       -3.126240    0.225830    0.965014
     12          6           0       -2.544282    1.356068    0.080791
     13          6           0       -2.193171    0.700199   -1.277540
     14          1           0        2.336475    2.957521    0.337284
     15          1           0        0.625132    2.479424    0.239224
     16          1           0        1.708737    2.222613   -1.151410
     17          1           0        1.928830    0.833781    1.572657
     18          1           0        0.830117   -0.099498   -1.100680
     19          1           0        1.726597   -2.339835   -0.639829
     20          1           0        2.039462   -1.899980    1.051112
     21          1           0        3.521534   -0.923929   -1.443771
     22          1           0        4.216744   -1.388050    0.122375
     23          1           0       -0.009077   -0.601934    1.650492
     24          1           0       -0.839534   -2.308065    0.011024
     25          1           0       -2.219650   -1.478047   -1.837987
     26          1           0       -3.203974   -1.982978    0.557311
     27          1           0       -2.845123    0.350083    2.017800
     28          1           0       -4.222725    0.223476    0.924285
     29          1           0       -1.636857    1.745678    0.542525
     30          1           0       -3.249309    2.186342   -0.036913
     31          1           0       -1.289083    1.140128   -1.715206
     32          1           0       -3.003879    0.846355   -2.002266
 ---------------------------------------------------------------------

 SCF Done:  E(UB3LYP) =  -560.735424236     A.U. after   27 cycles

 The electronic state is 2-A.
 Alpha  occ. eigenvalues --  -19.02214 -14.19955 -10.12229 -10.11815 -10.10076
 Alpha  occ. eigenvalues --  -10.09027 -10.06815 -10.06642 -10.06455 -10.06383
 Alpha  occ. eigenvalues --  -10.06075 -10.05996 -10.05447  -0.93950  -0.82297
 Alpha  occ. eigenvalues --   -0.75622  -0.67428  -0.67004  -0.64647  -0.60193
 Alpha  occ. eigenvalues --   -0.57646  -0.51213  -0.49525  -0.48098  -0.44585
 Alpha  occ. eigenvalues --   -0.44054  -0.41399  -0.39949  -0.39683  -0.35894
 Alpha  occ. eigenvalues --   -0.35307  -0.34469  -0.33542  -0.32204  -0.31497
 Alpha  occ. eigenvalues --   -0.30236  -0.29427  -0.28510  -0.27819  -0.25110
 Alpha  occ. eigenvalues --   -0.24783  -0.24191  -0.23454  -0.23291  -0.22659
 Alpha  occ. eigenvalues --   -0.22343  -0.17466  -0.17058  -0.15708  -0.12480
 Alpha  occ. eigenvalues --    0.04535
 Alpha virt. eigenvalues --    0.06714   0.07260   0.07471   0.08492   0.09000
 Alpha virt. eigenvalues --    0.09368   0.09615   0.09974   0.11110   0.11332
 Alpha virt. eigenvalues --    0.11793   0.12198   0.12488   0.13779   0.13916

  Beta  occ. eigenvalues --  -19.02214 -14.19938 -10.12221 -10.11800 -10.10070
  Beta  occ. eigenvalues --  -10.09013 -10.06782 -10.06635 -10.06441 -10.06370
  Beta  occ. eigenvalues --  -10.06062 -10.05979 -10.05439  -0.93944  -0.82265
  Beta  occ. eigenvalues --   -0.75586  -0.67409  -0.66970  -0.64614  -0.60152
  Beta  occ. eigenvalues --   -0.57617  -0.51163  -0.49472  -0.48062  -0.44548
  Beta  occ. eigenvalues --   -0.44015  -0.41326  -0.39906  -0.39652  -0.35874
  Beta  occ. eigenvalues --   -0.35279  -0.34436  -0.33512  -0.32169  -0.31464
  Beta  occ. eigenvalues --   -0.30209  -0.29401  -0.28480  -0.27797  -0.25072
  Beta  occ. eigenvalues --   -0.24745  -0.24160  -0.23427  -0.23262  -0.22642
  Beta  occ. eigenvalues --   -0.22316  -0.17440  -0.17034  -0.15697  -0.12448
  Beta virt. eigenvalues --    0.06755   0.07480   0.07852   0.07889   0.09080
  Beta virt. eigenvalues --    0.09548   0.09809   0.10115   0.10441   0.11513
  Beta virt. eigenvalues --    0.11704   0.12093   0.12510   0.12823   0.14070

 Mulliken charges and spin densities:
               1          2
     1  C    0.033654  -0.432505
     2  C   -1.170125   0.719854
     3  C   -0.168125  -0.032524
     4  C    0.569414  -0.668740
     5  C    0.545890  -0.943202
     6  O   -0.117011   0.027524
     7  N   -0.002122   0.069042
     8  C    1.268680  -1.612565
     9  C   -0.468290   0.402652
    10  C   -0.580248   0.631903
    11  C    1.195172  -1.882137
    12  C   -0.762246   0.554097
    13  C    0.822210  -1.143961
    14  H    0.080822   0.067319
    15  H    0.164870  -0.016875
    16  H    0.048650   0.099017
    17  H   -0.132230   0.277423
    18  H    0.363868  -0.172766
    19  H   -0.308475   0.458884
    20  H   -0.295151   0.464696
    21  H   -0.098996   0.233550
    22  H   -0.034644   0.201571
    23  H    0.184976   0.052210
    24  H   -0.211448   0.421286
    25  H   -0.593109   0.828644
    26  H   -0.757450   0.992206
    27  H   -0.104417   0.225958
    28  H   -0.157588   0.302187
    29  H    0.138283  -0.003143
    30  H   -0.148948   0.305283
    31  H   -0.003915   0.096130
    32  H   -0.301953   0.476984
 Sum of Mulliken charges =  -1.00000   1.00000

 Dipole moment (field-independent basis, Debye):
    X=              3.7775    Y=              4.5159    Z=              0.6203  Tot=              5.9201
 Quadrupole moment (field-independent basis, Debye-Ang):
   XX=           -155.4602   YY=           -127.2639   ZZ=           -116.8896
   XY=             -2.5482   XZ=             -3.5607   YZ=             -0.6452

 Summary of Natural Population Analysis:

                                       Natural Population
                Natural  -----------------------------------------------
    Atom  No    Charge         Core      Valence    Rydberg      Total
 -----------------------------------------------------------------------
      C    1   -0.28970      0.99963     2.28485    0.00521     3.28970
      C    2    0.06885      0.99954     1.91641    0.01519     2.93115
      C    3   -0.01671      0.99956     2.00433    0.01283     3.01671
      C    4   -0.21170      0.99962     2.20392    0.00816     3.21170
      C    5   -0.00739      0.99960     1.99543    0.01237     3.00739
      O    6   -0.31036      0.99989     3.30180    0.00868     4.31036
      N    7   -0.34008      0.99971     2.82762    0.01275     3.84008
      C    8   -0.01885      0.99952     2.00490    0.01443     3.01885
      C    9   -0.10907      0.99957     2.09860    0.01090     3.10907
      C   10   -0.10626      0.99957     2.09575    0.01094     3.10626
      C   11   -0.19063      0.99963     2.18232    0.00868     3.19063
      C   12   -0.19365      0.99964     2.18620    0.00781     3.19365
      C   13   -0.19209      0.99963     2.18382    0.00865     3.19209
      H   14    0.09871      0.00000     0.40039    0.00090     0.40129
      H   15    0.10489      0.00000     0.39409    0.00103     0.39511
      H   16    0.09806      0.00000     0.40077    0.00117     0.40194
      H   17    0.07780      0.00000     0.42068    0.00151     0.42220
      H   18    0.09504      0.00000     0.40293    0.00203     0.40496
      H   19    0.10873      0.00000     0.38977    0.00150     0.39127
      H   20    0.09799      0.00000     0.40021    0.00180     0.40201
      H   21    0.07903      0.00000     0.41957    0.00140     0.42097
      H   22    0.08566      0.00000     0.41300    0.00134     0.41434
      H   23    0.17512      0.00000     0.32191    0.00297     0.32488
      H   24    0.09410      0.00000     0.40322    0.00268     0.40590
      H   25    0.10677      0.00000     0.39110    0.00213     0.39323
      H   26    0.10666      0.00000     0.39115    0.00219     0.39334
      H   27    0.09819      0.00000     0.40069    0.00112     0.40181
      H   28    0.09843      0.00000     0.40018    0.00139     0.40157
      H   29    0.10230      0.00000     0.39593    0.00177     0.39770
      H   30    0.09427      0.00000     0.40480    0.00094     0.40573
      H   31    0.09715      0.00000     0.40165    0.00120     0.40285
      H   32    0.09877      0.00000     0.39996    0.00127     0.40123
 =======================================================================
   * Total *   -0.00000     12.99511    36.83793    0.16696    50.00000

 Normal termination of Gaussian 16 at Wed Dec  9 23:27:34 2020.
