 Gaussian 16, Revision A.03,

 -----------------------------------------------------------
 # opt freq B3LYP/6-31G(d) empiricaldispersion=gd3bj scf=xqc
 -----------------------------------------------------------

 ------------------------------
 CID_23248237_JID_7551_neutraal
 ------------------------------
 Symbolic Z-matrix:
 Charge =  0 Multiplicity = 1

 SCF Done:  E(RB3LYP) =  -1498.83921999     A.U. after   15 cycles
 SCF Done:  E(RB3LYP) =  -1498.84947461     A.U. after   13 cycles
 SCF Done:  E(RB3LYP) =  -1498.85188316     A.U. after   12 cycles
 SCF Done:  E(RB3LYP) =  -1498.85302479     A.U. after   12 cycles
 SCF Done:  E(RB3LYP) =  -1498.85386353     A.U. after   12 cycles
 SCF Done:  E(RB3LYP) =  -1498.85436855     A.U. after   11 cycles
 SCF Done:  E(RB3LYP) =  -1498.85484781     A.U. after   12 cycles
 SCF Done:  E(RB3LYP) =  -1498.85518838     A.U. after   12 cycles
 SCF Done:  E(RB3LYP) =  -1498.85566374     A.U. after   11 cycles
 SCF Done:  E(RB3LYP) =  -1498.85633745     A.U. after   12 cycles
 SCF Done:  E(RB3LYP) =  -1498.85654028     A.U. after   10 cycles
 SCF Done:  E(RB3LYP) =  -1498.85655503     A.U. after   10 cycles
 SCF Done:  E(RB3LYP) =  -1498.85655867     A.U. after    9 cycles
 SCF Done:  E(RB3LYP) =  -1498.85656091     A.U. after    8 cycles
 SCF Done:  E(RB3LYP) =  -1498.85656148     A.U. after    8 cycles
 SCF Done:  E(RB3LYP) =  -1498.85656161     A.U. after    7 cycles
 Optimization completed.
    -- Stationary point found.
 Normal termination of Gaussian 16 at Sun Dec 13 20:17:20 2020.

 --------------------------------------------------------------------
 #N Geom=AllCheck Guess=TCheck SCRF=Check GenChk RB3LYP/6-31G(d) Freq
 --------------------------------------------------------------------

 Structure from the checkpoint file:  "JID_7551.chk"
 ------------------------------
 CID_23248237_JID_7551_neutraal
 ------------------------------
 Charge =  0 Multiplicity = 1

 SCF Done:  E(RB3LYP) =  -1498.85656161     A.U. after    1 cycles

  Exact polarizability: 282.922   1.580 189.704   0.262  -1.829  78.823
 Approx polarizability: 419.334   3.181 326.987   0.301  -6.696 126.862

                      1                      2                      3
                      A                      A                      A
 Frequencies --     34.2671                53.5991                64.6397
 Red. masses --      3.4075                 1.8904                 4.6192
 Frc consts  --      0.0024                 0.0032                 0.0114
 IR Inten    --      0.0804                 0.0815                 2.5820

                      4                      5                      6
                      A                      A                      A
 Frequencies --     67.2230                85.1896               106.3187
 Red. masses --      1.8054                 4.9812                 5.5582
 Frc consts  --      0.0048                 0.0213                 0.0370
 IR Inten    --      1.8208                 0.4711                 0.2804

                      7                      8                      9
                      A                      A                      A
 Frequencies --    107.5938               142.7011               145.1821
 Red. masses --      6.6067                 2.5974                 3.0255
 Frc consts  --      0.0451                 0.0312                 0.0376
 IR Inten    --      1.2642                 0.6702                 0.1386

                     10                     11                     12
                      A                      A                      A
 Frequencies --    168.3112               196.2748               219.0711
 Red. masses --      1.2790                 2.9842                 3.0784
 Frc consts  --      0.0213                 0.0677                 0.0870
 IR Inten    --      0.5562                 1.4760                 0.6715

                     13                     14                     15
                      A                      A                      A
 Frequencies --    231.7083               248.9917               260.4188
 Red. masses --      5.2964                 5.3596                 2.3445
 Frc consts  --      0.1675                 0.1958                 0.0937
 IR Inten    --      3.0847                 3.4380                 0.9506

                     16                     17                     18
                      A                      A                      A
 Frequencies --    309.8083               337.2146               371.3204
 Red. masses --      4.9537                 8.4386                 3.4959
 Frc consts  --      0.2801                 0.5654                 0.2840
 IR Inten    --      1.5700                 6.8438                 2.5513

                     19                     20                     21
                      A                      A                      A
 Frequencies --    386.2254               423.4301               467.4022
 Red. masses --      5.1252                11.5592                 7.0684
 Frc consts  --      0.4504                 1.2211                 0.9098
 IR Inten    --      6.6277                12.1962                10.1291

                     22                     23                     24
                      A                      A                      A
 Frequencies --    484.2573               502.1375               557.0800
 Red. masses --      9.9730                 3.7802                 3.6006
 Frc consts  --      1.3779                 0.5616                 0.6584
 IR Inten    --      1.2933                11.1918                 3.6565

                     25                     26                     27
                      A                      A                      A
 Frequencies --    600.8938               619.7985               634.6823
 Red. masses --      1.2601                 6.4356                 8.3700
 Frc consts  --      0.2681                 1.4566                 1.9865
 IR Inten    --     74.9758                34.2252                 0.1651

                     28                     29                     30
                      A                      A                      A
 Frequencies --    671.2282               682.9274               720.7885
 Red. masses --      6.0983                 9.4724                 6.0045
 Frc consts  --      1.6188                 2.6029                 1.8380
 IR Inten    --     30.6576                 5.1113                 0.6848

                     31                     32                     33
                      A                      A                      A
 Frequencies --    745.7938               752.8713               788.5321
 Red. masses --      6.2089                 5.6310                10.3101
 Frc consts  --      2.0347                 1.8805                 3.7770
 IR Inten    --     11.9722                59.3017                 5.7199

                     34                     35                     36
                      A                      A                      A
 Frequencies --    801.4395               860.3722               897.6621
 Red. masses --      7.4406                 6.7274                 1.6110
 Frc consts  --      2.8158                 2.9341                 0.7648
 IR Inten    --      8.3735                 6.1544                 7.8946

                     37                     38                     39
                      A                      A                      A
 Frequencies --    905.6756               997.1522              1004.2814
 Red. masses --      5.8683                 1.1848                 1.3445
 Frc consts  --      2.8360                 0.6941                 0.7989
 IR Inten    --     34.2300                 4.7733                24.1516

                     40                     41                     42
                      A                      A                      A
 Frequencies --   1040.9157              1089.0324              1094.6418
 Red. masses --      2.9918                 3.9841                 1.5679
 Frc consts  --      1.9099                 2.7840                 1.1069
 IR Inten    --     45.3453                10.2120                23.5931

                     43                     44                     45
                      A                      A                      A
 Frequencies --   1143.3129              1159.9867              1175.1746
 Red. masses --      1.2254                 1.4729                 2.3576
 Frc consts  --      0.9438                 1.1677                 1.9183
 IR Inten    --     11.7842                86.3845               522.4092

                     46                     47                     48
                      A                      A                      A
 Frequencies --   1198.9423              1252.6501              1258.8189
 Red. masses --      2.2102                 3.3071                 2.1853
 Frc consts  --      1.8718                 3.0575                 2.0403
 IR Inten    --    258.1471               102.8205                 9.1715

                     49                     50                     51
                      A                      A                      A
 Frequencies --   1297.3580              1342.3603              1348.8611
 Red. masses --      5.8637                 4.5277                 7.5054
 Frc consts  --      5.8149                 4.8069                 8.0456
 IR Inten    --     20.1666                 4.7809                82.1963

                     52                     53                     54
                      A                      A                      A
 Frequencies --   1379.6331              1390.1232              1413.6182
 Red. masses --      2.5363                 1.3923                 5.4039
 Frc consts  --      2.8443                 1.5852                 6.3624
 IR Inten    --     55.1009                34.0789               400.6355

                     55                     56                     57
                      A                      A                      A
 Frequencies --   1460.7346              1473.3664              1489.6802
 Red. masses --      1.5239                 1.2831                 1.0531
 Frc consts  --      1.9158                 1.6411                 1.3769
 IR Inten    --     89.0388                42.0580                 9.0645

                     58                     59                     60
                      A                      A                      A
 Frequencies --   1503.0796              1510.1539              1511.9282
 Red. masses --      1.1929                 1.6802                 1.0848
 Frc consts  --      1.5879                 2.2576                 1.4610
 IR Inten    --      7.1296                96.4766                32.5734

                     61                     62                     63
                      A                      A                      A
 Frequencies --   1527.5038              1539.6268              1544.1180
 Red. masses --      1.0824                 1.2433                 1.2663
 Frc consts  --      1.4879                 1.7364                 1.7789
 IR Inten    --     17.9755                90.3719                 4.6198

                     64                     65                     66
                      A                      A                      A
 Frequencies --   1573.3431              1587.6227              1602.2171
 Red. masses --      5.9735                 6.2223                 3.3880
 Frc consts  --      8.7122                 9.2405                 5.1243
 IR Inten    --    748.1242                 0.5205               601.1651

                     67                     68                     69
                      A                      A                      A
 Frequencies --   1808.9413              3038.5305              3044.3762
 Red. masses --      9.7878                 1.0449                 1.0474
 Frc consts  --     18.8705                 5.6841                 5.7194
 IR Inten    --    388.2059                52.9669                44.5104

                     70                     71                     72
                      A                      A                      A
 Frequencies --   3078.5598              3116.3297              3122.1316
 Red. masses --      1.0294                 1.0936                 1.0922
 Frc consts  --      5.7483                 6.2576                 6.2727
 IR Inten    --     19.8447                31.9681                11.3660

                     73                     74                     75
                      A                      A                      A
 Frequencies --   3154.1805              3166.6928              3175.6887
 Red. masses --      1.1033                 1.1055                 1.1073
 Frc consts  --      6.4671                 6.5316                 6.5797
 IR Inten    --     19.7900                 9.3127                 6.3725

                     76                     77                     78
                      A                      A                      A
 Frequencies --   3189.4735              3282.1727              3704.0837
 Red. masses --      1.0996                 1.0919                 1.0641
 Frc consts  --      6.5906                 6.9302                 8.6022
 IR Inten    --      4.3496                 1.0882               107.9021

 - Thermochemistry -
 -------------------
 Temperature   298.150 Kelvin.  Pressure   1.00000 Atm.
 Atom     1 has atomic number  6 and mass  12.00000

 Molecular mass:   269.02927 amu.
 Principal axes and moments of inertia in atomic units:
                           1         2         3
     Eigenvalues --  2732.110587606.81048**********
           X            0.99990   0.01409  -0.00112
           Y           -0.01409   0.99990   0.00296
           Z            0.00116  -0.00295   0.99999
 This molecule is an asymmetric top.
 Rotational symmetry number  1.
 Warning -- assumption of classical behavior for rotation
           may cause significant error
 Rotational temperatures (Kelvin)      0.03170     0.01139     0.00842
 Rotational constants (GHZ):           0.66057     0.23725     0.17552
 Zero-point vibrational energy     546959.2 (Joules/Mol)
                                  130.72637 (Kcal/Mol)
 Warning -- explicit consideration of  26 degrees of freedom as
           vibrations may cause significant error
 Vibrational temperatures:     49.30    77.12    93.00    96.72   122.57
          (Kelvin)            152.97   154.80   205.32   208.88   242.16
                              282.40   315.19   333.38   358.24   374.68
                              445.74   485.18   534.25   555.69   609.22
                              672.49   696.74   722.46   801.51   864.55
                              891.75   913.17   965.75   982.58  1037.05
                             1073.03  1083.21  1134.52  1153.09  1237.88
                             1291.54  1303.07  1434.68  1444.94  1497.65
                             1566.87  1574.95  1644.97  1668.96  1690.81
                             1725.01  1802.28  1811.16  1866.61  1931.36
                             1940.71  1984.98  2000.08  2033.88  2101.67
                             2119.85  2143.32  2162.60  2172.77  2175.33
                             2197.74  2215.18  2221.64  2263.69  2284.23
                             2305.23  2602.66  4371.77  4380.18  4429.36
                             4483.70  4492.05  4538.16  4556.16  4569.11
                             4588.94  4722.31  5329.35

 Zero-point correction=                           0.208326 (Hartree/Particle)
 Thermal correction to Energy=                    0.225465
 Thermal correction to Enthalpy=                  0.226409
 Thermal correction to Gibbs Free Energy=         0.161972
 Sum of electronic and zero-point Energies=          -1498.648236
 Sum of electronic and thermal Energies=             -1498.631097
 Sum of electronic and thermal Enthalpies=           -1498.630153
 Sum of electronic and thermal Free Energies=        -1498.694590

                     E (Thermal)             CV                S
                      KCal/Mol        Cal/Mol-Kelvin    Cal/Mol-Kelvin
 Total                  141.481             61.401            135.620
 Electronic               0.000              0.000              0.000
 Translational            0.889              2.981             42.668
 Rotational               0.889              2.981             33.724
 Vibrational            139.704             55.439             59.228
 Vibration     1          0.594              1.983              5.566
 Vibration     2          0.596              1.976              4.680
 Vibration     3          0.597              1.971              4.310
 Vibration     4          0.598              1.970              4.233
 Vibration     5          0.601              1.959              3.768
 Vibration     6          0.605              1.944              3.335
 Vibration     7          0.606              1.943              3.312
 Vibration     8          0.616              1.911              2.767
 Vibration     9          0.617              1.908              2.734
 Vibration    10          0.625              1.881              2.454
 Vibration    11          0.636              1.845              2.168
 Vibration    12          0.647              1.812              1.967
 Vibration    13          0.653              1.792              1.866
 Vibration    14          0.662              1.764              1.738
 Vibration    15          0.668              1.745              1.659
 Vibration    16          0.699              1.655              1.363
 Vibration    17          0.718              1.601              1.225
 Vibration    18          0.743              1.531              1.074
 Vibration    19          0.755              1.500              1.015
 Vibration    20          0.786              1.419              0.880
 Vibration    21          0.825              1.322              0.745
 Vibration    22          0.840              1.285              0.699
 Vibration    23          0.857              1.245              0.653
 Vibration    24          0.913              1.124              0.530
 Vibration    25          0.959              1.030              0.448
 Vibration    26          0.980              0.990              0.417

                           ! Non-Optimized Parameters !
 Normal termination of Gaussian 16 at Sun Dec 13 20:27:50 2020.

 ----------------------------------------------------------------------
 # B3LYP/6-311++G(d,p) empiricaldispersion=gd3bj scf=xqc pop=npa geom=c
 heck
 ----------------------------------------------------------------------

 --------------------------------------
 CID_23248237_JID_7551_Energie_neutraal
 --------------------------------------
 Structure from the checkpoint file:  "JID_7551.chk"
 Charge =  0 Multiplicity = 1

 SCF Done:  E(RB3LYP) =  -1499.10554453     A.U. after   15 cycles
 Normal termination of Gaussian 16 at Sun Dec 13 20:32:51 2020.

 ----------------------------------------------------------------------
 # B3LYP/6-311++G(d,p) empiricaldispersion=gd3bj scf=xqc pop=npa geom=c
 heck
 ----------------------------------------------------------------------

 ------------------------------------
 CID_23248237_JID_7551_Energie_kation
 ------------------------------------
 Structure from the checkpoint file:  "JID_7551.chk"
 Charge =  1 Multiplicity = 2

 SCF Done:  E(UB3LYP) =  -1498.83077022     A.U. after   23 cycles
 Normal termination of Gaussian 16 at Sun Dec 13 20:43:43 2020.
 Gaussian 16:  ES64L-G16RevA.03 25-Dec-2016

 ----------------------------------------------------------------------
 # B3LYP/6-311++G(d,p) empiricaldispersion=gd3bj scf=xqc pop=npa geom=c
 heck
 ----------------------------------------------------------------------

 -----------------------------------
 CID_23248237_JID_7551_Energie_anion
 -----------------------------------
 Structure from the checkpoint file:  "JID_7551.chk"
 Charge = -1 Multiplicity = 2

                         Standard orientation:
 ---------------------------------------------------------------------
 Center     Atomic      Atomic             Coordinates (Angstroms)
 Number     Number       Type             X           Y           Z
 ---------------------------------------------------------------------
      1          6           0        2.403021    2.987883   -0.156644
      2          7           0        1.066939    2.414841   -0.021052
      3          6           0       -0.017373    3.328688    0.306891
      4          6           0        0.915526    1.062437   -0.009315
      5          6           0       -0.349928    0.388393    0.009189
      6          6           0       -1.711037    0.815427   -0.063209
      7          6           0       -2.605790   -0.219628   -0.024947
      8         16           0       -1.832032   -1.795356    0.090334
      9          6           0       -0.256034   -1.029609    0.073382
     10          7           0        0.867270   -1.742329    0.089971
     11          6           0        1.971235   -0.992020    0.017989
     12          7           0        2.050974    0.339537   -0.025381
     13         16           0        3.470528   -1.934299   -0.004091
     14          6           0        4.721525   -0.611943   -0.097649
     15          6           0       -4.056118   -0.038771   -0.082129
     16          8           0       -4.618144    1.036846   -0.167146
     17          8           0       -4.726967   -1.218238   -0.029145
     18          1           0        2.311174    3.984767   -0.595240
     19          1           0        3.009481    2.358589   -0.805741
     20          1           0        2.910664    3.068040    0.814018
     21          1           0       -0.635739    2.927314    1.113847
     22          1           0        0.414541    4.269618    0.653463
     23          1           0       -0.656791    3.544439   -0.558718
     24          1           0       -2.065281    1.831099   -0.156967
     25          1           0        4.620542   -0.045918   -1.025386
     26          1           0        4.632027    0.064993    0.753226
     27          1           0        5.692064   -1.114263   -0.074953
     28          1           0       -5.674156   -0.992556   -0.073231
 ---------------------------------------------------------------------

 SCF Done:  E(UB3LYP) =  -1499.12624373     A.U. after   26 cycles

 The electronic state is 2-A.
 Alpha  occ. eigenvalues --  -88.73304 -88.72682 -19.02535 -18.94846 -14.23089
 Alpha  occ. eigenvalues --  -14.17743 -14.17434 -10.13654 -10.12607 -10.12051
 Alpha  occ. eigenvalues --  -10.10522 -10.10386 -10.10050 -10.09175 -10.05283
 Alpha  occ. eigenvalues --  -10.04307 -10.02617  -7.81946  -7.81342  -5.78348
 Alpha  occ. eigenvalues --   -5.77926  -5.77645  -5.77358  -5.77304  -5.76898
 Alpha  occ. eigenvalues --   -0.96008  -0.87551  -0.86509  -0.83637  -0.75949
 Alpha  occ. eigenvalues --   -0.72667  -0.68250  -0.63734  -0.62559  -0.59717
 Alpha  occ. eigenvalues --   -0.58640  -0.55688  -0.51307  -0.47701  -0.46702
 Alpha  occ. eigenvalues --   -0.42783  -0.41530  -0.39005  -0.37433  -0.35061
 Alpha  occ. eigenvalues --   -0.34550  -0.33651  -0.33044  -0.32905  -0.31750
 Alpha  occ. eigenvalues --   -0.31417  -0.31103  -0.30292  -0.30080  -0.29172
 Alpha  occ. eigenvalues --   -0.28219  -0.26106  -0.25030  -0.23143  -0.22201
 Alpha  occ. eigenvalues --   -0.21893  -0.20842  -0.18596  -0.17550  -0.14884
 Alpha  occ. eigenvalues --   -0.13551  -0.13068  -0.12708  -0.12015  -0.07805
 Alpha  occ. eigenvalues --    0.03474
 Alpha virt. eigenvalues --    0.06448   0.07610   0.09274   0.09467   0.09764
 Alpha virt. eigenvalues --    0.10696   0.10928   0.11653   0.11963   0.12335
 Alpha virt. eigenvalues --    0.13219   0.13661   0.13751   0.14045   0.14846

  Beta  occ. eigenvalues --  -88.73295 -88.72642 -19.02457 -18.94544 -14.23006
  Beta  occ. eigenvalues --  -14.17850 -14.17500 -10.13391 -10.12386 -10.11721
  Beta  occ. eigenvalues --  -10.10520 -10.10390 -10.09938 -10.09177 -10.05353
  Beta  occ. eigenvalues --  -10.04081 -10.02325  -7.81938  -7.81307  -5.78349
  Beta  occ. eigenvalues --   -5.77929  -5.77629  -5.77317  -5.77288  -5.76763
  Beta  occ. eigenvalues --   -0.95696  -0.87350  -0.86045  -0.83464  -0.75859
  Beta  occ. eigenvalues --   -0.72409  -0.68099  -0.63616  -0.62395  -0.59345
  Beta  occ. eigenvalues --   -0.58413  -0.55403  -0.50927  -0.47493  -0.46482
  Beta  occ. eigenvalues --   -0.42571  -0.41335  -0.38733  -0.37211  -0.34954
  Beta  occ. eigenvalues --   -0.34307  -0.33473  -0.32921  -0.32802  -0.31687
  Beta  occ. eigenvalues --   -0.31351  -0.30263  -0.29972  -0.29255  -0.29036
  Beta  occ. eigenvalues --   -0.28105  -0.25896  -0.24840  -0.22466  -0.22079
  Beta  occ. eigenvalues --   -0.21147  -0.20615  -0.17548  -0.17344  -0.14022
  Beta  occ. eigenvalues --   -0.13347  -0.13030  -0.12288  -0.11423  -0.06570
  Beta virt. eigenvalues --    0.06420   0.07580   0.09146   0.09267   0.09476
  Beta virt. eigenvalues --    0.09782   0.10869   0.11266   0.11672   0.11978
  Beta virt. eigenvalues --    0.12974   0.13199   0.13666   0.13887   0.14754

 Mulliken charges and spin densities:
               1          2
     1  C   -0.327304  -0.010590
     2  N    0.124387   0.037697
     3  C   -0.328730  -0.001338
     4  C    0.039125   0.126911
     5  C    0.198642  -0.011903
     6  C   -0.458923   0.251942
     7  C   -0.513359   0.066753
     8  S   -0.276951   0.071279
     9  C    0.229113   0.055858
    10  N    0.075198  -0.035571
    11  C   -0.023501   0.168152
    12  N   -0.102575  -0.058792
    13  S   -0.201340   0.022732
    14  C   -0.683983  -0.000481
    15  C    0.142956   0.185006
    16  O   -0.428631   0.109915
    17  O   -0.229126   0.015318
    18  H    0.115367  -0.001079
    19  H    0.188990   0.001045
    20  H    0.136036   0.016513
    21  H    0.170963   0.001086
    22  H    0.124201   0.003159
    23  H    0.169034   0.004629
    24  H    0.144393  -0.017539
    25  H    0.164938   0.001479
    26  H    0.171074  -0.000359
    27  H    0.117703  -0.000239
    28  H    0.262301  -0.001581
 Sum of Mulliken charges =  -1.00000   1.00000

 Dipole moment (field-independent basis, Debye):
    X=              5.7942    Y=              4.5633    Z=              0.1763  Tot=              7.3775
 Quadrupole moment (field-independent basis, Debye-Ang):
   XX=           -162.5357   YY=           -133.1056   ZZ=           -121.7131
   XY=             15.0875   XZ=             -1.8699   YZ=              1.2897

 Summary of Natural Population Analysis:

                                       Natural Population
                Natural  -----------------------------------------------
    Atom  No    Charge         Core      Valence    Rydberg      Total
 -----------------------------------------------------------------------
      C    1   -0.17372      0.99966     2.16733    0.00674     3.17372
      N    2   -0.23182      0.99963     2.72280    0.00939     3.73182
      C    3   -0.17641      0.99967     2.17019    0.00655     3.17641
      C    4    0.27090      0.99950     1.71704    0.01257     2.72910
      C    5   -0.11254      0.99938     2.10621    0.00696     3.11254
      C    6   -0.04899      0.99949     2.04033    0.00917     3.04899
      C    7   -0.10932      0.99940     2.09762    0.01229     3.10932
      S    8    0.20789      4.99944     2.77117    0.02150     7.79211
      C    9    0.06032      0.99948     1.92173    0.01847     2.93968
      N   10   -0.29587      0.99961     2.78428    0.01198     3.79587
      C   11    0.19845      0.99959     1.78019    0.02178     2.80155
      N   12   -0.32911      0.99962     2.81730    0.01220     3.82911
      S   13    0.11821      4.99954     2.85992    0.02232     7.88179
      C   14   -0.35155      0.99962     2.34657    0.00536     3.35155
      C   15    0.41355      0.99960     1.56220    0.02466     2.58645
      O   16   -0.30621      0.99987     3.29874    0.00760     4.30621
      O   17   -0.35095      0.99988     3.34519    0.00588     4.35095
      H   18    0.08684      0.00000     0.41230    0.00086     0.41316
      H   19    0.10963      0.00000     0.38936    0.00101     0.39037
      H   20    0.08775      0.00000     0.41088    0.00137     0.41225
      H   21    0.10720      0.00000     0.39183    0.00097     0.39280
      H   22    0.09040      0.00000     0.40875    0.00085     0.40960
      H   23    0.09387      0.00000     0.40495    0.00118     0.40613
      H   24    0.10576      0.00000     0.39294    0.00130     0.39424
      H   25    0.10259      0.00000     0.39607    0.00134     0.39741
      H   26    0.10570      0.00000     0.39300    0.00130     0.39430
      H   27    0.09753      0.00000     0.40142    0.00105     0.40247
      H   28    0.22995      0.00000     0.26677    0.00328     0.27005
 =======================================================================
   * Total *    0.00003     24.99298    44.77709    0.22991    69.99997

 Normal termination of Gaussian 16 at Sun Dec 13 20:56:14 2020.
