 Gaussian 16, Revision A.03,

 -----------------------------------------------------------
 # opt freq B3LYP/6-31G(d) empiricaldispersion=gd3bj scf=xqc
 -----------------------------------------------------------

 -------------------------------
 CID_142222035_JID_2047_neutraal
 -------------------------------
 Symbolic Z-matrix:
 Charge =  0 Multiplicity = 1

 SCF Done:  E(RB3LYP) =  -468.111657004     A.U. after   14 cycles
 SCF Done:  E(RB3LYP) =  -468.115434983     A.U. after   12 cycles
 SCF Done:  E(RB3LYP) =  -468.115773197     A.U. after   11 cycles
 SCF Done:  E(RB3LYP) =  -468.116448204     A.U. after   12 cycles
 SCF Done:  E(RB3LYP) =  -468.117012673     A.U. after   14 cycles
 SCF Done:  E(RB3LYP) =  -468.117446677     A.U. after   12 cycles
 SCF Done:  E(RB3LYP) =  -468.117633008     A.U. after   11 cycles
 SCF Done:  E(RB3LYP) =  -468.117661142     A.U. after   11 cycles
 SCF Done:  E(RB3LYP) =  -468.117666218     A.U. after    9 cycles
 SCF Done:  E(RB3LYP) =  -468.117672152     A.U. after    9 cycles
 SCF Done:  E(RB3LYP) =  -468.117720077     A.U. after    9 cycles
 SCF Done:  E(RB3LYP) =  -468.117720810     A.U. after    8 cycles
 SCF Done:  E(RB3LYP) =  -468.117721057     A.U. after    8 cycles
 SCF Done:  E(RB3LYP) =  -468.117721104     A.U. after    7 cycles
 SCF Done:  E(RB3LYP) =  -468.117721108     A.U. after    6 cycles
 Optimization completed.
    -- Stationary point found.
 Normal termination of Gaussian 16 at Wed Dec  9 16:51:05 2020.

 --------------------------------------------------------------------
 #N Geom=AllCheck Guess=TCheck SCRF=Check GenChk RB3LYP/6-31G(d) Freq
 --------------------------------------------------------------------

 Structure from the checkpoint file:  "JID_2047.chk"
 -------------------------------
 CID_142222035_JID_2047_neutraal
 -------------------------------
 Charge =  0 Multiplicity = 1

 SCF Done:  E(RB3LYP) =  -468.117721108     A.U. after    1 cycles

  Exact polarizability: 185.549  -4.245 121.239   9.394   3.082  86.223
 Approx polarizability: 248.437 -11.927 181.566  21.409  10.223 134.820

                      1                      2                      3
                      A                      A                      A
 Frequencies --     30.7302                36.5345                45.7270
 Red. masses --      2.7945                 2.0100                 2.7138
 Frc consts  --      0.0016                 0.0016                 0.0033
 IR Inten    --      0.0004                 0.0058                 0.0311

                      4                      5                      6
                      A                      A                      A
 Frequencies --     91.4254               143.2827               178.7470
 Red. masses --      3.0421                 2.9368                 2.4461
 Frc consts  --      0.0150                 0.0355                 0.0460
 IR Inten    --      0.2322                 0.0921                 0.2057

                      7                      8                      9
                      A                      A                      A
 Frequencies --    184.2184               221.0168               245.3329
 Red. masses --      2.5433                 1.1578                 2.6680
 Frc consts  --      0.0509                 0.0333                 0.0946
 IR Inten    --      0.8764                 0.0113                 0.2134

                     10                     11                     12
                      A                      A                      A
 Frequencies --    306.4598               324.8756               330.7962
 Red. masses --      2.8174                 3.4369                 2.6064
 Frc consts  --      0.1559                 0.2137                 0.1680
 IR Inten    --      0.3842                 0.4013                 0.4120

                     13                     14                     15
                      A                      A                      A
 Frequencies --    386.4926               433.9611               487.6440
 Red. masses --      2.1561                 1.8519                 3.0809
 Frc consts  --      0.1898                 0.2055                 0.4317
 IR Inten    --      1.3211                 1.8713                 3.3591

                     16                     17                     18
                      A                      A                      A
 Frequencies --    548.6520               567.5248               621.2267
 Red. masses --      2.6486                 2.2599                 2.4530
 Frc consts  --      0.4697                 0.4289                 0.5578
 IR Inten    --      0.6497                 8.7289                 1.7999

                     19                     20                     21
                      A                      A                      A
 Frequencies --    714.3869               717.1441               741.2033
 Red. masses --      3.0853                 1.3495                 1.5875
 Frc consts  --      0.9277                 0.4089                 0.5139
 IR Inten    --      1.9601                 0.7948                 1.9750

                     22                     23                     24
                      A                      A                      A
 Frequencies --    785.1025               815.4883               839.6984
 Red. masses --      1.1781                 2.8472                 1.9870
 Frc consts  --      0.4279                 1.1156                 0.8255
 IR Inten    --      0.9065                 0.8594                 0.5190

                     25                     26                     27
                      A                      A                      A
 Frequencies --    876.6757               891.8644               904.8345
 Red. masses --      2.6164                 1.4373                 2.5437
 Frc consts  --      1.1848                 0.6736                 1.2270
 IR Inten    --      1.5433                 4.9010                 0.7418

                     28                     29                     30
                      A                      A                      A
 Frequencies --    921.7361               928.4904               963.3874
 Red. masses --      1.3608                 1.3647                 2.1711
 Frc consts  --      0.6812                 0.6932                 1.1872
 IR Inten    --     47.2846                38.3034                 2.0970

                     31                     32                     33
                      A                      A                      A
 Frequencies --    969.6920               985.9130              1006.0297
 Red. masses --      2.2053                 1.5319                 1.3405
 Frc consts  --      1.2218                 0.8773                 0.7994
 IR Inten    --      2.1700                 0.2028                 0.5375

                     34                     35                     36
                      A                      A                      A
 Frequencies --   1012.7143              1025.3883              1052.1974
 Red. masses --      1.6899                 1.7265                 1.1349
 Frc consts  --      1.0211                 1.0695                 0.7403
 IR Inten    --      0.4880                 2.2888                 6.5191

                     37                     38                     39
                      A                      A                      A
 Frequencies --   1066.7779              1082.1842              1095.2450
 Red. masses --      1.9926                 1.4974                 1.7107
 Frc consts  --      1.3360                 1.0332                 1.2090
 IR Inten    --      0.9416                 1.4685                13.3136

                     40                     41                     42
                      A                      A                      A
 Frequencies --   1105.8142              1198.9729              1224.6277
 Red. masses --      2.5333                 1.3612                 1.4562
 Frc consts  --      1.8252                 1.1529                 1.2867
 IR Inten    --      3.9852                 0.9671                 1.6643

                     43                     44                     45
                      A                      A                      A
 Frequencies --   1232.4430              1246.0384              1278.1986
 Red. masses --      1.4617                 1.7893                 2.0524
 Frc consts  --      1.3081                 1.6368                 1.9757
 IR Inten    --      3.3652                 4.8133                 5.2144

                     46                     47                     48
                      A                      A                      A
 Frequencies --   1293.7349              1304.8309              1331.6188
 Red. masses --      1.3525                 1.2477                 1.3435
 Frc consts  --      1.3338                 1.2517                 1.4036
 IR Inten    --      0.2670                 0.2307                 0.5884

                     49                     50                     51
                      A                      A                      A
 Frequencies --   1343.6139              1344.8566              1358.0038
 Red. masses --      1.2767                 1.2716                 1.4051
 Frc consts  --      1.3580                 1.3550                 1.5268
 IR Inten    --      0.3399                 2.4811                 0.7476

                     52                     53                     54
                      A                      A                      A
 Frequencies --   1362.2549              1401.7481              1418.1704
 Red. masses --      1.3184                 1.5442                 1.6850
 Frc consts  --      1.4415                 1.7876                 1.9966
 IR Inten    --      0.7013                 1.3975                 0.4693

                     55                     56                     57
                      A                      A                      A
 Frequencies --   1441.2752              1472.3150              1481.4101
 Red. masses --      1.3174                 1.2103                 1.3097
 Frc consts  --      1.6124                 1.5458                 1.6934
 IR Inten    --      2.5516                 2.9836                 1.8165

                     58                     59                     60
                      A                      A                      A
 Frequencies --   1509.1380              1517.5689              1525.2604
 Red. masses --      1.0460                 1.0772                 1.0926
 Frc consts  --      1.4035                 1.4616                 1.4976
 IR Inten    --      6.4749                 0.2697                 0.7444

                     61                     62                     63
                      A                      A                      A
 Frequencies --   1527.8369              1530.4928              1550.1835
 Red. masses --      1.0867                 1.0933                 1.1046
 Frc consts  --      1.4945                 1.5089                 1.5639
 IR Inten    --      2.6305                 4.7511                 0.2981

                     64                     65                     66
                      A                      A                      A
 Frequencies --   1669.1860              1695.9591              1713.0763
 Red. masses --      5.2259                 4.4016                 4.6812
 Frc consts  --      8.5786                 7.4593                 8.0940
 IR Inten    --     11.1833                20.4018                 1.7939

                     67                     68                     69
                      A                      A                      A
 Frequencies --   3000.3020              3039.7955              3043.6377
 Red. masses --      1.0822                 1.0383                 1.0667
 Frc consts  --      5.7396                 5.6528                 5.8220
 IR Inten    --     14.5278                33.0908                18.8450

                     70                     71                     72
                      A                      A                      A
 Frequencies --   3052.5716              3056.0875              3070.4591
 Red. masses --      1.0637                 1.0637                 1.0640
 Frc consts  --      5.8399                 5.8534                 5.9103
 IR Inten    --     22.6491                41.4650                49.0594

                     73                     74                     75
                      A                      A                      A
 Frequencies --   3089.7195              3091.3139              3102.3220
 Red. masses --      1.0992                 1.0992                 1.0982
 Frc consts  --      6.1827                 6.1892                 6.2271
 IR Inten    --     21.1954                26.3825                16.5993

                     76                     77                     78
                      A                      A                      A
 Frequencies --   3106.3956              3119.1861              3131.0920
 Red. masses --      1.1026                 1.1053                 1.1005
 Frc consts  --      6.2685                 6.3358                 6.3567
 IR Inten    --     19.1888                79.0267                13.9418

                     79                     80                     81
                      A                      A                      A
 Frequencies --   3149.9524              3171.5822              3179.0652
 Red. masses --      1.0863                 1.0578                 1.0595
 Frc consts  --      6.3504                 6.2689                 6.3089
 IR Inten    --     27.5920                 8.1260                 4.1573

                     82                     83                     84
                      A                      A                      A
 Frequencies --   3191.2769              3249.7440              3257.9598
 Red. masses --      1.0901                 1.1155                 1.1160
 Frc consts  --      6.5410                 6.9411                 6.9789
 IR Inten    --      4.4824                17.4930                13.8887

 - Thermochemistry -
 -------------------
 Temperature   298.150 Kelvin.  Pressure   1.00000 Atm.
 Atom     1 has atomic number  6 and mass  12.00000

 Molecular mass:   162.14085 amu.
 Principal axes and moments of inertia in atomic units:
                           1         2         3
     Eigenvalues --   841.718154296.128274803.11473
           X            0.99999   0.00397  -0.00050
           Y           -0.00397   0.99999  -0.00051
           Z            0.00050   0.00051   1.00000
 This molecule is an asymmetric top.
 Rotational symmetry number  1.
 Warning -- assumption of classical behavior for rotation
           may cause significant error
 Rotational temperatures (Kelvin)      0.10290     0.02016     0.01803
 Rotational constants (GHZ):           2.14412     0.42009     0.37574
 Zero-point vibrational energy     710353.9 (Joules/Mol)
                                  169.77865 (Kcal/Mol)
 Warning -- explicit consideration of  17 degrees of freedom as
           vibrations may cause significant error
 Vibrational temperatures:     44.21    52.57    65.79   131.54   206.15
          (Kelvin)            257.18   265.05   317.99   352.98   440.93
                              467.42   475.94   556.08   624.37   701.61
                              789.39   816.54   893.81  1027.84  1031.81
                             1066.43  1129.59  1173.31  1208.14  1261.34
                             1283.19  1301.86  1326.17  1335.89  1386.10
                             1395.17  1418.51  1447.45  1457.07  1475.31
                             1513.88  1534.86  1557.02  1575.81  1591.02
                             1725.05  1761.97  1773.21  1792.77  1839.04
                             1861.40  1877.36  1915.90  1933.16  1934.95
                             1953.86  1959.98  2016.80  2040.43  2073.67
                             2118.33  2131.42  2171.31  2183.44  2194.51
                             2198.22  2202.04  2230.37  2401.59  2440.11
                             2464.73  4316.77  4373.59  4379.12  4391.97
                             4397.03  4417.71  4445.42  4447.71  4463.55
                             4469.41  4487.81  4504.94  4532.08  4563.20
                             4573.97  4591.54  4675.66  4687.48

 Zero-point correction=                           0.270560 (Hartree/Particle)
 Thermal correction to Energy=                    0.283489
 Thermal correction to Enthalpy=                  0.284433
 Thermal correction to Gibbs Free Energy=         0.229884
 Sum of electronic and zero-point Energies=           -467.847162
 Sum of electronic and thermal Energies=              -467.834232
 Sum of electronic and thermal Enthalpies=            -467.833288
 Sum of electronic and thermal Free Energies=         -467.887837

                     E (Thermal)             CV                S
                      KCal/Mol        Cal/Mol-Kelvin    Cal/Mol-Kelvin
 Total                  177.892             48.719            114.808
 Electronic               0.000              0.000              0.000
 Translational            0.889              2.981             41.159
 Rotational               0.889              2.981             31.230
 Vibrational            176.115             42.758             42.420
 Vibration     1          0.594              1.984              5.782
 Vibration     2          0.594              1.982              5.439
 Vibration     3          0.595              1.979              4.994
 Vibration     4          0.602              1.955              3.629
 Vibration     5          0.616              1.910              2.760
 Vibration     6          0.629              1.868              2.341
 Vibration     7          0.631              1.861              2.285
 Vibration     8          0.648              1.809              1.951
 Vibration     9          0.660              1.771              1.764
 Vibration    10          0.697              1.661              1.381
 Vibration    11          0.709              1.626              1.285
 Vibration    12          0.713              1.614              1.256
 Vibration    13          0.755              1.499              1.014
 Vibration    14          0.795              1.396              0.846
 Vibration    15          0.844              1.277              0.690
 Vibration    16          0.904              1.143              0.547
 Vibration    17          0.923              1.102              0.509

 Optimization completed.
    -- Stationary point found.
 Normal termination of Gaussian 16 at Wed Dec  9 16:57:36 2020.

 ----------------------------------------------------------------------
 # B3LYP/6-311++G(d,p) empiricaldispersion=gd3bj scf=xqc pop=npa geom=c
 heck
 ----------------------------------------------------------------------

 ---------------------------------------
 CID_142222035_JID_2047_Energie_neutraal
 ---------------------------------------
 Structure from the checkpoint file:  "JID_2047.chk"
 Charge =  0 Multiplicity = 1

 SCF Done:  E(RB3LYP) =  -468.244598778     A.U. after   14 cycles
 Normal termination of Gaussian 16 at Wed Dec  9 17:00:12 2020.

 ----------------------------------------------------------------------
 # B3LYP/6-311++G(d,p) empiricaldispersion=gd3bj scf=xqc pop=npa geom=c
 heck
 ----------------------------------------------------------------------

 -------------------------------------
 CID_142222035_JID_2047_Energie_kation
 -------------------------------------
 Structure from the checkpoint file:  "JID_2047.chk"
 Charge =  1 Multiplicity = 2

 SCF Done:  E(UB3LYP) =  -467.958638532     A.U. after   20 cycles
 Normal termination of Gaussian 16 at Wed Dec  9 17:05:13 2020.
 Gaussian 16:  ES64L-G16RevA.03 25-Dec-2016

 ----------------------------------------------------------------------
 # B3LYP/6-311++G(d,p) empiricaldispersion=gd3bj scf=xqc pop=npa geom=c
 heck
 ----------------------------------------------------------------------

 ------------------------------------
 CID_142222035_JID_2047_Energie_anion
 ------------------------------------
 Structure from the checkpoint file:  "JID_2047.chk"
 Charge = -1 Multiplicity = 2

                         Standard orientation:
 ---------------------------------------------------------------------
 Center     Atomic      Atomic             Coordinates (Angstroms)
 Number     Number       Type             X           Y           Z
 ---------------------------------------------------------------------
      1          6           0        3.183264    1.745344    0.012241
      2          6           0        2.294539    0.525326   -0.000524
      3          6           0        0.979117    0.656803   -0.297895
      4          6           0       -0.040884   -0.400237   -0.412423
      5          6           0        0.183888   -1.538957   -1.087993
      6          6           0       -1.370999   -0.085383    0.245473
      7          6           0       -2.092331    1.153246   -0.351787
      8          6           0       -3.581670    1.006713    0.065696
      9          6           0       -3.716925   -0.418459    0.665681
     10          6           0       -2.462012   -1.163519    0.187311
     11          6           0        2.899719   -0.757259    0.362238
     12          6           0        4.212173   -0.975858    0.533911
     13          1           0        2.615902    2.652939   -0.211978
     14          1           0        3.982956    1.656807   -0.734656
     15          1           0        3.671786    1.871555    0.986209
     16          1           0        0.608066    1.671140   -0.442938
     17          1           0       -0.562656   -2.322578   -1.162841
     18          1           0        1.123407   -1.709872   -1.603365
     19          1           0       -1.171819    0.129738    1.307162
     20          1           0       -1.654396    2.096760   -0.012975
     21          1           0       -1.994416    1.125145   -1.443598
     22          1           0       -4.236811    1.132360   -0.802511
     23          1           0       -3.874760    1.771096    0.792534
     24          1           0       -4.645252   -0.916710    0.368532
     25          1           0       -3.716849   -0.367730    1.761339
     26          1           0       -2.596983   -1.493138   -0.851388
     27          1           0       -2.225329   -2.047844    0.788300
     28          1           0        2.207201   -1.579354    0.521318
     29          1           0        4.581895   -1.951774    0.833886
     30          1           0        4.960770   -0.205103    0.375394
 ---------------------------------------------------------------------

 SCF Done:  E(UB3LYP) =  -468.234815425     A.U. after   33 cycles
 SCF Done:  E(UB3LYP) =  -468.234815425     a.u. after    1 cycles

 The electronic state is 2-A.
 Alpha  occ. eigenvalues --  -10.05453 -10.05433 -10.05316 -10.05024 -10.04976
 Alpha  occ. eigenvalues --  -10.04625 -10.04112 -10.03291 -10.02759 -10.02105
 Alpha  occ. eigenvalues --  -10.01915 -10.01868  -0.72984  -0.68974  -0.65065
 Alpha  occ. eigenvalues --   -0.60218  -0.59693  -0.58019  -0.54862  -0.48950
 Alpha  occ. eigenvalues --   -0.45837  -0.45298  -0.41176  -0.38026  -0.37013
 Alpha  occ. eigenvalues --   -0.35915  -0.33494  -0.32453  -0.30498  -0.29616
 Alpha  occ. eigenvalues --   -0.29337  -0.27777  -0.26931  -0.25553  -0.24750
 Alpha  occ. eigenvalues --   -0.22982  -0.22727  -0.22398  -0.21410  -0.21171
 Alpha  occ. eigenvalues --   -0.20349  -0.18941  -0.17203  -0.13862  -0.08724
 Alpha  occ. eigenvalues --    0.05206
 Alpha virt. eigenvalues --    0.06917   0.08320   0.08753   0.09012   0.09822
 Alpha virt. eigenvalues --    0.09959   0.11256   0.11403   0.11726   0.12329
 Alpha virt. eigenvalues --    0.12381   0.13244   0.13445   0.13505   0.14245

  Beta  occ. eigenvalues --  -10.05435 -10.05412 -10.05293 -10.05018 -10.04969
  Beta  occ. eigenvalues --  -10.04622 -10.04119 -10.03132 -10.02691 -10.01951
  Beta  occ. eigenvalues --  -10.01702 -10.01667  -0.72924  -0.68621  -0.64843
  Beta  occ. eigenvalues --   -0.59982  -0.59615  -0.57906  -0.54581  -0.48639
  Beta  occ. eigenvalues --   -0.45521  -0.45190  -0.40980  -0.37858  -0.36949
  Beta  occ. eigenvalues --   -0.35804  -0.33340  -0.32337  -0.30444  -0.29521
  Beta  occ. eigenvalues --   -0.29146  -0.27664  -0.26819  -0.25448  -0.24607
  Beta  occ. eigenvalues --   -0.22936  -0.22678  -0.22296  -0.21301  -0.21122
  Beta  occ. eigenvalues --   -0.20300  -0.18801  -0.16204  -0.13052  -0.07444
  Beta virt. eigenvalues --    0.07469   0.08434   0.08950   0.09149   0.09554
  Beta virt. eigenvalues --    0.09920   0.10022   0.11403   0.11580   0.11706
  Beta virt. eigenvalues --    0.12324   0.12484   0.13344   0.13452   0.13958

 Mulliken charges and spin densities:
               1          2
     1  C   -0.523406  -0.303383
     2  C    0.186929   0.447091
     3  C   -0.611722   0.338797
     4  C    1.844029  -0.725391
     5  C   -0.778315   0.142640
     6  C   -0.308685   0.453769
     7  C   -0.777911   0.445354
     8  C    0.910442  -1.464146
     9  C   -0.157854  -0.220145
    10  C   -0.280922  -0.288825
    11  C   -0.151164   0.125291
    12  C   -0.925746   0.277074
    13  H    0.078636   0.046183
    14  H    0.125321  -0.003822
    15  H    0.058033   0.077795
    16  H   -0.005480   0.116694
    17  H    0.090926   0.014408
    18  H    0.148336  -0.005371
    19  H    0.058717   0.148519
    20  H    0.077193   0.032278
    21  H    0.080938   0.077904
    22  H   -0.126125   0.255799
    23  H   -0.306104   0.447544
    24  H   -0.289820   0.443865
    25  H    0.038742   0.091805
    26  H    0.077382   0.030654
    27  H    0.128322   0.015580
    28  H    0.152612  -0.006355
    29  H    0.101055  -0.008442
    30  H    0.085642  -0.003164
 Sum of Mulliken charges =  -1.00000   1.00000

 Dipole moment (field-independent basis, Debye):
    X=              0.6649    Y=             -0.4586    Z=             -0.6913  Tot=              1.0632
 Quadrupole moment (field-independent basis, Debye-Ang):
   XX=           -153.2216   YY=            -96.6111   ZZ=            -96.1695
   XY=              6.9091   XZ=             -1.4682   YZ=             -3.4039

 Summary of Natural Population Analysis:

                                       Natural Population
                Natural  -----------------------------------------------
    Atom  No    Charge         Core      Valence    Rydberg      Total
 -----------------------------------------------------------------------
      C    1   -0.29361      0.99964     2.28854    0.00543     3.29361
      C    2   -0.00149      0.99949     1.99259    0.00941     3.00149
      C    3   -0.06492      0.99945     2.05501    0.01046     3.06492
      C    4   -0.01475      0.99951     2.00349    0.01175     3.01475
      C    5   -0.17217      0.99952     2.16720    0.00545     3.17217
      C    6   -0.11548      0.99956     2.10579    0.01014     3.11548
      C    7   -0.18755      0.99963     2.17915    0.00877     3.18755
      C    8   -0.19325      0.99965     2.18572    0.00788     3.19325
      C    9   -0.19108      0.99964     2.18269    0.00875     3.19108
      C   10   -0.19061      0.99963     2.18171    0.00927     3.19061
      C   11   -0.09610      0.99954     2.08685    0.00971     3.09610
      C   12   -0.17266      0.99960     2.16436    0.00870     3.17266
      H   13    0.09666      0.00000     0.40264    0.00070     0.40334
      H   14    0.09663      0.00000     0.40232    0.00106     0.40337
      H   15    0.09888      0.00000     0.39972    0.00140     0.40112
      H   16    0.08775      0.00000     0.41071    0.00155     0.41225
      H   17    0.08591      0.00000     0.41313    0.00097     0.41409
      H   18    0.09365      0.00000     0.40545    0.00090     0.40635
      H   19    0.09804      0.00000     0.40027    0.00168     0.40196
      H   20    0.10095      0.00000     0.39812    0.00093     0.39905
      H   21    0.09555      0.00000     0.40328    0.00117     0.40445
      H   22    0.09548      0.00000     0.40338    0.00114     0.40452
      H   23    0.09720      0.00000     0.40126    0.00154     0.40280
      H   24    0.09731      0.00000     0.40149    0.00120     0.40269
      H   25    0.09222      0.00000     0.40661    0.00117     0.40778
      H   26    0.09521      0.00000     0.40362    0.00117     0.40479
      H   27    0.09890      0.00000     0.40023    0.00086     0.40110
      H   28    0.09699      0.00000     0.40152    0.00148     0.40301
      H   29    0.08354      0.00000     0.41561    0.00085     0.41646
      H   30    0.08278      0.00000     0.41631    0.00091     0.41722
 =======================================================================
   * Total *   -0.00000     11.99486    32.87875    0.12639    45.00000

 Normal termination of Gaussian 16 at Wed Dec  9 17:13:53 2020.
