 Gaussian 16, Revision A.03,

 -----------------------------------------------------------
 # opt freq B3LYP/6-31G(d) empiricaldispersion=gd3bj scf=xqc
 -----------------------------------------------------------

 -------------------------------
 CID_146686186_JID_2306_neutraal
 -------------------------------
 Symbolic Z-matrix:
 Charge =  0 Multiplicity = 1

 SCF Done:  E(RB3LYP) =  -484.158292141     A.U. after   14 cycles
 SCF Done:  E(RB3LYP) =  -484.160951436     A.U. after   12 cycles
 SCF Done:  E(RB3LYP) =  -484.161289039     A.U. after   11 cycles
 SCF Done:  E(RB3LYP) =  -484.161483943     A.U. after   11 cycles
 SCF Done:  E(RB3LYP) =  -484.161620994     A.U. after   12 cycles
 SCF Done:  E(RB3LYP) =  -484.161724993     A.U. after   11 cycles
 SCF Done:  E(RB3LYP) =  -484.161987815     A.U. after   12 cycles
 SCF Done:  E(RB3LYP) =  -484.162116408     A.U. after   11 cycles
 SCF Done:  E(RB3LYP) =  -484.162129286     A.U. after    9 cycles
 SCF Done:  E(RB3LYP) =  -484.162132747     A.U. after   10 cycles
 SCF Done:  E(RB3LYP) =  -484.162139283     A.U. after    8 cycles
 SCF Done:  E(RB3LYP) =  -484.162139683     A.U. after    7 cycles
 SCF Done:  E(RB3LYP) =  -484.162139836     A.U. after    7 cycles
 SCF Done:  E(RB3LYP) =  -484.162140013     A.U. after    8 cycles
 SCF Done:  E(RB3LYP) =  -484.162140083     A.U. after    8 cycles
 Optimization completed.
    -- Stationary point found.
 Normal termination of Gaussian 16 at Wed Dec  9 17:03:11 2020.

 --------------------------------------------------------------------
 #N Geom=AllCheck Guess=TCheck SCRF=Check GenChk RB3LYP/6-31G(d) Freq
 --------------------------------------------------------------------

 Structure from the checkpoint file:  "JID_2306.chk"
 -------------------------------
 CID_146686186_JID_2306_neutraal
 -------------------------------
 Charge =  0 Multiplicity = 1

 SCF Done:  E(RB3LYP) =  -484.162140083     A.U. after    1 cycles

  Exact polarizability: 207.453   6.401 111.698  -6.434   2.310  78.365
 Approx polarizability: 308.933  18.166 164.847 -16.090   3.875 110.540

                      1                      2                      3
                      A                      A                      A
 Frequencies --     29.3297                55.3925                85.1989
 Red. masses --      3.2380                 2.7533                 4.3316
 Frc consts  --      0.0016                 0.0050                 0.0185
 IR Inten    --      0.0539                 0.0090                 0.2814

                      4                      5                      6
                      A                      A                      A
 Frequencies --    110.7494               195.3559               229.2707
 Red. masses --      3.1690                 1.5240                 2.2722
 Frc consts  --      0.0229                 0.0343                 0.0704
 IR Inten    --      0.3247                 0.3755                 0.7753

                      7                      8                      9
                      A                      A                      A
 Frequencies --    257.0631               262.7439               278.7871
 Red. masses --      1.2816                 1.4527                 2.2777
 Frc consts  --      0.0499                 0.0591                 0.1043
 IR Inten    --      0.5260                 0.7252                 4.9756

                     10                     11                     12
                      A                      A                      A
 Frequencies --    283.2912               287.3396               356.4446
 Red. masses --      2.3979                 1.1387                 2.4275
 Frc consts  --      0.1134                 0.0554                 0.1817
 IR Inten    --      5.5712                 0.3170                 2.3339

                     13                     14                     15
                      A                      A                      A
 Frequencies --    372.1141               405.7660               415.2906
 Red. masses --      3.1211                 1.3911                 2.5383
 Frc consts  --      0.2546                 0.1349                 0.2579
 IR Inten    --      0.8526                51.3738                 7.5553

                     16                     17                     18
                      A                      A                      A
 Frequencies --    437.3573               507.8841               551.2938
 Red. masses --      3.8046                 2.7493                 3.0434
 Frc consts  --      0.4288                 0.4178                 0.5450
 IR Inten    --      0.0507                10.7518                 2.2322

                     19                     20                     21
                      A                      A                      A
 Frequencies --    570.5580               657.4473               668.0700
 Red. masses --      3.2852                 3.2785                 4.3274
 Frc consts  --      0.6301                 0.8349                 1.1379
 IR Inten    --      0.5400                 0.4559                 0.2209

                     22                     23                     24
                      A                      A                      A
 Frequencies --    715.5342               735.0872               759.8430
 Red. masses --      2.7179                 1.3098                 1.3120
 Frc consts  --      0.8199                 0.4170                 0.4463
 IR Inten    --      2.5740                17.1143                13.5909

                     25                     26                     27
                      A                      A                      A
 Frequencies --    817.3519               824.3121               864.4744
 Red. masses --      1.3856                 1.6556                 3.9166
 Frc consts  --      0.5454                 0.6628                 1.7245
 IR Inten    --      1.5810                43.5075                 8.9135

                     28                     29                     30
                      A                      A                      A
 Frequencies --    886.8423               920.5140               940.0736
 Red. masses --      3.5403                 2.3368                 1.5432
 Frc consts  --      1.6405                 1.1666                 0.8035
 IR Inten    --      7.2065                 0.4062                 0.0150

                     31                     32                     33
                      A                      A                      A
 Frequencies --    942.6875               955.7516               964.0795
 Red. masses --      1.8509                 1.2386                 2.3804
 Frc consts  --      0.9691                 0.6666                 1.3035
 IR Inten    --      0.3390                 0.0059                 0.3386

                     34                     35                     36
                      A                      A                      A
 Frequencies --   1008.5690              1043.2739              1055.5036
 Red. masses --      1.2246                 1.2983                 2.0941
 Frc consts  --      0.7339                 0.8326                 1.3746
 IR Inten    --      0.3093                 0.0172                 2.0868

                     37                     38                     39
                      A                      A                      A
 Frequencies --   1085.1226              1112.8728              1153.9348
 Red. masses --      1.7753                 2.0789                 3.1287
 Frc consts  --      1.2316                 1.5170                 2.4546
 IR Inten    --     23.9809                 1.1776                13.1841

                     40                     41                     42
                      A                      A                      A
 Frequencies --   1166.3097              1202.9758              1269.2662
 Red. masses --      1.9616                 1.9794                 1.5438
 Frc consts  --      1.5721                 1.6877                 1.4654
 IR Inten    --      8.9408                 9.8460                11.7133

                     43                     44                     45
                      A                      A                      A
 Frequencies --   1288.1162              1308.1375              1336.9622
 Red. masses --      1.5198                 1.2059                 1.4835
 Frc consts  --      1.4857                 1.2158                 1.5624
 IR Inten    --     49.2156                 3.5739                 0.5868

                     46                     47                     48
                      A                      A                      A
 Frequencies --   1364.5149              1372.5338              1417.6126
 Red. masses --      1.4395                 1.3218                 1.2022
 Frc consts  --      1.5791                 1.4671                 1.4235
 IR Inten    --     19.4021                17.5767                 2.2444

                     49                     50                     51
                      A                      A                      A
 Frequencies --   1432.9546              1435.0289              1449.4231
 Red. masses --      1.2375                 1.2331                 1.4264
 Frc consts  --      1.4972                 1.4961                 1.7656
 IR Inten    --      6.9430                 1.1182                11.6992

                     52                     53                     54
                      A                      A                      A
 Frequencies --   1477.4095              1488.6603              1512.6354
 Red. masses --      1.7817                 1.3742                 1.0471
 Frc consts  --      2.2913                 1.7943                 1.4115
 IR Inten    --     49.7026                15.2801                 0.0021

                     55                     56                     57
                      A                      A                      A
 Frequencies --   1515.9177              1523.8100              1525.7020
 Red. masses --      1.0496                 1.1121                 1.0699
 Frc consts  --      1.4211                 1.5214                 1.4674
 IR Inten    --      2.5204                15.2302                 0.8131

                     58                     59                     60
                      A                      A                      A
 Frequencies --   1531.7335              1537.5958              1541.9046
 Red. masses --      1.0770                 1.0751                 1.1363
 Frc consts  --      1.4888                 1.4976                 1.5918
 IR Inten    --      9.7108                 7.7348                14.8082

                     61                     62                     63
                      A                      A                      A
 Frequencies --   1562.4294              1685.9856              1743.8400
 Red. masses --      1.6982                 4.5605                 6.7380
 Frc consts  --      2.4426                 7.6378                12.0724
 IR Inten    --    116.2475               110.8040                31.5910

                     64                     65                     66
                      A                      A                      A
 Frequencies --   1773.8699              2998.4151              3038.2496
 Red. masses --      6.2830                 1.0716                 1.0351
 Frc consts  --     11.6482                 5.6764                 5.6297
 IR Inten    --    150.0472                44.8820                21.2473

                     67                     68                     69
                      A                      A                      A
 Frequencies --   3043.0765              3046.4401              3070.6757
 Red. masses --      1.0355                 1.0351                 1.0907
 Frc consts  --      5.6497                 5.6601                 6.0591
 IR Inten    --     62.1360                42.1770                22.7800

                     70                     71                     72
                      A                      A                      A
 Frequencies --   3101.3630              3106.8798              3114.0480
 Red. masses --      1.1024                 1.1018                 1.1023
 Frc consts  --      6.2476                 6.2662                 6.2982
 IR Inten    --      0.0908                54.2799                62.2402

                     73                     74                     75
                      A                      A                      A
 Frequencies --   3123.0840              3129.2690              3129.5202
 Red. masses --      1.1027                 1.1016                 1.0948
 Frc consts  --      6.3366                 6.3557                 6.3172
 IR Inten    --     31.8931                23.6869                13.8548

                     76                     77                     78
                      A                      A                      A
 Frequencies --   3131.9908              3156.5062              3170.6983
 Red. masses --      1.0921                 1.0843                 1.0902
 Frc consts  --      6.3118                 6.3654                 6.4576
 IR Inten    --     40.9275                 7.7037                20.2588

                     79                     80                     81
                      A                      A                      A
 Frequencies --   3184.6530              3202.1812              3651.2610
 Red. masses --      1.0928                 1.0891                 1.0756
 Frc consts  --      6.5298                 6.5798                 8.4484
 IR Inten    --     31.8025                14.5296                17.5393

 - Thermochemistry -
 -------------------
 Temperature   298.150 Kelvin.  Pressure   1.00000 Atm.
 Atom     1 has atomic number  6 and mass  12.00000

 Molecular mass:   163.13610 amu.
 Principal axes and moments of inertia in atomic units:
                           1         2         3
     Eigenvalues --   842.722603772.242134068.11567
           X            0.99998  -0.00519   0.00240
           Y            0.00520   0.99999  -0.00157
           Z           -0.00239   0.00158   1.00000
 This molecule is an asymmetric top.
 Rotational symmetry number  1.
 Warning -- assumption of classical behavior for rotation
           may cause significant error
 Rotational temperatures (Kelvin)      0.10278     0.02296     0.02129
 Rotational constants (GHZ):           2.14156     0.47843     0.44363
 Zero-point vibrational energy     679875.0 (Joules/Mol)
                                  162.49401 (Kcal/Mol)
 Warning -- explicit consideration of  19 degrees of freedom as
           vibrations may cause significant error
 Vibrational temperatures:     42.20    79.70   122.58   159.34   281.07
          (Kelvin)            329.87   369.86   378.03   401.11   407.59
                              413.42   512.84   535.39   583.81   597.51
                              629.26   730.73   793.19   820.91   945.92
                              961.20  1029.49  1057.63  1093.24  1175.99
                             1186.00  1243.79  1275.97  1324.41  1352.56
                             1356.32  1375.11  1387.10  1451.11  1501.04
                             1518.63  1561.25  1601.18  1660.25  1678.06
                             1730.81  1826.19  1853.31  1882.12  1923.59
                             1963.23  1974.77  2039.63  2061.70  2064.69
                             2085.40  2125.66  2141.85  2176.34  2181.07
                             2192.42  2195.14  2203.82  2212.26  2218.46
                             2247.99  2425.76  2509.00  2552.20  4314.05
                             4371.36  4378.31  4383.15  4418.02  4462.17
                             4470.11  4480.42  4493.42  4502.32  4502.68
                             4506.24  4541.51  4561.93  4582.01  4607.22
                             5253.35

 Zero-point correction=                           0.258951 (Hartree/Particle)
 Thermal correction to Energy=                    0.271854
 Thermal correction to Enthalpy=                  0.272798
 Thermal correction to Gibbs Free Energy=         0.219700
 Sum of electronic and zero-point Energies=           -483.903189
 Sum of electronic and thermal Energies=              -483.890286
 Sum of electronic and thermal Enthalpies=            -483.889342
 Sum of electronic and thermal Free Energies=         -483.942440

                     E (Thermal)             CV                S
                      KCal/Mol        Cal/Mol-Kelvin    Cal/Mol-Kelvin
 Total                  170.591             49.762            111.755
 Electronic               0.000              0.000              0.000
 Translational            0.889              2.981             41.177
 Rotational               0.889              2.981             30.937
 Vibrational            168.814             43.800             39.641
 Vibration     1          0.593              1.984              5.874
 Vibration     2          0.596              1.975              4.615
 Vibration     3          0.601              1.959              3.767
 Vibration     4          0.607              1.941              3.256
 Vibration     5          0.636              1.846              2.176
 Vibration     6          0.652              1.796              1.885
 Vibration     7          0.667              1.751              1.682
 Vibration     8          0.670              1.741              1.643
 Vibration     9          0.679              1.713              1.541
 Vibration    10          0.682              1.705              1.514
 Vibration    11          0.685              1.697              1.490
 Vibration    12          0.732              1.562              1.138
 Vibration    13          0.744              1.529              1.071
 Vibration    14          0.771              1.458              0.942
 Vibration    15          0.779              1.437              0.908
 Vibration    16          0.798              1.389              0.835
 Vibration    17          0.863              1.233              0.639
 Vibration    18          0.907              1.137              0.541
 Vibration    19          0.927              1.095              0.503

                           ! Non-Optimized Parameters !
 Normal termination of Gaussian 16 at Wed Dec  9 17:10:24 2020.

 ----------------------------------------------------------------------
 # B3LYP/6-311++G(d,p) empiricaldispersion=gd3bj scf=xqc pop=npa geom=c
 heck
 ----------------------------------------------------------------------

 ---------------------------------------
 CID_146686186_JID_2306_Energie_neutraal
 ---------------------------------------
 Structure from the checkpoint file:  "JID_2306.chk"
 Charge =  0 Multiplicity = 1

 SCF Done:  E(RB3LYP) =  -484.298099255     A.U. after   14 cycles
 Normal termination of Gaussian 16 at Wed Dec  9 17:13:48 2020.

 ----------------------------------------------------------------------
 # B3LYP/6-311++G(d,p) empiricaldispersion=gd3bj scf=xqc pop=npa geom=c
 heck
 ----------------------------------------------------------------------

 -------------------------------------
 CID_146686186_JID_2306_Energie_kation
 -------------------------------------
 Structure from the checkpoint file:  "JID_2306.chk"
 Charge =  1 Multiplicity = 2

 SCF Done:  E(UB3LYP) =  -484.045952021     A.U. after   20 cycles
 Normal termination of Gaussian 16 at Wed Dec  9 17:20:36 2020.
 Gaussian 16:  ES64L-G16RevA.03 25-Dec-2016

 ----------------------------------------------------------------------
 # B3LYP/6-311++G(d,p) empiricaldispersion=gd3bj scf=xqc pop=npa geom=c
 heck
 ----------------------------------------------------------------------

 ------------------------------------
 CID_146686186_JID_2306_Energie_anion
 ------------------------------------
 Structure from the checkpoint file:  "JID_2306.chk"
 Charge = -1 Multiplicity = 2

                         Standard orientation:
 ---------------------------------------------------------------------
 Center     Atomic      Atomic             Coordinates (Angstroms)
 Number     Number       Type             X           Y           Z
 ---------------------------------------------------------------------
      1          6           0       -4.113382    0.420870   -0.834237
      2          6           0       -3.560030   -0.160495    0.482417
      3          6           0       -2.307606   -0.970890    0.293720
      4          6           0       -1.048570   -0.469164    0.193436
      5          6           0        0.056024   -1.402665   -0.015733
      6          6           0        1.382342   -1.238264   -0.129445
      7          6           0        2.279957   -0.029717   -0.083369
      8          6           0        1.614889    1.303607    0.133151
      9          6           0        0.329223    1.649888    0.283384
     10          7           0       -0.838556    0.903947    0.289605
     11          6           0        3.301902   -0.254827    1.061626
     12          6           0        3.055109    0.026054   -1.425921
     13          1           0       -3.375099    1.070270   -1.318072
     14          1           0       -5.024316    1.005796   -0.659960
     15          1           0       -4.352139   -0.381950   -1.539639
     16          1           0       -3.391556    0.660753    1.197187
     17          1           0       -4.329392   -0.789522    0.945574
     18          1           0       -2.421586   -2.044299    0.183129
     19          1           0       -0.299647   -2.428066   -0.087156
     20          1           0        1.948426   -2.157679   -0.284600
     21          1           0        2.314480    2.136295    0.167800
     22          1           0        0.110039    2.705786    0.421434
     23          1           0       -1.675946    1.445118    0.432881
     24          1           0        3.861643   -1.186377    0.912784
     25          1           0        4.023393    0.570068    1.098043
     26          1           0        2.791012   -0.307800    2.027792
     27          1           0        2.365276    0.176789   -2.261783
     28          1           0        3.774002    0.853948   -1.418753
     29          1           0        3.612162   -0.903143   -1.598067
 ---------------------------------------------------------------------

 SCF Done:  E(UB3LYP) =  -484.286266153     A.U. after   33 cycles
 SCF Done:  E(UB3LYP) =  -484.286266153     a.u. after    1 cycles

 The electronic state is 2-A.
 Alpha  occ. eigenvalues --  -14.22522 -10.09656 -10.09334 -10.08824 -10.06311
 Alpha  occ. eigenvalues --  -10.06265 -10.06109 -10.06066 -10.05848 -10.04622
 Alpha  occ. eigenvalues --  -10.04415 -10.04295  -0.83693  -0.72711  -0.69641
 Alpha  occ. eigenvalues --   -0.65854  -0.62484  -0.59855  -0.58683  -0.53239
 Alpha  occ. eigenvalues --   -0.51958  -0.47350  -0.44941  -0.43968  -0.39260
 Alpha  occ. eigenvalues --   -0.35639  -0.34256  -0.33973  -0.32510  -0.32122
 Alpha  occ. eigenvalues --   -0.31109  -0.30009  -0.29235  -0.28925  -0.28264
 Alpha  occ. eigenvalues --   -0.27333  -0.25937  -0.24602  -0.23467  -0.22791
 Alpha  occ. eigenvalues --   -0.22445  -0.21828  -0.19049  -0.12251  -0.07740
 Alpha  occ. eigenvalues --    0.04584
 Alpha virt. eigenvalues --    0.06638   0.07428   0.07946   0.08718   0.09058
 Alpha virt. eigenvalues --    0.09210   0.09549   0.10736   0.11042   0.11480
 Alpha virt. eigenvalues --    0.12285   0.12443   0.12738   0.13753   0.13982

  Beta  occ. eigenvalues --  -14.22499 -10.09604 -10.09310 -10.08829 -10.06302
  Beta  occ. eigenvalues --  -10.06252 -10.06093 -10.06050 -10.05754 -10.04559
  Beta  occ. eigenvalues --  -10.04353 -10.04274  -0.83618  -0.72646  -0.69522
  Beta  occ. eigenvalues --   -0.65754  -0.62428  -0.59735  -0.58649  -0.53080
  Beta  occ. eigenvalues --   -0.51897  -0.47260  -0.44866  -0.43893  -0.39159
  Beta  occ. eigenvalues --   -0.35600  -0.34202  -0.33912  -0.32433  -0.32053
  Beta  occ. eigenvalues --   -0.31043  -0.29956  -0.29201  -0.28832  -0.28171
  Beta  occ. eigenvalues --   -0.27260  -0.25845  -0.24559  -0.23404  -0.22737
  Beta  occ. eigenvalues --   -0.22396  -0.21767  -0.18788  -0.12014  -0.07468
  Beta virt. eigenvalues --    0.06571   0.07450   0.08017   0.08379   0.09074
  Beta virt. eigenvalues --    0.09302   0.09734   0.09949   0.10811   0.11524
  Beta virt. eigenvalues --    0.11819   0.12323   0.12520   0.13043   0.14025

 Mulliken charges and spin densities:
               1          2
     1  C    1.450989  -1.978453
     2  C   -1.800370   1.516517
     3  C    1.207733  -1.573531
     4  C   -0.450426   0.575603
     5  C    0.297471  -0.644388
     6  C   -0.015453  -0.145004
     7  C    0.518237   0.272326
     8  C   -1.598571   1.292517
     9  C    1.511965  -1.637959
    10  N   -0.200639   0.140628
    11  C   -0.100232  -0.553703
    12  C    0.026753  -0.699263
    13  H   -0.274861   0.412853
    14  H   -0.593833   0.726642
    15  H   -0.160228   0.286405
    16  H   -0.356476   0.492028
    17  H   -0.240585   0.394834
    18  H   -0.086536   0.243842
    19  H   -0.046509   0.193219
    20  H    0.031647   0.110096
    21  H    0.115251   0.042867
    22  H   -1.102022   1.255925
    23  H    0.606960  -0.294854
    24  H    0.053668   0.073099
    25  H    0.035034   0.101103
    26  H    0.136241   0.012195
    27  H    0.125884   0.029231
    28  H   -0.082996   0.220865
    29  H   -0.008096   0.134361
 Sum of Mulliken charges =  -1.00000   1.00000

 Dipole moment (field-independent basis, Debye):
    X=              6.7925    Y=             -3.9837    Z=              0.7176  Tot=              7.9071
 Quadrupole moment (field-independent basis, Debye-Ang):
   XX=           -153.6697   YY=           -113.9258   ZZ=           -102.3112
   XY=              6.6075   XZ=             -1.0222   YZ=             -0.8256

 Summary of Natural Population Analysis:

                                       Natural Population
                Natural  -----------------------------------------------
    Atom  No    Charge         Core      Valence    Rydberg      Total
 -----------------------------------------------------------------------
      C    1   -0.28060      0.99966     2.27577    0.00516     3.28060
      C    2   -0.21385      0.99964     2.20421    0.01001     3.21385
      C    3   -0.10030      0.99952     2.09050    0.01027     3.10030
      C    4    0.07631      0.99942     1.91219    0.01208     2.92369
      C    5   -0.10820      0.99951     2.09946    0.00923     3.10820
      C    6   -0.06655      0.99953     2.05612    0.01090     3.06655
      C    7   -0.07467      0.99954     2.06438    0.01074     3.07467
      C    8   -0.14718      0.99953     2.13435    0.01331     3.14718
      C    9    0.01743      0.99950     1.96999    0.01307     2.98257
      N   10   -0.30160      0.99965     2.79035    0.01159     3.80160
      C   11   -0.27239      0.99964     2.26736    0.00539     3.27239
      C   12   -0.27295      0.99964     2.26785    0.00547     3.27295
      H   13    0.09735      0.00000     0.40099    0.00167     0.40265
      H   14    0.09880      0.00000     0.39840    0.00281     0.40120
      H   15    0.09548      0.00000     0.40322    0.00129     0.40452
      H   16    0.09517      0.00000     0.40265    0.00218     0.40483
      H   17    0.10100      0.00000     0.39783    0.00117     0.39900
      H   18    0.09333      0.00000     0.40556    0.00111     0.40667
      H   19    0.09725      0.00000     0.40114    0.00161     0.40275
      H   20    0.08951      0.00000     0.40915    0.00133     0.41049
      H   21    0.09747      0.00000     0.40143    0.00110     0.40253
      H   22    0.09668      0.00000     0.40141    0.00191     0.40332
      H   23    0.19749      0.00000     0.29876    0.00375     0.30251
      H   24    0.09313      0.00000     0.40591    0.00096     0.40687
      H   25    0.09564      0.00000     0.40342    0.00095     0.40436
      H   26    0.10270      0.00000     0.39635    0.00095     0.39730
      H   27    0.10392      0.00000     0.39505    0.00104     0.39608
      H   28    0.09627      0.00000     0.40265    0.00108     0.40373
      H   29    0.09336      0.00000     0.40565    0.00100     0.40664
 =======================================================================
   * Total *   -0.00000     11.99478    32.86209    0.14313    45.00000

 Normal termination of Gaussian 16 at Wed Dec  9 17:31:40 2020.
