 Gaussian 16, Revision A.03,

 -----------------------------------------------------------
 # opt freq B3LYP/6-31G(d) empiricaldispersion=gd3bj scf=xqc
 -----------------------------------------------------------

 ------------------------------
 CID_12553767_JID_7717_neutraal
 ------------------------------
 Symbolic Z-matrix:
 Charge =  0 Multiplicity = 1

 SCF Done:  E(RB3LYP) =  -786.138114150     A.U. after   15 cycles
 SCF Done:  E(RB3LYP) =  -786.141071244     A.U. after   14 cycles
 SCF Done:  E(RB3LYP) =  -786.141252787     A.U. after   12 cycles
 SCF Done:  E(RB3LYP) =  -786.142122637     A.U. after   13 cycles
 SCF Done:  E(RB3LYP) =  -786.142230431     A.U. after   12 cycles
 SCF Done:  E(RB3LYP) =  -786.142343096     A.U. after   12 cycles
 SCF Done:  E(RB3LYP) =  -786.142337520     A.U. after   12 cycles
 SCF Done:  E(RB3LYP) =  -786.142350625     A.U. after   13 cycles
 SCF Done:  E(RB3LYP) =  -786.142427732     A.U. after   12 cycles
 SCF Done:  E(RB3LYP) =  -786.142438296     A.U. after   10 cycles
 SCF Done:  E(RB3LYP) =  -786.142515629     A.U. after   11 cycles
 SCF Done:  E(RB3LYP) =  -786.142516285     A.U. after   11 cycles
 SCF Done:  E(RB3LYP) =  -786.142516520     A.U. after   10 cycles
 SCF Done:  E(RB3LYP) =  -786.142516531     A.U. after    7 cycles
 SCF Done:  E(RB3LYP) =  -786.142516529     A.U. after    7 cycles
 Optimization completed.
    -- Stationary point found.
 Normal termination of Gaussian 16 at Fri Dec 11 13:20:43 2020.

 --------------------------------------------------------------------
 #N Geom=AllCheck Guess=TCheck SCRF=Check GenChk RB3LYP/6-31G(d) Freq
 --------------------------------------------------------------------

 Structure from the checkpoint file:  "JID_7717.chk"
 ------------------------------
 CID_12553767_JID_7717_neutraal
 ------------------------------
 Charge =  0 Multiplicity = 1

 SCF Done:  E(RB3LYP) =  -786.142516529     A.U. after    1 cycles

  Exact polarizability: 198.802  -1.790 172.267  -6.414  -5.759  86.071
 Approx polarizability: 289.196 -24.707 266.461  -9.624 -10.250 126.817

                      1                      2                      3
                      A                      A                      A
 Frequencies --     11.3018                18.5576                52.7615
 Red. masses --      3.9396                 3.7864                 3.2861
 Frc consts  --      0.0003                 0.0008                 0.0054
 IR Inten    --      0.1129                 0.0175                 1.5707

                      4                      5                      6
                      A                      A                      A
 Frequencies --     54.5801                63.5422                85.3298
 Red. masses --      4.1730                 4.5883                 5.8490
 Frc consts  --      0.0073                 0.0109                 0.0251
 IR Inten    --      4.0264                 0.6989                 0.0635

                      7                      8                      9
                      A                      A                      A
 Frequencies --    105.8252               152.5815               178.9380
 Red. masses --      4.3986                 4.2458                 1.1057
 Frc consts  --      0.0290                 0.0582                 0.0209
 IR Inten    --      2.3024                 0.0602                 0.4648

                     10                     11                     12
                      A                      A                      A
 Frequencies --    189.0162               223.3826               242.7157
 Red. masses --      3.3221                 1.1299                 2.6218
 Frc consts  --      0.0699                 0.0332                 0.0910
 IR Inten    --      1.3968                 0.0840                 0.1021

                     13                     14                     15
                      A                      A                      A
 Frequencies --    251.2036               264.4019               301.4561
 Red. masses --      1.8273                 1.9099                 4.3334
 Frc consts  --      0.0679                 0.0787                 0.2320
 IR Inten    --      1.0240                 1.9329                 3.4062

                     16                     17                     18
                      A                      A                      A
 Frequencies --    325.9273               364.9953               375.1432
 Red. masses --      3.4117                 5.8632                 3.2514
 Frc consts  --      0.2135                 0.4602                 0.2696
 IR Inten    --      3.6700                 4.5417                 1.8222

                     19                     20                     21
                      A                      A                      A
 Frequencies --    387.0486               427.0618               429.6050
 Red. masses --      3.8970                 1.9007                 3.2826
 Frc consts  --      0.3440                 0.2042                 0.3570
 IR Inten    --      7.5645                 0.7283                 0.2903

                     22                     23                     24
                      A                      A                      A
 Frequencies --    469.8447               504.6151               510.4054
 Red. masses --      4.1815                 3.9472                 3.5688
 Frc consts  --      0.5439                 0.5922                 0.5478
 IR Inten    --      2.8093                 4.9099                 6.4572

                     25                     26                     27
                      A                      A                      A
 Frequencies --    583.0826               603.8033               640.0236
 Red. masses --      1.1252                 4.3451                 3.0595
 Frc consts  --      0.2254                 0.9333                 0.7384
 IR Inten    --     68.4473                23.4153                 1.0623

                     28                     29                     30
                      A                      A                      A
 Frequencies --    648.2126               702.6476               729.9573
 Red. masses --      6.7138                 2.2645                 4.9628
 Frc consts  --      1.6621                 0.6587                 1.5580
 IR Inten    --     11.1526                12.0419                 5.2228

                     31                     32                     33
                      A                      A                      A
 Frequencies --    743.7470               748.7950               812.6971
 Red. masses --      5.7239                 9.4991                 1.5046
 Frc consts  --      1.8655                 3.1381                 0.5855
 IR Inten    --      4.0496                44.5312                32.4325

                     34                     35                     36
                      A                      A                      A
 Frequencies --    828.5219               879.4139               904.3296
 Red. masses --      2.6430                 4.4060                 1.4165
 Frc consts  --      1.0689                 2.0076                 0.6825
 IR Inten    --      2.6099                 1.4452                10.0844

                     37                     38                     39
                      A                      A                      A
 Frequencies --    919.7655               936.1759               946.9502
 Red. masses --      1.3605                 1.5266                 1.1960
 Frc consts  --      0.6781                 0.7883                 0.6319
 IR Inten    --      0.0423                 3.0531                 2.7401

                     40                     41                     42
                      A                      A                      A
 Frequencies --    965.0463               971.7727               984.2944
 Red. masses --      2.3726                 1.8581                 1.5461
 Frc consts  --      1.3019                 1.0338                 0.8825
 IR Inten    --     20.5766                10.9145                 2.4068

                     43                     44                     45
                      A                      A                      A
 Frequencies --    986.5420               997.4616              1022.2122
 Red. masses --      1.2835                 2.8596                 5.9617
 Frc consts  --      0.7360                 1.6763                 3.6703
 IR Inten    --      0.9680                 7.1901                 1.6479

                     46                     47                     48
                      A                      A                      A
 Frequencies --   1057.1894              1086.0588              1115.1229
 Red. masses --      1.8673                 5.4741                 1.9401
 Frc consts  --      1.2296                 3.8043                 1.4214
 IR Inten    --      1.6275               190.0858                 4.6268

                     49                     50                     51
                      A                      A                      A
 Frequencies --   1130.2500              1158.0904              1204.9179
 Red. masses --      1.5971                 2.2366                 1.1436
 Frc consts  --      1.2021                 1.7674                 0.9782
 IR Inten    --     18.2147                 1.1543                 4.0663

                     52                     53                     54
                      A                      A                      A
 Frequencies --   1212.4490              1216.2127              1244.6299
 Red. masses --      1.7317                 2.0427                 2.2374
 Frc consts  --      1.4999                 1.7802                 2.0421
 IR Inten    --      0.8927                 0.9465                 5.0574

                     55                     56                     57
                      A                      A                      A
 Frequencies --   1295.9713              1316.9373              1338.6342
 Red. masses --      2.6839                 1.1990                 1.7449
 Frc consts  --      2.6558                 1.2251                 1.8422
 IR Inten    --    237.3971                 6.9197               128.1061

                     58                     59                     60
                      A                      A                      A
 Frequencies --   1345.8794              1366.2917              1383.7091
 Red. masses --      1.3753                 3.3628                 2.4952
 Frc consts  --      1.4678                 3.6986                 2.8148
 IR Inten    --     49.0771               169.5402               185.9263

                     61                     62                     63
                      A                      A                      A
 Frequencies --   1402.2927              1411.2449              1430.8983
 Red. masses --      1.4708                 1.3419                 1.3134
 Frc consts  --      1.7040                 1.5746                 1.5844
 IR Inten    --     79.0799                56.1127                27.0005

                     64                     65                     66
                      A                      A                      A
 Frequencies --   1436.6598              1454.8362              1469.9286
 Red. masses --      1.5035                 1.2892                 2.6918
 Frc consts  --      1.8284                 1.6077                 3.4268
 IR Inten    --    132.6387                19.1133                 9.7056

                     67                     68                     69
                      A                      A                      A
 Frequencies --   1499.6222              1507.6306              1514.1789
 Red. masses --      1.0570                 1.0481                 1.0752
 Frc consts  --      1.4005                 1.4036                 1.4525
 IR Inten    --     19.6476                 9.6817                 3.0232

                     70                     71                     72
                      A                      A                      A
 Frequencies --   1517.9651              1522.4017              1527.3463
 Red. masses --      1.8559                 1.0765                 1.1030
 Frc consts  --      2.5196                 1.4700                 1.5160
 IR Inten    --     27.9242                 1.4019                 8.6687

                     73                     74                     75
                      A                      A                      A
 Frequencies --   1535.2254              1544.0677              1557.4573
 Red. masses --      1.0599                 1.0539                 2.3440
 Frc consts  --      1.4719                 1.4804                 3.3500
 IR Inten    --      7.7733                11.2721               100.7208

                     76                     77                     78
                      A                      A                      A
 Frequencies --   1647.0489              1665.3524              1783.2013
 Red. masses --      5.5128                 5.7637                10.8007
 Frc consts  --      8.8112                 9.4182                20.2349
 IR Inten    --     57.0384                66.0755               212.6014

                     79                     80                     81
                      A                      A                      A
 Frequencies --   1821.9342              3021.6722              3044.4447
 Red. masses --      7.8794                 1.0838                 1.0358
 Frc consts  --     15.4103                 5.8302                 5.6562
 IR Inten    --    553.8662                23.1849                28.2884

                     82                     83                     84
                      A                      A                      A
 Frequencies --   3053.7231              3054.4459              3088.2055
 Red. masses --      1.0356                 1.0381                 1.0600
 Frc consts  --      5.6898                 5.7065                 5.9561
 IR Inten    --     16.3643                 3.3977                35.9895

                     85                     86                     87
                      A                      A                      A
 Frequencies --   3108.0451              3113.8406              3119.1273
 Red. masses --      1.1021                 1.0998                 1.1027
 Frc consts  --      6.2724                 6.2830                 6.3209
 IR Inten    --     28.8784                 9.0554                 4.8388

                     88                     89                     90
                      A                      A                      A
 Frequencies --   3123.2821              3126.6846              3151.5131
 Red. masses --      1.1018                 1.1020                 1.1067
 Frc consts  --      6.3325                 6.3476                 6.4764
 IR Inten    --     52.4869                31.6974                13.4231

                     91                     92                     93
                      A                      A                      A
 Frequencies --   3171.9670              3178.2083              3204.0680
 Red. masses --      1.1014                 1.0885                 1.0923
 Frc consts  --      6.5293                 6.4780                 6.6070
 IR Inten    --     13.2626                11.3116                18.1845

                     94                     95                     96
                      A                      A                      A
 Frequencies --   3236.3267              3298.4938              3623.2822
 Red. masses --      1.0926                 1.0889                 1.0761
 Frc consts  --      6.7425                 6.9801                 8.3233
 IR Inten    --      3.4336                 2.1537                38.7628

 - Thermochemistry -
 -------------------
 Temperature   298.150 Kelvin.  Pressure   1.00000 Atm.
 Atom     1 has atomic number  6 and mass  12.00000

 Molecular mass:   235.12084 amu.
 Principal axes and moments of inertia in atomic units:
                           1         2         3
     Eigenvalues --  2719.638876479.085298700.15123
           X            0.99926   0.03840   0.00350
           Y           -0.03838   0.99925  -0.00435
           Z           -0.00367   0.00421   0.99998
 This molecule is an asymmetric top.
 Rotational symmetry number  1.
 Warning -- assumption of classical behavior for rotation
           may cause significant error
 Rotational temperatures (Kelvin)      0.03185     0.01337     0.00996
 Rotational constants (GHZ):           0.66360     0.27855     0.20744
 Zero-point vibrational energy     747574.3 (Joules/Mol)
                                  178.67454 (Kcal/Mol)
 Warning -- explicit consideration of  26 degrees of freedom as
           vibrations may cause significant error
 Vibrational temperatures:     16.26    26.70    75.91    78.53    91.42
          (Kelvin)            122.77   152.26   219.53   257.45   271.95
                              321.40   349.21   361.43   380.42   433.73
                              468.94   525.15   539.75   556.88   614.45
                              618.11   676.00   726.03   734.36   838.93
                              868.74   920.85   932.63  1010.95  1050.25
                             1070.09  1077.35  1169.29  1192.06  1265.28
                             1301.13  1323.34  1346.95  1362.45  1388.49
                             1398.16  1416.18  1419.41  1435.12  1470.74
                             1521.06  1562.60  1604.41  1626.18  1666.23
                             1733.61  1744.44  1749.86  1790.74  1864.61
                             1894.78  1926.00  1936.42  1965.79  1990.85
                             2017.59  2030.47  2058.74  2067.03  2093.18
                             2114.90  2157.62  2169.14  2178.57  2184.01
                             2190.40  2197.51  2208.85  2221.57  2240.83
                             2369.74  2396.07  2565.63  2621.36  4347.51
                             4380.28  4393.63  4394.67  4443.24  4471.78
                             4480.12  4487.73  4493.71  4498.60  4534.32
                             4563.75  4572.73  4609.94  4656.35  4745.80
                             5213.09

 Zero-point correction=                           0.284736 (Hartree/Particle)
 Thermal correction to Energy=                    0.302145
 Thermal correction to Enthalpy=                  0.303089
 Thermal correction to Gibbs Free Energy=         0.236519
 Sum of electronic and zero-point Energies=           -785.857781
 Sum of electronic and thermal Energies=              -785.840371
 Sum of electronic and thermal Enthalpies=            -785.839427
 Sum of electronic and thermal Free Energies=         -785.905998

                     E (Thermal)             CV                S
                      KCal/Mol        Cal/Mol-Kelvin    Cal/Mol-Kelvin
 Total                  189.599             64.188            140.110
 Electronic               0.000              0.000              0.000
 Translational            0.889              2.981             42.266
 Rotational               0.889              2.981             33.394
 Vibrational            187.821             58.226             64.450
 Vibration     1          0.593              1.987              7.768
 Vibration     2          0.593              1.986              6.783
 Vibration     3          0.596              1.977              4.711
 Vibration     4          0.596              1.976              4.644
 Vibration     5          0.597              1.972              4.344
 Vibration     6          0.601              1.959              3.764
 Vibration     7          0.605              1.945              3.344
 Vibration     8          0.619              1.900              2.640
 Vibration     9          0.629              1.868              2.339
 Vibration    10          0.633              1.855              2.237
 Vibration    11          0.649              1.805              1.932
 Vibration    12          0.659              1.775              1.783
 Vibration    13          0.663              1.761              1.722
 Vibration    14          0.671              1.738              1.633
 Vibration    15          0.693              1.671              1.409
 Vibration    16          0.710              1.624              1.280
 Vibration    17          0.738              1.544              1.101
 Vibration    18          0.746              1.523              1.059
 Vibration    19          0.755              1.498              1.011
 Vibration    20          0.789              1.411              0.868
 Vibration    21          0.791              1.406              0.860
 Vibration    22          0.827              1.317              0.738
 Vibration    23          0.860              1.240              0.647
 Vibration    24          0.866              1.227              0.633
 Vibration    25          0.940              1.068              0.480
 Vibration    26          0.962              1.024              0.443

 Optimization completed.
    -- Stationary point found.
 Normal termination of Gaussian 16 at Fri Dec 11 13:31:52 2020.

 ----------------------------------------------------------------------
 # B3LYP/6-311++G(d,p) empiricaldispersion=gd3bj scf=xqc pop=npa geom=c
 heck
 ----------------------------------------------------------------------

 --------------------------------------
 CID_12553767_JID_7717_Energie_neutraal
 --------------------------------------
 Structure from the checkpoint file:  "JID_7717.chk"
 Charge =  0 Multiplicity = 1

 SCF Done:  E(RB3LYP) =  -786.366198870     A.U. after   15 cycles
 Normal termination of Gaussian 16 at Fri Dec 11 13:36:34 2020.

 ----------------------------------------------------------------------
 # B3LYP/6-311++G(d,p) empiricaldispersion=gd3bj scf=xqc pop=npa geom=c
 heck
 ----------------------------------------------------------------------

 ------------------------------------
 CID_12553767_JID_7717_Energie_kation
 ------------------------------------
 Structure from the checkpoint file:  "JID_7717.chk"
 Charge =  1 Multiplicity = 2

 SCF Done:  E(UB3LYP) =  -786.060688372     A.U. after   28 cycles
 Normal termination of Gaussian 16 at Fri Dec 11 13:48:20 2020.
 Gaussian 16:  ES64L-G16RevA.03 25-Dec-2016

 ----------------------------------------------------------------------
 # B3LYP/6-311++G(d,p) empiricaldispersion=gd3bj scf=xqc pop=npa geom=c
 heck
 ----------------------------------------------------------------------

 -----------------------------------
 CID_12553767_JID_7717_Energie_anion
 -----------------------------------
 Structure from the checkpoint file:  "JID_7717.chk"
 Charge = -1 Multiplicity = 2

                         Standard orientation:
 ---------------------------------------------------------------------
 Center     Atomic      Atomic             Coordinates (Angstroms)
 Number     Number       Type             X           Y           Z
 ---------------------------------------------------------------------
      1          6           0        3.188821    0.490882    1.563055
      2          6           0        3.159135    1.175312    0.192020
      3          6           0        4.505928    1.829579   -0.141153
      4          6           0        2.794700    0.194224   -0.921071
      5          8           0        1.493738   -0.388368   -0.682474
      6          6           0        1.467751   -1.675209   -0.271864
      7          8           0        2.436420   -2.405150   -0.175924
      8          7           0        0.196050   -2.108555    0.029815
      9          6           0       -1.060615   -1.471718    0.036290
     10          6           0       -2.190739   -2.296759    0.144486
     11          6           0       -3.469934   -1.747107    0.189586
     12          6           0       -3.646594   -0.369530    0.122323
     13          6           0       -2.525094    0.462282    0.016078
     14          6           0       -1.237263   -0.084065   -0.021310
     15          6           0       -2.743181    1.943661   -0.049323
     16          8           0       -3.870859    2.410338   -0.006850
     17          6           0       -1.532401    2.853404   -0.170641
     18          1           0        3.902806   -0.340523    1.569986
     19          1           0        2.205983    0.090169    1.830892
     20          1           0        3.482837    1.202425    2.342413
     21          1           0        2.387270    1.958657    0.210255
     22          1           0        5.308318    1.081838   -0.161968
     23          1           0        4.483989    2.327851   -1.117578
     24          1           0        4.769056    2.579078    0.612458
     25          1           0        2.710890    0.705882   -1.884051
     26          1           0        3.528811   -0.610425   -0.998585
     27          1           0        0.195967   -3.091798    0.264676
     28          1           0       -2.062073   -3.375760    0.189793
     29          1           0       -4.329409   -2.405715    0.273233
     30          1           0       -4.630822    0.083542    0.150410
     31          1           0       -0.372195    0.554221   -0.098660
     32          1           0       -0.859339    2.726208    0.685522
     33          1           0       -0.956838    2.621675   -1.074383
     34          1           0       -1.875078    3.888268   -0.212005
 ---------------------------------------------------------------------

 SCF Done:  E(UB3LYP) =  -786.377939463     A.U. after   33 cycles
 SCF Done:  E(UB3LYP) =  -786.377939463     a.u. after    1 cycles

 The electronic state is 2-A.
 Alpha  occ. eigenvalues --  -19.06903 -18.99996 -18.92926 -14.24507 -10.22451
 Alpha  occ. eigenvalues --  -10.13614 -10.09560 -10.09021 -10.08462 -10.07628
 Alpha  occ. eigenvalues --  -10.07251 -10.04006 -10.03341 -10.03334 -10.02938
 Alpha  occ. eigenvalues --  -10.02288 -10.02183  -1.01519  -0.92454  -0.87031
 Alpha  occ. eigenvalues --   -0.83605  -0.72800  -0.71434  -0.63502  -0.62363
 Alpha  occ. eigenvalues --   -0.60898  -0.60586  -0.58822  -0.52321  -0.49466
 Alpha  occ. eigenvalues --   -0.48811  -0.47566  -0.43530  -0.42247  -0.39754
 Alpha  occ. eigenvalues --   -0.37966  -0.37327  -0.36490  -0.35796  -0.34182
 Alpha  occ. eigenvalues --   -0.33544  -0.31806  -0.31174  -0.31062  -0.30291
 Alpha  occ. eigenvalues --   -0.30135  -0.30094  -0.27925  -0.27456  -0.26108
 Alpha  occ. eigenvalues --   -0.25970  -0.25424  -0.25367  -0.24463  -0.22146
 Alpha  occ. eigenvalues --   -0.21880  -0.21276  -0.20490  -0.19206  -0.18691
 Alpha  occ. eigenvalues --   -0.12540  -0.09970  -0.09195   0.04120
 Alpha virt. eigenvalues --    0.05550   0.07986   0.08280   0.08454   0.09111
 Alpha virt. eigenvalues --    0.10203   0.10509   0.10836   0.10952   0.11933
 Alpha virt. eigenvalues --    0.12191   0.12309   0.12858   0.13634   0.14178

  Beta  occ. eigenvalues --  -19.06904 -18.99998 -18.92438 -14.24510 -10.22449
  Beta  occ. eigenvalues --  -10.13612 -10.09556 -10.09062 -10.08445 -10.07337
  Beta  occ. eigenvalues --  -10.07242 -10.04040 -10.03368 -10.03037 -10.02804
  Beta  occ. eigenvalues --  -10.02165 -10.02021  -1.01520  -0.92458  -0.86140
  Beta  occ. eigenvalues --   -0.83596  -0.72775  -0.71145  -0.63287  -0.62023
  Beta  occ. eigenvalues --   -0.60709  -0.60549  -0.58607  -0.52212  -0.49118
  Beta  occ. eigenvalues --   -0.48543  -0.47502  -0.43334  -0.42096  -0.39736
  Beta  occ. eigenvalues --   -0.37824  -0.37283  -0.36274  -0.35595  -0.34097
  Beta  occ. eigenvalues --   -0.33504  -0.31654  -0.31078  -0.30886  -0.30231
  Beta  occ. eigenvalues --   -0.30073  -0.29451  -0.27875  -0.27425  -0.26011
  Beta  occ. eigenvalues --   -0.25738  -0.25204  -0.24994  -0.24434  -0.21855
  Beta  occ. eigenvalues --   -0.21263  -0.20504  -0.20290  -0.19175  -0.17634
  Beta  occ. eigenvalues --   -0.11139  -0.08938  -0.08733
  Beta virt. eigenvalues --    0.05763   0.08011   0.08269   0.08399   0.09098
  Beta virt. eigenvalues --    0.09873   0.10213   0.10459   0.10925   0.11021
  Beta virt. eigenvalues --    0.11929   0.12166   0.12271   0.12779   0.13601

 Mulliken charges and spin densities:
               1          2
     1  C   -0.386124  -0.250727
     2  C    0.016035   0.566934
     3  C   -0.096792  -0.526108
     4  C   -0.307493  -0.274681
     5  O   -0.025782   0.005680
     6  C    0.121800  -0.006257
     7  O   -0.314593   0.001396
     8  N   -0.261958   0.009027
     9  C    0.435631  -0.078293
    10  C   -0.239164   0.260491
    11  C   -0.478573  -0.024491
    12  C    0.007557   0.172600
    13  C    0.860946   0.147661
    14  C   -0.851455   0.027205
    15  C   -0.520435   0.176181
    16  O   -0.389552   0.176262
    17  C   -0.378486  -0.040171
    18  H    0.131057   0.025774
    19  H    0.169112  -0.009684
    20  H    0.009606   0.126138
    21  H    0.144899   0.021293
    22  H    0.059694   0.070983
    23  H   -0.002341   0.131383
    24  H   -0.093546   0.237640
    25  H    0.169083  -0.013255
    26  H    0.197199   0.022445
    27  H    0.311793  -0.001179
    28  H    0.074880  -0.021700
    29  H    0.121446   0.001219
    30  H    0.163133  -0.008166
    31  H    0.004452  -0.003066
    32  H    0.061334   0.071106
    33  H    0.133251   0.004498
    34  H    0.153386   0.001861
 Sum of Mulliken charges =  -1.00000   1.00000

 Dipole moment (field-independent basis, Debye):
    X=              6.9619    Y=             -2.7578    Z=             -0.7054  Tot=              7.5213
 Quadrupole moment (field-independent basis, Debye-Ang):
   XX=           -175.0120   YY=           -135.1436   ZZ=           -113.8117
   XY=             18.5318   XZ=             -2.4758   YZ=             -2.8699

 Summary of Natural Population Analysis:

                                       Natural Population
                Natural  -----------------------------------------------
    Atom  No    Charge         Core      Valence    Rydberg      Total
 -----------------------------------------------------------------------
      C    1   -0.28768      0.99965     2.28278    0.00526     3.28768
      C    2   -0.13110      0.99962     2.11983    0.01165     3.13110
      C    3   -0.28390      0.99965     2.27954    0.00471     3.28390
      C    4   -0.01164      0.99952     2.00134    0.01078     3.01164
      O    5   -0.28622      0.99986     3.27759    0.00877     4.28622
      C    6    0.46127      0.99971     1.51508    0.02395     2.53873
      O    7   -0.34260      0.99987     3.33754    0.00519     4.34260
      N    8   -0.30559      0.99963     2.79777    0.00820     3.80559
      C    9    0.05876      0.99947     1.93167    0.01009     2.94124
      C   10   -0.06547      0.99954     2.05706    0.00887     3.06547
      C   11   -0.11433      0.99958     2.10549    0.00926     3.11433
      C   12   -0.06666      0.99953     2.05761    0.00951     3.06666
      C   13   -0.03198      0.99948     2.02341    0.00909     3.03198
      C   14   -0.08375      0.99950     2.07764    0.00662     3.08375
      C   15    0.30518      0.99965     1.67521    0.01995     2.69482
      O   16   -0.25741      0.99988     3.25107    0.00646     4.25741
      C   17   -0.33288      0.99964     2.32814    0.00510     3.33288
      H   18    0.09965      0.00000     0.39934    0.00102     0.40035
      H   19    0.10650      0.00000     0.39242    0.00107     0.39350
      H   20    0.09779      0.00000     0.40129    0.00092     0.40221
      H   21    0.09967      0.00000     0.39883    0.00150     0.40033
      H   22    0.09611      0.00000     0.40287    0.00103     0.40389
      H   23    0.09802      0.00000     0.40097    0.00101     0.40198
      H   24    0.10148      0.00000     0.39741    0.00111     0.39852
      H   25    0.08965      0.00000     0.40924    0.00112     0.41035
      H   26    0.09996      0.00000     0.39860    0.00144     0.40004
      H   27    0.19568      0.00000     0.30260    0.00172     0.30432
      H   28    0.08457      0.00000     0.41389    0.00154     0.41543
      H   29    0.09072      0.00000     0.40820    0.00108     0.40928
      H   30    0.10598      0.00000     0.39279    0.00123     0.39402
      H   31    0.10681      0.00000     0.39155    0.00164     0.39319
      H   32    0.10129      0.00000     0.39661    0.00210     0.39871
      H   33    0.10113      0.00000     0.39766    0.00121     0.39887
      H   34    0.10100      0.00000     0.39664    0.00236     0.39900
 =======================================================================
   * Total *    0.00000     16.99378    45.81968    0.18654    63.00000

 Normal termination of Gaussian 16 at Fri Dec 11 14:02:13 2020.
