 Gaussian 16, Revision A.03,

 -----------------------------------------------------------
 # opt freq B3LYP/6-31G(d) empiricaldispersion=gd3bj scf=xqc
 -----------------------------------------------------------

 -------------------------------
 CID_140011321_JID_5277_neutraal
 -------------------------------
 Symbolic Z-matrix:
 Charge =  0 Multiplicity = 1

 SCF Done:  E(RB3LYP) =  -1030.46111797     A.U. after   15 cycles
 SCF Done:  E(RB3LYP) =  -1030.46499252     A.U. after   13 cycles
 SCF Done:  E(RB3LYP) =  -1030.46335261     A.U. after   13 cycles
 SCF Done:  E(RB3LYP) =  -1030.46601150     A.U. after   12 cycles
 SCF Done:  E(RB3LYP) =  -1030.46622179     A.U. after   12 cycles
 SCF Done:  E(RB3LYP) =  -1030.46645306     A.U. after   12 cycles
 SCF Done:  E(RB3LYP) =  -1030.46666371     A.U. after   13 cycles
 SCF Done:  E(RB3LYP) =  -1030.46678877     A.U. after   11 cycles
 SCF Done:  E(RB3LYP) =  -1030.46689277     A.U. after   11 cycles
 SCF Done:  E(RB3LYP) =  -1030.46691441     A.U. after   10 cycles
 SCF Done:  E(RB3LYP) =  -1030.46692452     A.U. after    9 cycles
 SCF Done:  E(RB3LYP) =  -1030.46692487     A.U. after    8 cycles
 SCF Done:  E(RB3LYP) =  -1030.46692505     A.U. after    8 cycles
 SCF Done:  E(RB3LYP) =  -1030.46692503     A.U. after    7 cycles
 SCF Done:  E(RB3LYP) =  -1030.46692500     A.U. after    7 cycles
 Optimization completed.
    -- Stationary point found.
 Normal termination of Gaussian 16 at Thu Dec 10 15:23:30 2020.

 --------------------------------------------------------------------
 #N Geom=AllCheck Guess=TCheck SCRF=Check GenChk RB3LYP/6-31G(d) Freq
 --------------------------------------------------------------------

 Structure from the checkpoint file:  "JID_5277.chk"
 -------------------------------
 CID_140011321_JID_5277_neutraal
 -------------------------------
 Charge =  0 Multiplicity = 1

 SCF Done:  E(RB3LYP) =  -1030.46692500     A.U. after    1 cycles

  Exact polarizability: 189.178 -14.703 125.843  -7.705 -11.763 114.987
 Approx polarizability: 248.520 -35.472 199.207 -18.528 -25.286 210.746

                      1                      2                      3
                      A                      A                      A
 Frequencies --     14.7217                23.7825                47.9072
 Red. masses --     11.4579                 4.4504                 4.5790
 Frc consts  --      0.0015                 0.0015                 0.0062
 IR Inten    --      0.3265                 0.1265                 1.0346

                      4                      5                      6
                      A                      A                      A
 Frequencies --     54.4661                65.9617               112.9271
 Red. masses --      5.0958                 8.8557                 5.1448
 Frc consts  --      0.0089                 0.0227                 0.0387
 IR Inten    --      2.7812                 1.4805                 0.5319

                      7                      8                      9
                      A                      A                      A
 Frequencies --    128.2089               190.1985               203.8897
 Red. masses --      4.0370                 1.0539                 4.5364
 Frc consts  --      0.0391                 0.0225                 0.1111
 IR Inten    --      1.6392                 0.0730                 0.4176

                     10                     11                     12
                      A                      A                      A
 Frequencies --    256.7702               295.2463               321.4950
 Red. masses --      3.3557                 4.1090                 3.6016
 Frc consts  --      0.1304                 0.2110                 0.2193
 IR Inten    --      0.7549                 3.6987                 4.0857

                     13                     14                     15
                      A                      A                      A
 Frequencies --    359.7794               384.9318               396.6541
 Red. masses --      4.8160                 1.2107                 2.2757
 Frc consts  --      0.3673                 0.1057                 0.2110
 IR Inten    --     13.8369                24.1675                 4.1844

                     16                     17                     18
                      A                      A                      A
 Frequencies --    423.4606               432.4382               455.1953
 Red. masses --      3.1951                 4.6310                 6.0510
 Frc consts  --      0.3376                 0.5102                 0.7387
 IR Inten    --      1.1024                 1.6147                 2.0373

                     19                     20                     21
                      A                      A                      A
 Frequencies --    512.2742               528.0602               531.3062
 Red. masses --      3.0501                 1.7779                 2.7666
 Frc consts  --      0.4716                 0.2921                 0.4601
 IR Inten    --      7.2743                36.8828                 8.7334

                     22                     23                     24
                      A                      A                      A
 Frequencies --    568.7554               596.6090               655.4003
 Red. masses --      2.5557                 4.7872                 2.0224
 Frc consts  --      0.4871                 1.0039                 0.5118
 IR Inten    --     31.0795                 6.8149                78.5072

                     25                     26                     27
                      A                      A                      A
 Frequencies --    659.9173               710.9795               740.8190
 Red. masses --      3.7495                 3.5708                 3.4242
 Frc consts  --      0.9621                 1.0635                 1.1072
 IR Inten    --     23.1306                20.2457                 0.4568

                     28                     29                     30
                      A                      A                      A
 Frequencies --    768.0869               815.7013               840.0563
 Red. masses --      3.8424                 3.4429                 1.6286
 Frc consts  --      1.3356                 1.3497                 0.6771
 IR Inten    --      0.9617                 2.3152                11.3120

                     31                     32                     33
                      A                      A                      A
 Frequencies --    844.8259               858.6555               934.0207
 Red. masses --      1.3102                 1.5575                 3.8368
 Frc consts  --      0.5510                 0.6766                 1.9721
 IR Inten    --      2.0911                81.7522                 2.5297

                     34                     35                     36
                      A                      A                      A
 Frequencies --    935.7319               958.7334               968.2991
 Red. masses --      2.1299                 1.3609                 1.9716
 Frc consts  --      1.0988                 0.7370                 1.0892
 IR Inten    --     19.7436                 0.9868                11.5385

                     37                     38                     39
                      A                      A                      A
 Frequencies --    970.5339              1030.7982              1039.3850
 Red. masses --      1.4468                 2.1164                 1.5929
 Frc consts  --      0.8030                 1.3250                 1.0139
 IR Inten    --      4.5985                33.4027                37.6179

                     40                     41                     42
                      A                      A                      A
 Frequencies --   1042.6982              1068.2499              1073.4356
 Red. masses --      2.6698                 1.7151                 2.5531
 Frc consts  --      1.7102                 1.1532                 1.7333
 IR Inten    --      4.4839                 7.8728               134.8891

                     43                     44                     45
                      A                      A                      A
 Frequencies --   1150.3870              1203.1601              1219.9104
 Red. masses --      1.3711                 1.2183                 1.1458
 Frc consts  --      1.0691                 1.0391                 1.0047
 IR Inten    --      9.2471                 9.9801                 3.5637

                     46                     47                     48
                      A                      A                      A
 Frequencies --   1229.5295              1248.6378              1265.7158
 Red. masses --      1.5657                 1.7973                 2.4169
 Frc consts  --      1.3945                 1.6510                 2.2812
 IR Inten    --      5.5836                 0.4378                22.7823

                     49                     50                     51
                      A                      A                      A
 Frequencies --   1348.4160              1351.6537              1366.2661
 Red. masses --      2.9774                 1.7665                 2.5764
 Frc consts  --      3.1896                 1.9015                 2.8335
 IR Inten    --    172.4555               121.0255                93.8682

                     52                     53                     54
                      A                      A                      A
 Frequencies --   1381.1840              1395.5885              1426.8945
 Red. masses --      1.4559                 1.4593                 1.4014
 Frc consts  --      1.6364                 1.6745                 1.6811
 IR Inten    --      6.0150                 5.2335                96.3720

                     55                     56                     57
                      A                      A                      A
 Frequencies --   1448.2834              1486.0355              1502.3041
 Red. masses --      2.1590                 1.0920                 1.1173
 Frc consts  --      2.6682                 1.4208                 1.4857
 IR Inten    --      9.6411                13.2654                29.6325

                     58                     59                     60
                      A                      A                      A
 Frequencies --   1506.9413              1516.9152              1517.5485
 Red. masses --      1.7736                 1.1098                 1.1235
 Frc consts  --      2.3730                 1.5046                 1.5244
 IR Inten    --      6.2861                15.1626                10.6163

                     61                     62                     63
                      A                      A                      A
 Frequencies --   1570.1954              1637.7800              1677.4799
 Red. masses --      2.6915                 5.9446                 5.8743
 Frc consts  --      3.9098                 9.3947                 9.7391
 IR Inten    --    123.5462                 3.7496                36.0473

                     64                     65                     66
                      A                      A                      A
 Frequencies --   1794.3630              1813.3897              2700.2673
 Red. masses --      7.9071                11.1113                 1.0383
 Frc consts  --     15.0000                21.5278                 4.4604
 IR Inten    --    489.9841               215.2313                 3.1719

                     67                     68                     69
                      A                      A                      A
 Frequencies --   3045.6392              3069.0711              3069.6302
 Red. masses --      1.0646                 1.0395                 1.0625
 Frc consts  --      5.8181                 5.7688                 5.8989
 IR Inten    --     14.7495                 2.8058                29.0511

                     70                     71                     72
                      A                      A                      A
 Frequencies --   3101.3374              3121.5448              3137.9070
 Red. masses --      1.0990                 1.1009                 1.0966
 Frc consts  --      6.2281                 6.3201                 6.3617
 IR Inten    --      6.2115                11.7365                 8.2846

                     73                     74                     75
                      A                      A                      A
 Frequencies --   3174.2368              3177.8725              3189.3795
 Red. masses --      1.1039                 1.0895                 1.0891
 Frc consts  --      6.5536                 6.4824                 6.5275
 IR Inten    --     12.6619                15.3653                 9.7325

                     76                     77                     78
                      A                      A                      A
 Frequencies --   3216.0668              3229.1344              3581.4314
 Red. masses --      1.0932                 1.0919                 1.0754
 Frc consts  --      6.6618                 6.7085                 8.1268
 IR Inten    --      5.4004                 8.8108                23.0540

 - Thermochemistry -
 -------------------
 Temperature   298.150 Kelvin.  Pressure   1.00000 Atm.
 Atom     1 has atomic number  6 and mass  12.00000

 Molecular mass:   223.06670 amu.
 Principal axes and moments of inertia in atomic units:
                           1         2         3
     Eigenvalues --  1481.265958549.421279002.16028
           X            0.99999   0.00146  -0.00303
           Y           -0.00167   0.99742  -0.07180
           Z            0.00292   0.07181   0.99741
 This molecule is an asymmetric top.
 Rotational symmetry number  1.
 Warning -- assumption of classical behavior for rotation
           may cause significant error
 Rotational temperatures (Kelvin)      0.05847     0.01013     0.00962
 Rotational constants (GHZ):           1.21838     0.21110     0.20048
 Zero-point vibrational energy     584336.7 (Joules/Mol)
                                  139.65982 (Kcal/Mol)
 Warning -- explicit consideration of  23 degrees of freedom as
           vibrations may cause significant error
 Vibrational temperatures:     21.18    34.22    68.93    78.36    94.90
          (Kelvin)            162.48   184.46   273.65   293.35   369.44
                              424.79   462.56   517.64   553.83   570.70
                              609.27   622.18   654.92   737.05   759.76
                              764.43   818.31   858.39   942.97   949.47
                             1022.94  1065.87  1105.11  1173.61  1208.65
                             1215.52  1235.41  1343.85  1346.31  1379.40
                             1393.17  1396.38  1483.09  1495.44  1500.21
                             1536.97  1544.43  1655.15  1731.08  1755.18
                             1769.02  1796.51  1821.08  1940.07  1944.73
                             1965.75  1987.22  2007.94  2052.98  2083.76
                             2138.07  2161.48  2168.15  2182.50  2183.41
                             2259.16  2356.40  2413.52  2581.69  2609.06
                             3885.08  4382.00  4415.71  4416.51  4462.13
                             4491.21  4514.75  4567.02  4572.25  4588.81
                             4627.20  4646.00  5152.88

 Zero-point correction=                           0.222562 (Hartree/Particle)
 Thermal correction to Energy=                    0.237641
 Thermal correction to Enthalpy=                  0.238586
 Thermal correction to Gibbs Free Energy=         0.177047
 Sum of electronic and zero-point Energies=          -1030.244363
 Sum of electronic and thermal Energies=             -1030.229284
 Sum of electronic and thermal Enthalpies=           -1030.228339
 Sum of electronic and thermal Free Energies=        -1030.289878

                     E (Thermal)             CV                S
                      KCal/Mol        Cal/Mol-Kelvin    Cal/Mol-Kelvin
 Total                  149.122             55.632            129.519
 Electronic               0.000              0.000              0.000
 Translational            0.889              2.981             42.110
 Rotational               0.889              2.981             33.099
 Vibrational            147.345             49.671             54.310
 Vibration     1          0.593              1.986              7.243
 Vibration     2          0.593              1.985              6.290
 Vibration     3          0.595              1.978              4.902
 Vibration     4          0.596              1.976              4.648
 Vibration     5          0.597              1.971              4.270
 Vibration     6          0.607              1.939              3.218
 Vibration     7          0.611              1.925              2.973
 Vibration     8          0.634              1.853              2.226
 Vibration     9          0.640              1.834              2.098
 Vibration    10          0.666              1.751              1.684
 Vibration    11          0.689              1.683              1.444
 Vibration    12          0.707              1.632              1.302
 Vibration    13          0.734              1.555              1.123
 Vibration    14          0.754              1.502              1.020
 Vibration    15          0.763              1.477              0.975
 Vibration    16          0.786              1.419              0.880
 Vibration    17          0.793              1.400              0.851
 Vibration    18          0.814              1.349              0.780
 Vibration    19          0.867              1.223              0.628
 Vibration    20          0.883              1.188              0.592
 Vibration    21          0.886              1.181              0.584
 Vibration    22          0.925              1.099              0.507
 Vibration    23          0.954              1.039              0.456

 Optimization completed.
    -- Stationary point found.
 Normal termination of Gaussian 16 at Thu Dec 10 15:31:32 2020.

 ----------------------------------------------------------------------
 # B3LYP/6-311++G(d,p) empiricaldispersion=gd3bj scf=xqc pop=npa geom=c
 heck
 ----------------------------------------------------------------------

 ---------------------------------------
 CID_140011321_JID_5277_Energie_neutraal
 ---------------------------------------
 Structure from the checkpoint file:  "JID_5277.chk"
 Charge =  0 Multiplicity = 1

 SCF Done:  E(RB3LYP) =  -1030.67816649     A.U. after   15 cycles
 Normal termination of Gaussian 16 at Thu Dec 10 15:35:03 2020.

 ----------------------------------------------------------------------
 # B3LYP/6-311++G(d,p) empiricaldispersion=gd3bj scf=xqc pop=npa geom=c
 heck
 ----------------------------------------------------------------------

 -------------------------------------
 CID_140011321_JID_5277_Energie_kation
 -------------------------------------
 Structure from the checkpoint file:  "JID_5277.chk"
 Charge =  1 Multiplicity = 2

 SCF Done:  E(UB3LYP) =  -1030.37802046     A.U. after   29 cycles
 Normal termination of Gaussian 16 at Thu Dec 10 15:47:01 2020.
 Gaussian 16:  ES64L-G16RevA.03 25-Dec-2016

 ----------------------------------------------------------------------
 # B3LYP/6-311++G(d,p) empiricaldispersion=gd3bj scf=xqc pop=npa geom=c
 heck
 ----------------------------------------------------------------------

 ------------------------------------
 CID_140011321_JID_5277_Energie_anion
 ------------------------------------
 Structure from the checkpoint file:  "JID_5277.chk"
 Charge = -1 Multiplicity = 2

                         Standard orientation:
 ---------------------------------------------------------------------
 Center     Atomic      Atomic             Coordinates (Angstroms)
 Number     Number       Type             X           Y           Z
 ---------------------------------------------------------------------
      1          6           0        4.571322    0.917572   -0.456830
      2          6           0        4.327011   -0.543570   -0.132570
      3          8           0        5.236395   -1.358905   -0.085031
      4          7           0        3.030710   -0.951013    0.130994
      5          6           0        1.821261   -0.224471    0.180642
      6          6           0        0.914008   -0.493647    1.214419
      7          6           0       -0.303368    0.175996    1.280992
      8          6           0       -0.645123    1.145954    0.329872
      9          6           0        0.264542    1.404118   -0.701004
     10          6           0        1.474839    0.721090   -0.792470
     11          6           0       -1.980412    1.852517    0.375124
     12          6           0       -3.059042    1.123581   -0.447188
     13          6           0       -3.461495   -0.199068    0.184963
     14          8           0       -3.505554   -0.397381    1.375245
     15         16           0       -3.918841   -1.461645   -1.033414
     16          1           0        5.603931    1.141918   -0.184610
     17          1           0        3.887539    1.590305    0.066564
     18          1           0        4.461878    1.090955   -1.533247
     19          1           0        2.999779   -1.909495    0.459448
     20          1           0        1.175620   -1.224815    1.974722
     21          1           0       -0.998963   -0.052248    2.082246
     22          1           0        0.017018    2.142079   -1.460776
     23          1           0        2.139225    0.908177   -1.627751
     24          1           0       -2.331848    1.938151    1.407555
     25          1           0       -1.878802    2.868847   -0.021379
     26          1           0       -3.972821    1.732244   -0.495743
     27          1           0       -2.725259    0.962759   -1.477740
     28          1           0       -4.278784   -2.375605   -0.109047
 ---------------------------------------------------------------------

 SCF Done:  E(UB3LYP) =  -1030.67633762     A.U. after   33 cycles
 SCF Done:  E(UB3LYP) =  -1030.67633762     a.u. after    1 cycles

 The electronic state is 2-A.
 Alpha  occ. eigenvalues --  -88.74781 -18.99716 -18.99691 -14.25184 -10.18416
 Alpha  occ. eigenvalues --  -10.15261 -10.11335 -10.08648 -10.07458 -10.07258
 Alpha  occ. eigenvalues --  -10.07029 -10.06947 -10.06798 -10.06654 -10.06502
 Alpha  occ. eigenvalues --   -7.83533  -5.79881  -5.79475  -5.79013  -0.95074
 Alpha  occ. eigenvalues --   -0.93730  -0.84152  -0.75079  -0.69145  -0.66057
 Alpha  occ. eigenvalues --   -0.65525  -0.64409  -0.62369  -0.55417  -0.52062
 Alpha  occ. eigenvalues --   -0.50003  -0.47484  -0.43877  -0.42170  -0.39108
 Alpha  occ. eigenvalues --   -0.37761  -0.37061  -0.36152  -0.34718  -0.34598
 Alpha  occ. eigenvalues --   -0.33653  -0.33176  -0.32095  -0.31360  -0.31007
 Alpha  occ. eigenvalues --   -0.29259  -0.27801  -0.27435  -0.27264  -0.26078
 Alpha  occ. eigenvalues --   -0.25509  -0.23789  -0.23184  -0.19695  -0.17158
 Alpha  occ. eigenvalues --   -0.16029  -0.15602  -0.14655  -0.12439   0.04239
 Alpha virt. eigenvalues --    0.06463   0.07189   0.07908   0.08249   0.08471
 Alpha virt. eigenvalues --    0.08590   0.09154   0.10019   0.10449   0.10750
 Alpha virt. eigenvalues --    0.11231   0.11828   0.11919   0.12248   0.12994

  Beta  occ. eigenvalues --  -88.74783 -18.99667 -18.99484 -14.25208 -10.18356
  Beta  occ. eigenvalues --  -10.14962 -10.11252 -10.08646 -10.07480 -10.07261
  Beta  occ. eigenvalues --  -10.06957 -10.06884 -10.06811 -10.06577 -10.06479
  Beta  occ. eigenvalues --   -7.83534  -5.79887  -5.79482  -5.79011  -0.94982
  Beta  occ. eigenvalues --   -0.93301  -0.84097  -0.74969  -0.68967  -0.65915
  Beta  occ. eigenvalues --   -0.65433  -0.64313  -0.62262  -0.55269  -0.51982
  Beta  occ. eigenvalues --   -0.49814  -0.47426  -0.43816  -0.41743  -0.39032
  Beta  occ. eigenvalues --   -0.37641  -0.36916  -0.36010  -0.34476  -0.34427
  Beta  occ. eigenvalues --   -0.33370  -0.33021  -0.32029  -0.31315  -0.30878
  Beta  occ. eigenvalues --   -0.29096  -0.27663  -0.27135  -0.26673  -0.25936
  Beta  occ. eigenvalues --   -0.25308  -0.23688  -0.22919  -0.19501  -0.17108
  Beta  occ. eigenvalues --   -0.15764  -0.15292  -0.14504  -0.12088
  Beta virt. eigenvalues --    0.06668   0.07524   0.07835   0.08478   0.08685
  Beta virt. eigenvalues --    0.08769   0.08932   0.09774   0.10447   0.10778
  Beta virt. eigenvalues --    0.11032   0.11476   0.11904   0.12183   0.12504

 Mulliken charges and spin densities:
               1          2
     1  C   -0.285436  -0.172838
     2  C    0.101546   0.006656
     3  O   -0.364804   0.018978
     4  N   -0.166881   0.010988
     5  C   -0.145090  -0.313083
     6  C   -0.365845  -0.002119
     7  C   -0.785236   0.439074
     8  C    0.249396   0.692724
     9  C    0.364602  -0.688291
    10  C    0.031987   0.205029
    11  C    0.782084  -1.127892
    12  C    0.280244  -0.799412
    13  C   -0.061181   0.351183
    14  O   -0.305096   0.075932
    15  S   -0.187108  -0.029592
    16  H    0.152910   0.011683
    17  H    0.128273   0.040411
    18  H   -0.056476   0.231767
    19  H    0.288022  -0.001480
    20  H    0.136841  -0.001481
    21  H    0.194725   0.023331
    22  H   -0.368370   0.520438
    23  H    0.100011   0.055231
    24  H    0.126587   0.047191
    25  H   -0.422630   0.609974
    26  H   -0.604308   0.817942
    27  H    0.157068  -0.054037
    28  H    0.024167   0.031696
 Sum of Mulliken charges =  -1.00000   1.00000

 Dipole moment (field-independent basis, Debye):
    X=              3.0056    Y=             -3.1989    Z=              0.7872  Tot=              4.4594
 Quadrupole moment (field-independent basis, Debye-Ang):
   XX=           -193.6423   YY=           -130.6004   ZZ=           -115.3209
   XY=             20.3645   XZ=              2.7528   YZ=              1.1530

 Summary of Natural Population Analysis:

                                       Natural Population
                Natural  -----------------------------------------------
    Atom  No    Charge         Core      Valence    Rydberg      Total
 -----------------------------------------------------------------------
      C    1   -0.33644      0.99962     2.33187    0.00495     3.33644
      C    2    0.35043      0.99971     1.62850    0.02136     2.64957
      O    3   -0.32227      0.99988     3.31633    0.00607     4.32227
      N    4   -0.31523      0.99964     2.80592    0.00967     3.81523
      C    5    0.07614      0.99947     1.91367    0.01073     2.92386
      C    6   -0.09848      0.99953     2.09031    0.00864     3.09848
      C    7   -0.09550      0.99951     2.08675    0.00924     3.09550
      C    8   -0.00738      0.99950     1.99776    0.01011     3.00738
      C    9   -0.08217      0.99951     2.07306    0.00960     3.08217
      C   10   -0.11805      0.99953     2.10989    0.00863     3.11805
      C   11   -0.19647      0.99960     2.18514    0.01173     3.19647
      C   12   -0.23396      0.99955     2.22484    0.00956     3.23396
      C   13    0.26101      0.99969     1.71360    0.02570     2.73899
      O   14   -0.27583      0.99986     3.26795    0.00802     4.27583
      S   15   -0.04444      4.99958     3.03111    0.01375     8.04444
      H   16    0.10997      0.00000     0.38921    0.00082     0.39003
      H   17    0.11216      0.00000     0.38704    0.00080     0.38784
      H   18    0.11161      0.00000     0.38716    0.00123     0.38839
      H   19    0.19615      0.00000     0.30231    0.00155     0.30385
      H   20    0.09614      0.00000     0.40300    0.00086     0.40386
      H   21    0.10843      0.00000     0.39027    0.00130     0.39157
      H   22    0.09998      0.00000     0.39894    0.00107     0.40002
      H   23    0.10042      0.00000     0.39808    0.00150     0.39958
      H   24    0.10775      0.00000     0.39097    0.00127     0.39225
      H   25    0.10667      0.00000     0.39050    0.00283     0.39333
      H   26    0.12268      0.00000     0.37142    0.00591     0.37732
      H   27    0.10280      0.00000     0.39604    0.00117     0.39720
      H   28    0.06388      0.00000     0.43303    0.00309     0.43612
 =======================================================================
   * Total *   -0.00000     18.99418    39.81467    0.19114    59.00000

 Normal termination of Gaussian 16 at Thu Dec 10 16:01:03 2020.
