 Gaussian 16, Revision A.03,

 -----------------------------------------------------------
 # opt freq B3LYP/6-31G(d) empiricaldispersion=gd3bj scf=xqc
 -----------------------------------------------------------

 -------------------------------
 CID_141115403_JID_3992_neutraal
 -------------------------------
 Symbolic Z-matrix:
 Charge =  0 Multiplicity = 1

 SCF Done:  E(RB3LYP) =  -628.533889193     A.U. after   15 cycles
 SCF Done:  E(RB3LYP) =  -628.540901623     A.U. after   13 cycles
 SCF Done:  E(RB3LYP) =  -628.541793091     A.U. after   12 cycles
 SCF Done:  E(RB3LYP) =  -628.542353145     A.U. after   12 cycles
 SCF Done:  E(RB3LYP) =  -628.542864702     A.U. after   12 cycles
 SCF Done:  E(RB3LYP) =  -628.543212747     A.U. after   12 cycles
 SCF Done:  E(RB3LYP) =  -628.543355030     A.U. after   13 cycles
 SCF Done:  E(RB3LYP) =  -628.543613766     A.U. after   12 cycles
 SCF Done:  E(RB3LYP) =  -628.543863242     A.U. after   13 cycles
 SCF Done:  E(RB3LYP) =  -628.544894308     A.U. after   16 cycles
 SCF Done:  E(RB3LYP) =  -628.547644793     A.U. after    9 cycles
 SCF Done:  E(RB3LYP) =  -628.547648821     A.U. after    9 cycles
 SCF Done:  E(RB3LYP) =  -628.547650238     A.U. after    9 cycles
 SCF Done:  E(RB3LYP) =  -628.547650522     A.U. after    8 cycles
 SCF Done:  E(RB3LYP) =  -628.547650785     A.U. after    8 cycles
 Optimization completed.
    -- Stationary point found.
 Normal termination of Gaussian 16 at Mon Dec 14 16:40:41 2020.

 --------------------------------------------------------------------
 #N Geom=AllCheck Guess=TCheck SCRF=Check GenChk RB3LYP/6-31G(d) Freq
 --------------------------------------------------------------------

 Structure from the checkpoint file:  "JID_3992.chk"
 -------------------------------
 CID_141115403_JID_3992_neutraal
 -------------------------------
 Charge =  0 Multiplicity = 1

 SCF Done:  E(RB3LYP) =  -628.547650785     A.U. after    1 cycles

  Exact polarizability: 150.970  -6.561  95.439  -9.303  -0.818  95.161
 Approx polarizability: 191.730  -6.922 135.294 -27.267  -2.059 162.200

                      1                      2                      3
                      A                      A                      A
 Frequencies --     39.9558                57.2898                71.8333
 Red. masses --      4.0148                 3.7905                 3.5276
 Frc consts  --      0.0038                 0.0073                 0.0107
 IR Inten    --      1.8930                 2.7097                 0.9805

                      4                      5                      6
                      A                      A                      A
 Frequencies --    101.4402               110.2637               129.2347
 Red. masses --      3.6991                 2.3881                 2.4231
 Frc consts  --      0.0224                 0.0171                 0.0238
 IR Inten    --      3.3956                 5.1353                 2.4781

                      7                      8                      9
                      A                      A                      A
 Frequencies --    132.3822               152.0382               192.1888
 Red. masses --      1.5979                 1.7555                 2.0590
 Frc consts  --      0.0165                 0.0239                 0.0448
 IR Inten    --      0.6968                 1.2682                 0.7253

                     10                     11                     12
                      A                      A                      A
 Frequencies --    210.1541               230.5615               245.6714
 Red. masses --      1.4168                 1.8123                 1.5422
 Frc consts  --      0.0369                 0.0568                 0.0548
 IR Inten    --      0.7574                 0.6825                 1.6842

                     13                     14                     15
                      A                      A                      A
 Frequencies --    269.1717               285.3312               312.5626
 Red. masses --      1.0738                 3.9970                 4.0065
 Frc consts  --      0.0458                 0.1917                 0.2306
 IR Inten    --      0.6769                 2.6971                14.3826

                     16                     17                     18
                      A                      A                      A
 Frequencies --    360.7052               371.8250               397.4573
 Red. masses --      2.5971                 3.3189                 3.3933
 Frc consts  --      0.1991                 0.2703                 0.3158
 IR Inten    --      2.0043                10.6416                 2.9577

                     19                     20                     21
                      A                      A                      A
 Frequencies --    415.5204               500.9786               503.4258
 Red. masses --      4.9658                 3.3220                 1.7869
 Frc consts  --      0.5052                 0.4912                 0.2668
 IR Inten    --      6.8201                 2.1522                 0.5220

                     22                     23                     24
                      A                      A                      A
 Frequencies --    533.9828               567.8553               681.8301
 Red. masses --      4.6785                 4.0913                 4.7916
 Frc consts  --      0.7860                 0.7773                 1.3124
 IR Inten    --      0.6385                 1.9242                 3.1823

                     25                     26                     27
                      A                      A                      A
 Frequencies --    731.6354               777.3809               811.8375
 Red. masses --      6.2061                 7.4250                 4.1350
 Frc consts  --      1.9573                 2.6437                 1.6057
 IR Inten    --      1.5673                 6.6996                16.4215

                     28                     29                     30
                      A                      A                      A
 Frequencies --    900.9655               929.0037               957.5005
 Red. masses --      9.3912                 4.6335                 3.8708
 Frc consts  --      4.4914                 2.3561                 2.0909
 IR Inten    --      4.6514                13.5049                71.6670

                     31                     32                     33
                      A                      A                      A
 Frequencies --    985.9963              1035.5780              1044.9874
 Red. masses --      1.3709                 1.0740                 1.7264
 Frc consts  --      0.7853                 0.6786                 1.1107
 IR Inten    --     23.6220                17.8497               135.3155

                     34                     35                     36
                      A                      A                      A
 Frequencies --   1057.1703              1092.6577              1097.0155
 Red. masses --      2.0043                 1.4207                 1.4121
 Frc consts  --      1.3198                 0.9994                 1.0012
 IR Inten    --     44.4318                 9.8202                 4.3145

                     37                     38                     39
                      A                      A                      A
 Frequencies --   1140.7138              1144.7696              1184.7413
 Red. masses --      1.2294                 1.2233                 1.4699
 Frc consts  --      0.9426                 0.9445                 1.2156
 IR Inten    --      3.9204                 2.9594                46.3149

                     40                     41                     42
                      A                      A                      A
 Frequencies --   1187.2900              1189.5289              1274.2323
 Red. masses --      1.3599                 1.9397                 4.0108
 Frc consts  --      1.1294                 1.6171                 3.8369
 IR Inten    --     15.3935                56.3462                35.1379

                     43                     44                     45
                      A                      A                      A
 Frequencies --   1280.6541              1288.0386              1321.8168
 Red. masses --      5.0323                 4.9013                 1.3037
 Frc consts  --      4.8627                 4.7909                 1.3420
 IR Inten    --    118.0031               193.9244                 6.8617

                     46                     47                     48
                      A                      A                      A
 Frequencies --   1370.5849              1447.2255              1456.6787
 Red. masses --      2.9473                 1.8980                 1.2348
 Frc consts  --      3.2620                 2.3422                 1.5438
 IR Inten    --      1.9227               185.8103                31.0789

                     49                     50                     51
                      A                      A                      A
 Frequencies --   1462.5999              1469.3669              1485.1259
 Red. masses --      1.1571                 1.1621                 1.2038
 Frc consts  --      1.4584                 1.4783                 1.5644
 IR Inten    --      5.4519                 9.7743                14.6607

                     52                     53                     54
                      A                      A                      A
 Frequencies --   1506.4293              1507.9755              1511.0358
 Red. masses --      1.0685                 1.1517                 1.1103
 Frc consts  --      1.4286                 1.5430                 1.4937
 IR Inten    --     24.3971                20.7821                15.0509

                     55                     56                     57
                      A                      A                      A
 Frequencies --   1520.2666              1525.7336              1531.8449
 Red. masses --      1.0741                 1.0521                 1.0541
 Frc consts  --      1.4626                 1.4429                 1.4574
 IR Inten    --     18.9858                 5.6134                11.6404

                     58                     59                     60
                      A                      A                      A
 Frequencies --   1533.0991              1547.0413              1576.4332
 Red. masses --      1.0510                 1.1426                 1.4725
 Frc consts  --      1.4555                 1.6111                 2.1561
 IR Inten    --     18.4146                 9.5127               118.2181

                     61                     62                     63
                      A                      A                      A
 Frequencies --   1638.9022              1703.0902              1799.1602
 Red. masses --      5.4281                 4.5823                10.7799
 Frc consts  --      8.5902                 7.8308                20.5592
 IR Inten    --    203.1681                14.9008               173.2606

                     64                     65                     66
                      A                      A                      A
 Frequencies --   3011.6498              3024.2048              3027.3651
 Red. masses --      1.0499                 1.0392                 1.0451
 Frc consts  --      5.6107                 5.5999                 5.6434
 IR Inten    --     69.5608                30.6260               123.2511

                     67                     68                     69
                      A                      A                      A
 Frequencies --   3031.5322              3073.8982              3078.9773
 Red. masses --      1.0410                 1.1018                 1.1042
 Frc consts  --      5.6369                 6.1340                 6.1674
 IR Inten    --     49.4299                66.4283                14.0333

                     70                     71                     72
                      A                      A                      A
 Frequencies --   3080.9659              3086.9201              3169.4910
 Red. masses --      1.0910                 1.0973                 1.0977
 Frc consts  --      6.1019                 6.1606                 6.4968
 IR Inten    --     47.2795                32.7353                 8.1871

                     73                     74                     75
                      A                      A                      A
 Frequencies --   3174.3596              3177.5975              3178.1735
 Red. masses --      1.0964                 1.0590                 1.0969
 Frc consts  --      6.5093                 6.3000                 6.5279
 IR Inten    --     12.6615                 6.1599                 3.8190

                     76                     77                     78
                      A                      A                      A
 Frequencies --   3178.3714              3208.1725              3268.1176
 Red. masses --      1.0969                 1.0939                 1.1159
 Frc consts  --      6.5288                 6.6335                 7.0224
 IR Inten    --      5.9814                 6.6943                 7.5845

 - Thermochemistry -
 -------------------
 Temperature   298.150 Kelvin.  Pressure   1.00000 Atm.
 Atom     1 has atomic number  6 and mass  12.00000

 Molecular mass:   185.11643 amu.
 Principal axes and moments of inertia in atomic units:
                           1         2         3
     Eigenvalues --  1277.896933351.310543784.21026
           X            0.99988  -0.01372  -0.00731
           Y            0.01367   0.99989  -0.00601
           Z            0.00739   0.00591   0.99996
 This molecule is an asymmetric top.
 Rotational symmetry number  1.
 Warning -- assumption of classical behavior for rotation
           may cause significant error
 Rotational temperatures (Kelvin)      0.06778     0.02584     0.02289
 Rotational constants (GHZ):           1.41227     0.53852     0.47691
 Zero-point vibrational energy     620081.7 (Joules/Mol)
                                  148.20308 (Kcal/Mol)
 Warning -- explicit consideration of  23 degrees of freedom as
           vibrations may cause significant error
 Vibrational temperatures:     57.49    82.43   103.35   145.95   158.64
          (Kelvin)            185.94   190.47   218.75   276.52   302.36
                              331.73   353.47   387.28   410.53   449.71
                              518.97   534.97   571.85   597.84   720.80
                              724.32   768.28   817.02   981.00  1052.66
                             1118.48  1168.05  1296.29  1336.63  1377.63
                             1418.63  1489.97  1503.50  1521.03  1572.09
                             1578.36  1641.23  1647.07  1704.58  1708.25
                             1711.47  1833.34  1842.58  1853.20  1901.80
                             1971.97  2082.23  2095.84  2104.35  2114.09
                             2136.76  2167.42  2169.64  2174.04  2187.32
                             2195.19  2203.98  2205.79  2225.85  2268.14
                             2358.01  2450.37  2588.59  4333.09  4351.16
                             4355.70  4361.70  4422.65  4429.96  4432.82
                             4441.39  4560.19  4567.20  4571.85  4572.68
                             4572.97  4615.84  4702.09

 Zero-point correction=                           0.236177 (Hartree/Particle)
 Thermal correction to Energy=                    0.251396
 Thermal correction to Enthalpy=                  0.252340
 Thermal correction to Gibbs Free Energy=         0.193881
 Sum of electronic and zero-point Energies=           -628.311474
 Sum of electronic and thermal Energies=              -628.296255
 Sum of electronic and thermal Enthalpies=            -628.295311
 Sum of electronic and thermal Free Energies=         -628.353770

                     E (Thermal)             CV                S
                      KCal/Mol        Cal/Mol-Kelvin    Cal/Mol-Kelvin
 Total                  157.753             53.896            123.037
 Electronic               0.000              0.000              0.000
 Translational            0.889              2.981             41.554
 Rotational               0.889              2.981             31.161
 Vibrational            155.976             47.934             50.322
 Vibration     1          0.594              1.981              5.261
 Vibration     2          0.596              1.975              4.548
 Vibration     3          0.598              1.967              4.102
 Vibration     4          0.604              1.948              3.426
 Vibration     5          0.606              1.941              3.264
 Vibration     6          0.612              1.924              2.957
 Vibration     7          0.612              1.921              2.911
 Vibration     8          0.619              1.900              2.647
 Vibration     9          0.634              1.851              2.207
 Vibration    10          0.642              1.825              2.042
 Vibration    11          0.652              1.794              1.875
 Vibration    12          0.660              1.770              1.761
 Vibration    13          0.674              1.730              1.602
 Vibration    14          0.683              1.701              1.501
 Vibration    15          0.701              1.650              1.349
 Vibration    16          0.735              1.553              1.119
 Vibration    17          0.744              1.530              1.072
 Vibration    18          0.764              1.476              0.972
 Vibration    19          0.779              1.437              0.907
 Vibration    20          0.856              1.248              0.656
 Vibration    21          0.859              1.242              0.650
 Vibration    22          0.889              1.175              0.578
 Vibration    23          0.924              1.101              0.508

                           ! Non-Optimized Parameters !
 Normal termination of Gaussian 16 at Mon Dec 14 16:47:50 2020.

 ----------------------------------------------------------------------
 # B3LYP/6-311++G(d,p) empiricaldispersion=gd3bj scf=xqc pop=npa geom=c
 heck
 ----------------------------------------------------------------------

 ---------------------------------------
 CID_141115403_JID_3992_Energie_neutraal
 ---------------------------------------
 Structure from the checkpoint file:  "JID_3992.chk"
 Charge =  0 Multiplicity = 1

 SCF Done:  E(RB3LYP) =  -628.728133738     A.U. after   15 cycles
 Normal termination of Gaussian 16 at Mon Dec 14 16:51:05 2020.

 ----------------------------------------------------------------------
 # B3LYP/6-311++G(d,p) empiricaldispersion=gd3bj scf=xqc pop=npa geom=c
 heck
 ----------------------------------------------------------------------

 -------------------------------------
 CID_141115403_JID_3992_Energie_kation
 -------------------------------------
 Structure from the checkpoint file:  "JID_3992.chk"
 Charge =  1 Multiplicity = 2

 SCF Done:  E(UB3LYP) =  -628.431903249     A.U. after   25 cycles
 Normal termination of Gaussian 16 at Mon Dec 14 16:58:46 2020.
 Gaussian 16:  ES64L-G16RevA.03 25-Dec-2016

 ----------------------------------------------------------------------
 # B3LYP/6-311++G(d,p) empiricaldispersion=gd3bj scf=xqc pop=npa geom=c
 heck
 ----------------------------------------------------------------------

 ------------------------------------
 CID_141115403_JID_3992_Energie_anion
 ------------------------------------
 Structure from the checkpoint file:  "JID_3992.chk"
 Charge = -1 Multiplicity = 2

                         Standard orientation:
 ---------------------------------------------------------------------
 Center     Atomic      Atomic             Coordinates (Angstroms)
 Number     Number       Type             X           Y           Z
 ---------------------------------------------------------------------
      1          6           0       -0.263676    2.025042    0.843091
      2          7           0        0.688295    1.255784    0.061466
      3          6           0        0.969725    1.775944   -1.270190
      4          6           0        0.927406   -0.076820    0.339726
      5          7           0        0.119655   -0.942685    0.894431
      6          8           0       -1.261445   -0.524526    0.783111
      7          6           0       -1.772257   -0.577555   -0.471665
      8          8           0       -1.126481   -0.776199   -1.482056
      9          6           0       -3.236016   -0.326723   -0.479132
     10          6           0       -3.984465   -0.137810    0.610372
     11          7           0        2.184624   -0.538900    0.011266
     12          6           0        3.366955    0.240454    0.349304
     13          6           0        2.395787   -1.974460   -0.097695
     14          1           0        0.107989    3.054117    0.927566
     15          1           0       -0.349832    1.597195    1.842225
     16          1           0       -1.264779    2.055885    0.391176
     17          1           0        1.450386    2.760052   -1.203623
     18          1           0        1.631742    1.087576   -1.794806
     19          1           0        0.042816    1.872729   -1.852101
     20          1           0       -3.663252   -0.312845   -1.477713
     21          1           0       -5.053319    0.040281    0.534278
     22          1           0       -3.550441   -0.161600    1.604418
     23          1           0        3.841501   -0.138806    1.267387
     24          1           0        4.100753    0.185867   -0.463421
     25          1           0        3.086647    1.282006    0.505675
     26          1           0        2.590347   -2.443508    0.877267
     27          1           0        1.505106   -2.430478   -0.529932
     28          1           0        3.258953   -2.150503   -0.749841
 ---------------------------------------------------------------------

 SCF Done:  E(UB3LYP) =  -628.723520194     A.U. after   33 cycles
 SCF Done:  E(UB3LYP) =  -628.723520193     a.u. after    1 cycles

 The electronic state is 2-A.
 Alpha  occ. eigenvalues --  -19.03945 -18.95540 -14.22667 -14.22210 -14.20989
 Alpha  occ. eigenvalues --  -10.15302 -10.14063 -10.09302 -10.08743 -10.08742
 Alpha  occ. eigenvalues --  -10.08611 -10.03476 -10.02978  -0.97702  -0.88758
 Alpha  occ. eigenvalues --   -0.86820  -0.81056  -0.72687  -0.64227  -0.61852
 Alpha  occ. eigenvalues --   -0.61026  -0.58945  -0.54245  -0.50109  -0.45377
 Alpha  occ. eigenvalues --   -0.42816  -0.40830  -0.37774  -0.36308  -0.35495
 Alpha  occ. eigenvalues --   -0.35095  -0.33838  -0.33434  -0.31979  -0.30817
 Alpha  occ. eigenvalues --   -0.30188  -0.29442  -0.28649  -0.28445  -0.27434
 Alpha  occ. eigenvalues --   -0.27139  -0.26230  -0.24116  -0.22714  -0.19976
 Alpha  occ. eigenvalues --   -0.15404  -0.14672  -0.13379  -0.11944  -0.11157
 Alpha  occ. eigenvalues --    0.04684
 Alpha virt. eigenvalues --    0.06159   0.07759   0.08890   0.09008   0.09575
 Alpha virt. eigenvalues --    0.10458   0.11450   0.11665   0.11978   0.12715
 Alpha virt. eigenvalues --    0.12884   0.13727   0.13965   0.14549   0.14973

  Beta  occ. eigenvalues --  -19.03909 -18.95308 -14.22665 -14.22211 -14.20990
  Beta  occ. eigenvalues --  -10.15297 -10.13893 -10.09265 -10.08732 -10.08719
  Beta  occ. eigenvalues --  -10.08597 -10.03370 -10.02668  -0.97559  -0.88535
  Beta  occ. eigenvalues --   -0.86664  -0.81049  -0.72620  -0.63733  -0.61825
  Beta  occ. eigenvalues --   -0.60987  -0.58857  -0.54208  -0.49541  -0.45059
  Beta  occ. eigenvalues --   -0.42765  -0.40787  -0.37734  -0.36180  -0.35352
  Beta  occ. eigenvalues --   -0.35049  -0.33736  -0.33201  -0.31690  -0.30726
  Beta  occ. eigenvalues --   -0.30056  -0.29384  -0.28406  -0.28390  -0.27393
  Beta  occ. eigenvalues --   -0.27103  -0.26059  -0.23785  -0.22359  -0.19722
  Beta  occ. eigenvalues --   -0.14775  -0.13569  -0.13024  -0.11869  -0.11054
  Beta virt. eigenvalues --    0.06980   0.08211   0.09077   0.09270   0.09596
  Beta virt. eigenvalues --    0.09821   0.10729   0.11594   0.11678   0.12126
  Beta virt. eigenvalues --    0.12761   0.13115   0.13692   0.14066   0.14647

 Mulliken charges and spin densities:
               1          2
     1  C   -0.041810  -0.376659
     2  N   -0.077688   0.052960
     3  C    0.170467  -0.517833
     4  C   -0.658480   0.367945
     5  N   -0.443716   0.026607
     6  O    0.191585   0.000693
     7  C   -0.245738   0.099106
     8  O   -0.275516   0.078661
     9  C    0.266460   0.016162
    10  C   -0.636298   0.343831
    11  N   -0.062582   0.128697
    12  C    0.928765  -1.290336
    13  C   -0.126046  -0.202886
    14  H   -0.106155   0.245335
    15  H    0.079795   0.128877
    16  H    0.179533  -0.001149
    17  H   -0.161858   0.306729
    18  H    0.164036   0.016775
    19  H    0.051104   0.100502
    20  H    0.145873  -0.001498
    21  H    0.088809  -0.010871
    22  H    0.129670  -0.020233
    23  H   -0.267776   0.403124
    24  H   -0.324913   0.478596
    25  H   -0.230209   0.405884
    26  H    0.126084   0.028805
    27  H    0.166669   0.039322
    28  H   -0.030063   0.152856
 Sum of Mulliken charges =  -1.00000   1.00000

 Dipole moment (field-independent basis, Debye):
    X=             -0.4166    Y=              0.0124    Z=              0.1260  Tot=              0.4354
 Quadrupole moment (field-independent basis, Debye-Ang):
   XX=           -137.5714   YY=           -106.5872   ZZ=           -101.7058
   XY=             -8.6850   XZ=              0.7852   YZ=             -0.4017

 Summary of Natural Population Analysis:

                                       Natural Population
                Natural  -----------------------------------------------
    Atom  No    Charge         Core      Valence    Rydberg      Total
 -----------------------------------------------------------------------
      C    1   -0.17352      0.99964     2.16553    0.00836     3.17352
      N    2   -0.27183      0.99965     2.76097    0.01122     3.77183
      C    3   -0.17293      0.99963     2.16499    0.00831     3.17293
      C    4    0.31414      0.99954     1.66663    0.01969     2.68586
      N    5   -0.14616      0.99962     2.63542    0.01112     3.64616
      O    6   -0.22091      0.99986     3.21133    0.00972     4.22091
      C    7    0.39799      0.99966     1.57771    0.02464     2.60201
      O    8   -0.29661      0.99987     3.29131    0.00543     4.29661
      C    9   -0.13967      0.99953     2.12943    0.01071     3.13967
      C   10   -0.10609      0.99960     2.09929    0.00721     3.10609
      N   11   -0.26009      0.99965     2.74942    0.01102     3.76009
      C   12   -0.17333      0.99963     2.16558    0.00812     3.17333
      C   13   -0.17437      0.99965     2.16655    0.00817     3.17437
      H   14    0.08903      0.00000     0.41001    0.00096     0.41097
      H   15    0.10554      0.00000     0.39351    0.00095     0.39446
      H   16    0.09577      0.00000     0.40294    0.00129     0.40423
      H   17    0.08891      0.00000     0.40994    0.00115     0.41109
      H   18    0.10578      0.00000     0.39306    0.00116     0.39422
      H   19    0.09534      0.00000     0.40361    0.00105     0.40466
      H   20    0.09250      0.00000     0.40604    0.00146     0.40750
      H   21    0.08065      0.00000     0.41834    0.00100     0.41935
      H   22    0.09191      0.00000     0.40673    0.00137     0.40809
      H   23    0.08736      0.00000     0.41123    0.00141     0.41264
      H   24    0.09391      0.00000     0.40448    0.00161     0.40609
      H   25    0.10621      0.00000     0.39205    0.00174     0.39379
      H   26    0.08758      0.00000     0.41130    0.00111     0.41242
      H   27    0.11380      0.00000     0.38532    0.00088     0.38620
      H   28    0.08908      0.00000     0.41002    0.00090     0.41092
 =======================================================================
   * Total *   -0.00000     12.99552    36.84274    0.16174    50.00000

 Normal termination of Gaussian 16 at Mon Dec 14 17:08:46 2020.
