 Gaussian 16, Revision A.03,

 -----------------------------------------------------------
 # opt freq B3LYP/6-31G(d) empiricaldispersion=gd3bj scf=xqc
 -----------------------------------------------------------

 -------------------------------
 CID_127685015_JID_6927_neutraal
 -------------------------------
 Symbolic Z-matrix:
 Charge =  0 Multiplicity = 1

 SCF Done:  E(RB3LYP) =  -723.074653395     A.U. after   15 cycles
 SCF Done:  E(RB3LYP) =  -723.079997217     A.U. after   13 cycles
 SCF Done:  E(RB3LYP) =  -723.076157145     A.U. after   13 cycles
 SCF Done:  E(RB3LYP) =  -723.080886131     A.U. after   13 cycles
 SCF Done:  E(RB3LYP) =  -723.082125634     A.U. after   12 cycles
 SCF Done:  E(RB3LYP) =  -723.082528675     A.U. after   12 cycles
 SCF Done:  E(RB3LYP) =  -723.082609682     A.U. after   11 cycles
 SCF Done:  E(RB3LYP) =  -723.082631023     A.U. after   11 cycles
 SCF Done:  E(RB3LYP) =  -723.082660866     A.U. after   10 cycles
 SCF Done:  E(RB3LYP) =  -723.082674457     A.U. after   10 cycles
 SCF Done:  E(RB3LYP) =  -723.082688930     A.U. after   10 cycles
 SCF Done:  E(RB3LYP) =  -723.082695182     A.U. after   10 cycles
 SCF Done:  E(RB3LYP) =  -723.082699527     A.U. after    9 cycles
 SCF Done:  E(RB3LYP) =  -723.082700500     A.U. after    8 cycles
 SCF Done:  E(RB3LYP) =  -723.082700728     A.U. after    7 cycles
 Optimization completed.
    -- Stationary point found.
 Normal termination of Gaussian 16 at Fri Dec 11 01:13:33 2020.

 --------------------------------------------------------------------
 #N Geom=AllCheck Guess=TCheck SCRF=Check GenChk RB3LYP/6-31G(d) Freq
 --------------------------------------------------------------------

 Structure from the checkpoint file:  "JID_6927.chk"
 -------------------------------
 CID_127685015_JID_6927_neutraal
 -------------------------------
 Charge =  0 Multiplicity = 1

 SCF Done:  E(RB3LYP) =  -723.082700728     A.U. after    1 cycles

  Exact polarizability: 128.609  -0.153 137.809  14.415  -8.322 119.964
 Approx polarizability: 181.685   3.586 207.527  33.131 -18.538 208.713

                      1                      2                      3
                      A                      A                      A
 Frequencies --     24.5112                56.2555                90.4857
 Red. masses --      4.2628                 5.5021                 3.9369
 Frc consts  --      0.0015                 0.0103                 0.0190
 IR Inten    --      2.3725                 0.6132                 1.3064

                      4                      5                      6
                      A                      A                      A
 Frequencies --    142.1681               155.4202               168.7745
 Red. masses --      1.1522                 2.9893                 4.4886
 Frc consts  --      0.0137                 0.0425                 0.0753
 IR Inten    --      0.5278                 0.3077                 3.0221

                      7                      8                      9
                      A                      A                      A
 Frequencies --    212.9981               222.9637               249.2294
 Red. masses --      4.6613                 3.0424                 2.3731
 Frc consts  --      0.1246                 0.0891                 0.0869
 IR Inten    --      9.3279                 1.2370                 1.0699

                     10                     11                     12
                      A                      A                      A
 Frequencies --    280.3025               315.0536               326.5304
 Red. masses --      2.5379                 2.8433                 2.7772
 Frc consts  --      0.1175                 0.1663                 0.1745
 IR Inten    --      1.8096                 3.1379                11.3404

                     13                     14                     15
                      A                      A                      A
 Frequencies --    338.4430               408.1163               435.2971
 Red. masses --      3.3175                 3.9529                 2.2647
 Frc consts  --      0.2239                 0.3879                 0.2528
 IR Inten    --      4.9067                 0.9256                 4.6509

                     16                     17                     18
                      A                      A                      A
 Frequencies --    476.9555               485.0704               496.1837
 Red. masses --      3.7838                 3.3608                 1.7165
 Frc consts  --      0.5071                 0.4659                 0.2490
 IR Inten    --      1.2165                10.1681                48.3111

                     19                     20                     21
                      A                      A                      A
 Frequencies --    557.5567               610.7779               663.8684
 Red. masses --      4.6469                 4.5774                 2.8996
 Frc consts  --      0.8511                 1.0061                 0.7529
 IR Inten    --     10.7523                 3.2766                 3.4870

                     22                     23                     24
                      A                      A                      A
 Frequencies --    684.1061               693.4233               717.0434
 Red. masses --      3.3646                 4.7881                 4.1180
 Frc consts  --      0.9278                 1.3565                 1.2475
 IR Inten    --     35.5529                 5.3335                 5.3692

                     25                     26                     27
                      A                      A                      A
 Frequencies --    723.7936               750.6014               766.4600
 Red. masses --      4.7326                 2.8474                 2.1823
 Frc consts  --      1.4608                 0.9452                 0.7553
 IR Inten    --      1.7810                16.9099                 5.3232

                     28                     29                     30
                      A                      A                      A
 Frequencies --    853.2610               859.7924               881.0478
 Red. masses --      2.0119                 1.5867                 2.3109
 Frc consts  --      0.8630                 0.6911                 1.0569
 IR Inten    --      2.2623                18.9113                 2.4375

                     31                     32                     33
                      A                      A                      A
 Frequencies --    925.2146               940.7682               955.2232
 Red. masses --      2.1404                 2.4891                 2.7907
 Frc consts  --      1.0795                 1.2980                 1.5003
 IR Inten    --      3.1999                16.1618                 0.7152

                     34                     35                     36
                      A                      A                      A
 Frequencies --    975.8468               998.8469               999.3549
 Red. masses --      4.3330                 2.3484                 2.0962
 Frc consts  --      2.4311                 1.3804                 1.2335
 IR Inten    --     34.8750                 4.1206                10.9171

                     37                     38                     39
                      A                      A                      A
 Frequencies --   1036.8704              1064.1167              1087.6979
 Red. masses --      2.2760                 2.3750                 1.8441
 Frc consts  --      1.4417                 1.5845                 1.2855
 IR Inten    --      7.4841                13.0758                 5.3374

                     40                     41                     42
                      A                      A                      A
 Frequencies --   1120.9228              1130.2748              1139.9746
 Red. masses --      2.7266                 2.4318                 2.0222
 Frc consts  --      2.0185                 1.8304                 1.5484
 IR Inten    --     35.8388                40.4350                 5.3432

                     43                     44                     45
                      A                      A                      A
 Frequencies --   1152.9679              1176.4157              1206.2522
 Red. masses --      1.5486                 2.0430                 3.2557
 Frc consts  --      1.2129                 1.6659                 2.7911
 IR Inten    --      4.9311                 9.0714                 7.3360

                     46                     47                     48
                      A                      A                      A
 Frequencies --   1227.3034              1236.7623              1239.4982
 Red. masses --      1.2689                 1.5554                 1.3040
 Frc consts  --      1.1261                 1.4017                 1.1803
 IR Inten    --      3.6349                 5.3354                 2.9555

                     49                     50                     51
                      A                      A                      A
 Frequencies --   1246.7977              1271.2380              1284.5908
 Red. masses --      1.4914                 1.2828                 1.4479
 Frc consts  --      1.3660                 1.2214                 1.4077
 IR Inten    --      3.0680                 3.6875                 6.5123

                     52                     53                     54
                      A                      A                      A
 Frequencies --   1297.3519              1308.0058              1336.3332
 Red. masses --      1.6585                 2.6752                 1.9425
 Frc consts  --      1.6446                 2.6966                 2.0438
 IR Inten    --      2.1847                49.7441                32.2768

                     55                     56                     57
                      A                      A                      A
 Frequencies --   1346.0264              1354.3427              1376.6617
 Red. masses --      1.6087                 1.6457                 1.7271
 Frc consts  --      1.7172                 1.7785                 1.9285
 IR Inten    --      8.2722                 7.4650                19.3074

                     58                     59                     60
                      A                      A                      A
 Frequencies --   1392.9628              1408.5615              1413.8565
 Red. masses --      1.8464                 1.3338                 1.3207
 Frc consts  --      2.1108                 1.5592                 1.5555
 IR Inten    --      4.9278                 2.1106                11.0576

                     61                     62                     63
                      A                      A                      A
 Frequencies --   1429.2957              1453.7970              1456.1016
 Red. masses --      2.0500                 1.5329                 2.3680
 Frc consts  --      2.4674                 1.9088                 2.9581
 IR Inten    --     14.3070                18.1214                16.1665

                     64                     65                     66
                      A                      A                      A
 Frequencies --   1474.7824              1498.3085              1508.2346
 Red. masses --      1.6794                 1.1101                 1.1086
 Frc consts  --      2.1521                 1.4683                 1.4859
 IR Inten    --     46.8450                 9.2319                 8.2671

                     67                     68                     69
                      A                      A                      A
 Frequencies --   1519.6187              1520.0093              1522.8328
 Red. masses --      1.1142                 1.0993                 1.0470
 Frc consts  --      1.5160                 1.4964                 1.4305
 IR Inten    --      7.6532                 9.3863                11.1271

                     70                     71                     72
                      A                      A                      A
 Frequencies --   1539.1000              1547.5406              1572.1873
 Red. masses --      1.1944                 3.7813                 1.1306
 Frc consts  --      1.6670                 5.3355                 1.6465
 IR Inten    --     10.8049                21.5605                 8.7122

                     73                     74                     75
                      A                      A                      A
 Frequencies --   1635.0043              1790.2311              3017.4223
 Red. masses --      4.5697                10.2564                 1.0740
 Frc consts  --      7.1974                19.3670                 5.7614
 IR Inten    --      8.5498               273.3573                35.3054

                     76                     77                     78
                      A                      A                      A
 Frequencies --   3019.4219              3035.5573              3038.1457
 Red. masses --      1.0653                 1.0687                 1.0389
 Frc consts  --      5.7225                 5.8019                 5.6501
 IR Inten    --     54.5347                20.8342                54.6094

                     79                     80                     81
                      A                      A                      A
 Frequencies --   3046.4771              3056.3654              3081.1894
 Red. masses --      1.0659                 1.0967                 1.0791
 Frc consts  --      5.8288                 6.0357                 6.0361
 IR Inten    --     91.8149                45.7619                12.7443

                     82                     83                     84
                      A                      A                      A
 Frequencies --   3091.9303              3093.7875              3100.4919
 Red. masses --      1.1044                 1.0731                 1.0972
 Frc consts  --      6.2207                 6.0517                 6.2141
 IR Inten    --     33.5132                29.1700                34.2617

                     85                     86                     87
                      A                      A                      A
 Frequencies --   3120.0563              3126.3678              3140.7474
 Red. masses --      1.0953                 1.0880                 1.1028
 Frc consts  --      6.2822                 6.2657                 6.4093
 IR Inten    --      8.6752                24.2086                18.0213

                     88                     89                     90
                      A                      A                      A
 Frequencies --   3169.8733              3243.4605              3663.7751
 Red. masses --      1.0981                 1.0955                 1.0811
 Frc consts  --      6.5011                 6.7901                 8.5500
 IR Inten    --      1.4529                10.0997                58.7834

 - Thermochemistry -
 -------------------
 Temperature   298.150 Kelvin.  Pressure   1.00000 Atm.
 Atom     1 has atomic number  6 and mass  12.00000

 Molecular mass:   220.13241 amu.
 Principal axes and moments of inertia in atomic units:
                           1         2         3
     Eigenvalues --  2314.180753149.716683868.90174
           X            0.99781  -0.05947   0.02901
           Y            0.05970   0.99819  -0.00725
           Z           -0.02852   0.00897   0.99955
 This molecule is an asymmetric top.
 Rotational symmetry number  1.
 Warning -- assumption of classical behavior for rotation
           may cause significant error
 Rotational temperatures (Kelvin)      0.03743     0.02750     0.02239
 Rotational constants (GHZ):           0.77986     0.57299     0.46647
 Zero-point vibrational energy     722602.1 (Joules/Mol)
                                  172.70606 (Kcal/Mol)
 Warning -- explicit consideration of  20 degrees of freedom as
           vibrations may cause significant error
 Vibrational temperatures:     35.27    80.94   130.19   204.55   223.62
          (Kelvin)            242.83   306.46   320.80   358.59   403.29
                              453.29   469.80   486.94   587.19   626.30
                              686.23   697.91   713.90   802.20   878.77
                              955.16   984.28   997.68  1031.67  1041.38
                             1079.95  1102.77  1227.65  1237.05  1267.63
                             1331.18  1353.56  1374.35  1404.03  1437.12
                             1437.85  1491.83  1531.03  1564.95  1612.76
                             1626.21  1640.17  1658.86  1692.60  1735.53
                             1765.82  1779.43  1783.36  1793.86  1829.03
                             1848.24  1866.60  1881.93  1922.69  1936.63
                             1948.60  1980.71  2004.16  2026.61  2034.22
                             2056.44  2091.69  2095.01  2121.88  2155.73
                             2170.01  2186.39  2186.95  2191.02  2214.42
                             2226.57  2262.03  2352.41  2575.74  4341.40
                             4344.27  4367.49  4371.21  4383.20  4397.43
                             4433.14  4448.60  4451.27  4460.92  4489.07
                             4498.15  4518.84  4560.74  4666.62  5271.36

 Zero-point correction=                           0.275225 (Hartree/Particle)
 Thermal correction to Energy=                    0.288835
 Thermal correction to Enthalpy=                  0.289779
 Thermal correction to Gibbs Free Energy=         0.234575
 Sum of electronic and zero-point Energies=           -722.807476
 Sum of electronic and thermal Energies=              -722.793866
 Sum of electronic and thermal Enthalpies=            -722.792922
 Sum of electronic and thermal Free Energies=         -722.848126

                     E (Thermal)             CV                S
                      KCal/Mol        Cal/Mol-Kelvin    Cal/Mol-Kelvin
 Total                  181.247             53.618            116.187
 Electronic               0.000              0.000              0.000
 Translational            0.889              2.981             42.070
 Rotational               0.889              2.981             31.712
 Vibrational            179.469             47.656             42.405
 Vibration     1          0.593              1.985              6.230
 Vibration     2          0.596              1.975              4.584
 Vibration     3          0.602              1.956              3.650
 Vibration     4          0.616              1.911              2.774
 Vibration     5          0.620              1.897              2.605
 Vibration     6          0.625              1.881              2.449
 Vibration     7          0.644              1.821              2.018
 Vibration     8          0.649              1.806              1.935
 Vibration     9          0.662              1.764              1.736
 Vibration    10          0.680              1.710              1.532
 Vibration    11          0.702              1.645              1.336
 Vibration    12          0.710              1.622              1.277
 Vibration    13          0.719              1.599              1.219
 Vibration    14          0.773              1.453              0.933
 Vibration    15          0.796              1.393              0.842
 Vibration    16          0.834              1.301              0.718
 Vibration    17          0.841              1.283              0.697
 Vibration    18          0.852              1.258              0.668
 Vibration    19          0.913              1.123              0.529
 Vibration    20          0.970              1.009              0.431

                           ! Non-Optimized Parameters !
 Normal termination of Gaussian 16 at Fri Dec 11 01:26:05 2020.

 ----------------------------------------------------------------------
 # B3LYP/6-311++G(d,p) empiricaldispersion=gd3bj scf=xqc pop=npa geom=c
 heck
 ----------------------------------------------------------------------

 ---------------------------------------
 CID_127685015_JID_6927_Energie_neutraal
 ---------------------------------------
 Structure from the checkpoint file:  "JID_6927.chk"
 Charge =  0 Multiplicity = 1

 SCF Done:  E(RB3LYP) =  -723.278797203     A.U. after   15 cycles
 Normal termination of Gaussian 16 at Fri Dec 11 01:30:48 2020.

 ----------------------------------------------------------------------
 # B3LYP/6-311++G(d,p) empiricaldispersion=gd3bj scf=xqc pop=npa geom=c
 heck
 ----------------------------------------------------------------------

 -------------------------------------
 CID_127685015_JID_6927_Energie_kation
 -------------------------------------
 Structure from the checkpoint file:  "JID_6927.chk"
 Charge =  1 Multiplicity = 2

 SCF Done:  E(UB3LYP) =  -722.996842887     A.U. after   26 cycles
 Normal termination of Gaussian 16 at Fri Dec 11 01:41:37 2020.
 Gaussian 16:  ES64L-G16RevA.03 25-Dec-2016

 ----------------------------------------------------------------------
 # B3LYP/6-311++G(d,p) empiricaldispersion=gd3bj scf=xqc pop=npa geom=c
 heck
 ----------------------------------------------------------------------

 ------------------------------------
 CID_127685015_JID_6927_Energie_anion
 ------------------------------------
 Structure from the checkpoint file:  "JID_6927.chk"
 Charge = -1 Multiplicity = 2

                         Standard orientation:
 ---------------------------------------------------------------------
 Center     Atomic      Atomic             Coordinates (Angstroms)
 Number     Number       Type             X           Y           Z
 ---------------------------------------------------------------------
      1          6           0       -1.485140    2.481667    0.646372
      2          7           0       -1.739661    1.095056    0.331038
      3          6           0       -2.500945    0.689843   -0.836552
      4          6           0       -2.598986   -0.844234   -0.683717
      5          6           0       -1.427344   -1.242155    0.235015
      6          6           0       -1.158506    0.069005    1.018279
      7          8           0       -0.533155    0.186749    2.065479
      8          7           0       -0.292973   -1.802331   -0.508665
      9          6           0        0.768668   -2.402277    0.302200
     10          6           0        1.737883   -1.416916    1.025462
     11          6           0        1.892888   -0.193871    0.181932
     12          6           0        1.229208    0.059284   -1.005792
     13          6           0        0.281120   -0.959632   -1.570912
     14          6           0        1.617168    1.370507   -1.368151
     15          7           0        2.455603    1.903408   -0.476122
     16          7           0        2.608196    0.927617    0.454409
     17          1           0       -0.858852    2.945553   -0.126902
     18          1           0       -2.424525    3.040837    0.731230
     19          1           0       -0.952655    2.510405    1.598276
     20          1           0       -1.990966    0.997519   -1.760973
     21          1           0       -3.486893    1.171598   -0.834730
     22          1           0       -2.566831   -1.373197   -1.638674
     23          1           0       -3.543124   -1.097685   -0.192602
     24          1           0       -1.721317   -2.009335    0.957753
     25          1           0        0.305357   -3.064114    1.040746
     26          1           0        1.354706   -3.032106   -0.379442
     27          1           0        1.327500   -1.134552    1.998746
     28          1           0        2.698938   -1.922115    1.191311
     29          1           0        0.797296   -1.636292   -2.267371
     30          1           0       -0.522403   -0.493905   -2.145264
     31          1           0        1.328242    1.948401   -2.237278
     32          1           0        3.166536    1.121410    1.271911
 ---------------------------------------------------------------------

 SCF Done:  E(UB3LYP) =  -723.264949807     A.U. after   33 cycles
 SCF Done:  E(UB3LYP) =  -723.264949806     a.u. after    1 cycles

 The electronic state is 2-A.
 Alpha  occ. eigenvalues --  -18.98746 -14.28666 -14.24354 -14.23294 -14.21603
 Alpha  occ. eigenvalues --  -10.16358 -10.11159 -10.11073 -10.10727 -10.10489
 Alpha  occ. eigenvalues --  -10.10435 -10.09959 -10.09235 -10.08106 -10.07612
 Alpha  occ. eigenvalues --  -10.06726  -0.94715  -0.93888  -0.85259  -0.83423
 Alpha  occ. eigenvalues --   -0.72974  -0.71087  -0.68573  -0.65903  -0.62054
 Alpha  occ. eigenvalues --   -0.60267  -0.57032  -0.53389  -0.51426  -0.50212
 Alpha  occ. eigenvalues --   -0.46057  -0.44758  -0.43221  -0.40107  -0.39750
 Alpha  occ. eigenvalues --   -0.37945  -0.36738  -0.36077  -0.34643  -0.34225
 Alpha  occ. eigenvalues --   -0.33315  -0.32696  -0.31794  -0.31007  -0.30460
 Alpha  occ. eigenvalues --   -0.29795  -0.29484  -0.28524  -0.28048  -0.27341
 Alpha  occ. eigenvalues --   -0.25412  -0.24541  -0.23949  -0.20022  -0.17164
 Alpha  occ. eigenvalues --   -0.16315  -0.14714  -0.13747  -0.11650   0.04382
 Alpha virt. eigenvalues --    0.06109   0.07044   0.07386   0.08275   0.08606
 Alpha virt. eigenvalues --    0.09160   0.09651   0.10175   0.10736   0.11023
 Alpha virt. eigenvalues --    0.11139   0.12076   0.12113   0.12980   0.13507

  Beta  occ. eigenvalues --  -18.98743 -14.28659 -14.24355 -14.23292 -14.21605
  Beta  occ. eigenvalues --  -10.16355 -10.11151 -10.11073 -10.10683 -10.10462
  Beta  occ. eigenvalues --  -10.10417 -10.09939 -10.09227 -10.08092 -10.07583
  Beta  occ. eigenvalues --  -10.06725  -0.94706  -0.93883  -0.85247  -0.83413
  Beta  occ. eigenvalues --   -0.72963  -0.71067  -0.68549  -0.65873  -0.62003
  Beta  occ. eigenvalues --   -0.60226  -0.56991  -0.53342  -0.51397  -0.50180
  Beta  occ. eigenvalues --   -0.46014  -0.44724  -0.43195  -0.40051  -0.39713
  Beta  occ. eigenvalues --   -0.37920  -0.36715  -0.36057  -0.34621  -0.34203
  Beta  occ. eigenvalues --   -0.33289  -0.32672  -0.31764  -0.30978  -0.30431
  Beta  occ. eigenvalues --   -0.29750  -0.29452  -0.28495  -0.28015  -0.27309
  Beta  occ. eigenvalues --   -0.25378  -0.24507  -0.23921  -0.20012  -0.17154
  Beta  occ. eigenvalues --   -0.16306  -0.14702  -0.13739  -0.11636
  Beta virt. eigenvalues --    0.06536   0.07297   0.07503   0.08156   0.08867
  Beta virt. eigenvalues --    0.09220   0.09605   0.09828   0.10586   0.10955
  Beta virt. eigenvalues --    0.11183   0.11633   0.12418   0.12552   0.13271

 Mulliken charges and spin densities:
               1          2
     1  C    0.073674  -0.372217
     2  N   -0.045079   0.215591
     3  C    1.171478  -1.388153
     4  C    0.869962  -1.469010
     5  C   -1.625846   1.416560
     6  C    0.405279  -0.615872
     7  O   -0.341535   0.022538
     8  N    0.183740   0.118961
     9  C    0.098686  -0.220687
    10  C    0.195590  -0.711372
    11  C   -0.073648  -0.235609
    12  C   -0.546303   1.408681
    13  C    1.437387  -2.336176
    14  C   -0.472055  -0.017950
    15  N   -0.132263  -0.010153
    16  N   -0.096629   0.100054
    17  H    0.114756   0.075110
    18  H   -0.292973   0.459007
    19  H    0.095533   0.066129
    20  H   -0.209487   0.369514
    21  H   -0.778754   0.975493
    22  H   -0.359781   0.537428
    23  H   -0.325157   0.508375
    24  H   -0.197006   0.418076
    25  H   -0.141962   0.312523
    26  H   -0.079528   0.239050
    27  H    0.335548  -0.122709
    28  H   -0.427285   0.614567
    29  H   -0.101650   0.301749
    30  H    0.344268  -0.195732
    31  H   -0.288022   0.445558
    32  H    0.209062   0.090676
 Sum of Mulliken charges =  -1.00000   1.00000

 Dipole moment (field-independent basis, Debye):
    X=              4.8242    Y=             -0.1861    Z=              2.1630  Tot=              5.2902
 Quadrupole moment (field-independent basis, Debye-Ang):
   XX=           -164.7306   YY=           -142.1663   ZZ=           -134.8396
   XY=              5.7127   XZ=             -1.5147   YZ=              2.8328

 Summary of Natural Population Analysis:

                                       Natural Population
                Natural  -----------------------------------------------
    Atom  No    Charge         Core      Valence    Rydberg      Total
 -----------------------------------------------------------------------
      C    1   -0.17858      0.99963     2.17068    0.00826     3.17858
      N    2   -0.24952      0.99963     2.73777    0.01212     3.74952
      C    3   -0.07608      0.99962     2.06550    0.01096     3.07608
      C    4   -0.19983      0.99962     2.19056    0.00964     3.19983
      C    5   -0.03685      0.99953     2.02246    0.01485     3.03685
      C    6    0.34042      0.99960     1.63488    0.02510     2.65958
      O    7   -0.33373      0.99987     3.32808    0.00578     4.33373
      N    8   -0.26982      0.99973     2.75591    0.01418     3.76982
      C    9   -0.07667      0.99961     2.06594    0.01112     3.07667
      C   10   -0.22211      0.99959     2.21423    0.00830     3.22211
      C   11    0.08912      0.99946     1.89915    0.01226     2.91088
      C   12   -0.08722      0.99943     2.07786    0.00992     3.08722
      C   13   -0.09171      0.99957     2.08019    0.01196     3.09171
      C   14   -0.01043      0.99957     1.99602    0.01484     3.01043
      N   15   -0.16029      0.99975     2.64830    0.01225     3.66029
      N   16   -0.16853      0.99964     2.65699    0.01191     3.66853
      H   17    0.09697      0.00000     0.40187    0.00115     0.40303
      H   18    0.09557      0.00000     0.40328    0.00115     0.40443
      H   19    0.11130      0.00000     0.38751    0.00119     0.38870
      H   20    0.08981      0.00000     0.40790    0.00229     0.41019
      H   21    0.10068      0.00000     0.39504    0.00428     0.39932
      H   22    0.10864      0.00000     0.38947    0.00189     0.39136
      H   23    0.10741      0.00000     0.39073    0.00187     0.39259
      H   24    0.10603      0.00000     0.39255    0.00142     0.39397
      H   25    0.09866      0.00000     0.40028    0.00105     0.40134
      H   26    0.09355      0.00000     0.40515    0.00130     0.40645
      H   27    0.12133      0.00000     0.37728    0.00139     0.37867
      H   28    0.10354      0.00000     0.39481    0.00164     0.39646
      H   29    0.10038      0.00000     0.39830    0.00132     0.39962
      H   30    0.10403      0.00000     0.39420    0.00176     0.39597
      H   31    0.09809      0.00000     0.40050    0.00141     0.40191
      H   32    0.19582      0.00000     0.30211    0.00207     0.30418
 =======================================================================
   * Total *   -0.00000     15.99386    42.78549    0.22065    59.00000

 Normal termination of Gaussian 16 at Fri Dec 11 01:55:14 2020.
