 Gaussian 16, Revision A.03,

 -----------------------------------------------------------
 # opt freq B3LYP/6-31G(d) empiricaldispersion=gd3bj scf=xqc
 -----------------------------------------------------------

 ------------------------------
 CID_65051085_JID_2276_neutraal
 ------------------------------
 Symbolic Z-matrix:
 Charge =  0 Multiplicity = 1

 SCF Done:  E(RB3LYP) =  -574.472830416     A.U. after   14 cycles
 SCF Done:  E(RB3LYP) =  -574.477181590     A.U. after   12 cycles
 SCF Done:  E(RB3LYP) =  -574.476836333     A.U. after   14 cycles
 SCF Done:  E(RB3LYP) =  -574.477188353     A.U. after   12 cycles
 SCF Done:  E(RB3LYP) =  -574.478633551     A.U. after   12 cycles
 SCF Done:  E(RB3LYP) =  -574.479079614     A.U. after   12 cycles
 SCF Done:  E(RB3LYP) =  -574.479115232     A.U. after   11 cycles
 SCF Done:  E(RB3LYP) =  -574.479299024     A.U. after   11 cycles
 SCF Done:  E(RB3LYP) =  -574.479335545     A.U. after   11 cycles
 SCF Done:  E(RB3LYP) =  -574.479355219     A.U. after   10 cycles
 SCF Done:  E(RB3LYP) =  -574.479374129     A.U. after    9 cycles
 SCF Done:  E(RB3LYP) =  -574.479375393     A.U. after    9 cycles
 SCF Done:  E(RB3LYP) =  -574.479376750     A.U. after    9 cycles
 SCF Done:  E(RB3LYP) =  -574.479378001     A.U. after    9 cycles
 SCF Done:  E(RB3LYP) =  -574.479378519     A.U. after    8 cycles
 SCF Done:  E(RB3LYP) =  -574.479378644     A.U. after    8 cycles
 Optimization completed.
    -- Stationary point found.
 Normal termination of Gaussian 16 at Wed Dec  9 17:03:25 2020.

 --------------------------------------------------------------------
 #N Geom=AllCheck Guess=TCheck SCRF=Check GenChk RB3LYP/6-31G(d) Freq
 --------------------------------------------------------------------

 Structure from the checkpoint file:  "JID_2276.chk"
 ------------------------------
 CID_65051085_JID_2276_neutraal
 ------------------------------
 Charge =  0 Multiplicity = 1

 SCF Done:  E(RB3LYP) =  -574.479378644     A.U. after    1 cycles

  Exact polarizability: 112.747   3.858  93.721   0.115   3.834  89.714
 Approx polarizability: 140.816   8.657 144.936   4.843   9.029 130.421

                      1                      2                      3
                      A                      A                      A
 Frequencies --     21.6562                51.8376                82.1147
 Red. masses --      2.5707                 6.1396                 5.2239
 Frc consts  --      0.0007                 0.0097                 0.0208
 IR Inten    --      0.0695                 2.1448                 4.8042

                      4                      5                      6
                      A                      A                      A
 Frequencies --    111.2734               184.2680               196.0649
 Red. masses --      4.3555                 3.2439                 2.9394
 Frc consts  --      0.0318                 0.0649                 0.0666
 IR Inten    --      4.5682                 2.5277                 1.5092

                      7                      8                      9
                      A                      A                      A
 Frequencies --    236.3404               256.4766               295.7634
 Red. masses --      2.3070                 2.7041                 1.8970
 Frc consts  --      0.0759                 0.1048                 0.0978
 IR Inten    --      8.8877                12.1901                 3.4725

                     10                     11                     12
                      A                      A                      A
 Frequencies --    325.0232               355.0373               367.0490
 Red. masses --      1.4327                 1.9064                 1.6355
 Frc consts  --      0.0892                 0.1416                 0.1298
 IR Inten    --     19.5999                94.3711               129.8287

                     13                     14                     15
                      A                      A                      A
 Frequencies --    392.3934               448.0756               470.2317
 Red. masses --      1.6986                 2.6794                 3.3704
 Frc consts  --      0.1541                 0.3169                 0.4391
 IR Inten    --     82.8937                 5.4025                 2.4000

                     16                     17                     18
                      A                      A                      A
 Frequencies --    507.1790               527.6019               554.4828
 Red. masses --      2.6873                 3.8895                 1.8149
 Frc consts  --      0.4073                 0.6379                 0.3288
 IR Inten    --     18.7569                12.8941                 2.0080

                     19                     20                     21
                      A                      A                      A
 Frequencies --    604.8217               644.1658               696.0408
 Red. masses --      1.8343                 2.9913                 1.5401
 Frc consts  --      0.3953                 0.7313                 0.4396
 IR Inten    --      3.3966                13.3140                 4.6061

                     22                     23                     24
                      A                      A                      A
 Frequencies --    727.2746               843.5652               851.5989
 Red. masses --      2.3267                 1.7785                 1.9458
 Frc consts  --      0.7251                 0.7457                 0.8314
 IR Inten    --      7.5354                 4.7884                19.0997

                     25                     26                     27
                      A                      A                      A
 Frequencies --    868.0590               877.0254               889.4619
 Red. masses --      1.7706                 3.5555                 1.9449
 Frc consts  --      0.7861                 1.6113                 0.9066
 IR Inten    --      2.0796                 0.3022                14.4418

                     28                     29                     30
                      A                      A                      A
 Frequencies --    911.9108               925.1547               974.3474
 Red. masses --      1.6671                 2.4792                 1.9083
 Frc consts  --      0.8168                 1.2502                 1.0674
 IR Inten    --    105.0666                 1.9607                 1.6440

                     31                     32                     33
                      A                      A                      A
 Frequencies --    991.6064              1028.6905              1048.9023
 Red. masses --      1.4359                 2.2648                 2.0310
 Frc consts  --      0.8319                 1.4120                 1.3165
 IR Inten    --     12.6895                 0.3380                 3.6028

                     34                     35                     36
                      A                      A                      A
 Frequencies --   1056.8876              1088.1183              1108.6019
 Red. masses --      1.7733                 1.8037                 3.4545
 Frc consts  --      1.1671                 1.2582                 2.5014
 IR Inten    --      3.8074                 8.3858                87.8956

                     37                     38                     39
                      A                      A                      A
 Frequencies --   1112.4918              1130.3311              1165.2697
 Red. masses --      1.9973                 2.1369                 3.9071
 Frc consts  --      1.4564                 1.6086                 3.1258
 IR Inten    --     35.6113                39.0814                 5.4811

                     40                     41                     42
                      A                      A                      A
 Frequencies --   1186.7943              1241.1091              1256.0413
 Red. masses --      1.3221                 1.7745                 1.4266
 Frc consts  --      1.0972                 1.6104                 1.3261
 IR Inten    --      3.8883                 4.7399                11.6033

                     43                     44                     45
                      A                      A                      A
 Frequencies --   1268.3832              1290.5513              1307.7316
 Red. masses --      1.3447                 1.3570                 1.2865
 Frc consts  --      1.2747                 1.3317                 1.2963
 IR Inten    --      3.3965                 7.7391                17.9167

                     46                     47                     48
                      A                      A                      A
 Frequencies --   1337.2096              1352.0959              1362.8496
 Red. masses --      1.3917                 1.3129                 1.3055
 Frc consts  --      1.4662                 1.4141                 1.4286
 IR Inten    --      6.9607                 2.8737                 2.0299

                     49                     50                     51
                      A                      A                      A
 Frequencies --   1372.6814              1379.7736              1387.6113
 Red. masses --      1.4800                 2.1017                 1.4550
 Frc consts  --      1.6430                 2.3574                 1.6506
 IR Inten    --     18.7808                49.6083                18.0127

                     52                     53                     54
                      A                      A                      A
 Frequencies --   1395.0174              1438.9728              1504.7002
 Red. masses --      1.5829                 1.3456                 1.0819
 Frc consts  --      1.8149                 1.6416                 1.4433
 IR Inten    --     17.1085                 5.2788                 1.2591

                     55                     56                     57
                      A                      A                      A
 Frequencies --   1506.2991              1513.2734              1519.0583
 Red. masses --      1.0779                 1.0872                 1.0908
 Frc consts  --      1.4410                 1.4668                 1.4830
 IR Inten    --      3.2309                 3.9899                 1.9562

                     58                     59                     60
                      A                      A                      A
 Frequencies --   1522.4423              1539.9010              1621.9435
 Red. masses --      1.0821                 1.1087                 1.3131
 Frc consts  --      1.4778                 1.5489                 2.0352
 IR Inten    --      7.8934                 2.2036               119.0751

                     61                     62                     63
                      A                      A                      A
 Frequencies --   1732.4910              1799.1875              2991.3826
 Red. masses --      1.0911                 8.4520                 1.0695
 Frc consts  --      1.9296                16.1200                 5.6385
 IR Inten    --     39.9640               275.0507                51.5352

                     64                     65                     66
                      A                      A                      A
 Frequencies --   3039.1701              3050.5301              3057.0561
 Red. masses --      1.0696                 1.0633                 1.0652
 Frc consts  --      5.8206                 5.8296                 5.8654
 IR Inten    --     24.0255                34.6901                31.2350

                     67                     68                     69
                      A                      A                      A
 Frequencies --   3063.5452              3074.3468              3081.2783
 Red. masses --      1.0620                 1.0888                 1.0700
 Frc consts  --      5.8722                 6.0631                 5.9852
 IR Inten    --     30.7160                27.3979                 7.6040

                     70                     71                     72
                      A                      A                      A
 Frequencies --   3099.0482              3104.1029              3113.2923
 Red. masses --      1.0967                 1.0976                 1.1038
 Frc consts  --      6.2055                 6.2309                 6.3035
 IR Inten    --     33.1756                36.8219                40.6235

                     73                     74                     75
                      A                      A                      A
 Frequencies --   3127.4990              3134.6794              3493.9416
 Red. masses --      1.1030                 1.0995                 1.0507
 Frc consts  --      6.3566                 6.3656                 7.5571
 IR Inten    --     35.8941                 5.1446                15.3832

                     76                     77                     78
                      A                      A                      A
 Frequencies --   3572.7346              3583.0596              3712.9143
 Red. masses --      1.0931                 1.0443                 1.1053
 Frc consts  --      8.2211                 7.8992                 8.9779
 IR Inten    --     14.2603                32.7796                59.1799

 - Thermochemistry -
 -------------------
 Temperature   298.150 Kelvin.  Pressure   1.00000 Atm.
 Atom     1 has atomic number  6 and mass  12.00000

 Molecular mass:   172.12118 amu.
 Principal axes and moments of inertia in atomic units:
                           1         2         3
     Eigenvalues --  1010.023203110.778423320.85981
           X            0.99998  -0.00039  -0.00627
           Y            0.00045   0.99995   0.00977
           Z            0.00627  -0.00977   0.99993
 This molecule is an asymmetric top.
 Rotational symmetry number  1.
 Warning -- assumption of classical behavior for rotation
           may cause significant error
 Rotational temperatures (Kelvin)      0.08575     0.02784     0.02608
 Rotational constants (GHZ):           1.78683     0.58016     0.54346
 Zero-point vibrational energy     652335.0 (Joules/Mol)
                                  155.91181 (Kcal/Mol)
 Warning -- explicit consideration of  19 degrees of freedom as
           vibrations may cause significant error
 Vibrational temperatures:     31.16    74.58   118.14   160.10   265.12
          (Kelvin)            282.09   340.04   369.01   425.54   467.64
                              510.82   528.10   564.57   644.68   676.56
                              729.72   759.10   797.78   870.20   926.81
                             1001.45  1046.39  1213.70  1225.26  1248.94
                             1261.84  1279.74  1312.04  1331.09  1401.87
                             1426.70  1480.06  1509.14  1520.63  1565.56
                             1595.03  1600.63  1626.29  1676.56  1707.53
                             1785.68  1807.16  1824.92  1856.82  1881.53
                             1923.95  1945.36  1960.84  1974.98  1985.19
                             1996.46  2007.12  2070.36  2164.93  2167.23
                             2177.26  2185.59  2190.45  2215.57  2333.61
                             2492.67  2588.63  4303.93  4372.69  4389.03
                             4398.42  4407.76  4423.30  4433.27  4458.84
                             4466.11  4479.33  4499.77  4510.10  5027.00
                             5140.37  5155.22  5342.06

 Zero-point correction=                           0.248461 (Hartree/Particle)
 Thermal correction to Energy=                    0.260978
 Thermal correction to Enthalpy=                  0.261923
 Thermal correction to Gibbs Free Energy=         0.209076
 Sum of electronic and zero-point Energies=           -574.230917
 Sum of electronic and thermal Energies=              -574.218400
 Sum of electronic and thermal Enthalpies=            -574.217456
 Sum of electronic and thermal Free Energies=         -574.270302

                     E (Thermal)             CV                S
                      KCal/Mol        Cal/Mol-Kelvin    Cal/Mol-Kelvin
 Total                  163.766             48.045            111.224
 Electronic               0.000              0.000              0.000
 Translational            0.889              2.981             41.337
 Rotational               0.889              2.981             30.724
 Vibrational            161.989             42.083             39.164
 Vibration     1          0.593              1.985              6.476
 Vibration     2          0.596              1.977              4.746
 Vibration     3          0.600              1.961              3.840
 Vibration     4          0.607              1.940              3.247
 Vibration     5          0.631              1.861              2.285
 Vibration     6          0.636              1.845              2.170
 Vibration     7          0.655              1.785              1.830
 Vibration     8          0.666              1.752              1.686
 Vibration     9          0.690              1.682              1.441
 Vibration    10          0.709              1.625              1.285
 Vibration    11          0.731              1.565              1.144
 Vibration    12          0.740              1.540              1.092
 Vibration    13          0.760              1.486              0.991
 Vibration    14          0.807              1.365              0.802
 Vibration    15          0.827              1.316              0.737
 Vibration    16          0.862              1.234              0.640
 Vibration    17          0.883              1.189              0.593
 Vibration    18          0.910              1.130              0.535
 Vibration    19          0.963              1.022              0.441

 Optimization completed.
    -- Stationary point found.
 Normal termination of Gaussian 16 at Wed Dec  9 17:11:11 2020.

 ----------------------------------------------------------------------
 # B3LYP/6-311++G(d,p) empiricaldispersion=gd3bj scf=xqc pop=npa geom=c
 heck
 ----------------------------------------------------------------------

 --------------------------------------
 CID_65051085_JID_2276_Energie_neutraal
 --------------------------------------
 Structure from the checkpoint file:  "JID_2276.chk"
 Charge =  0 Multiplicity = 1

 SCF Done:  E(RB3LYP) =  -574.661301091     A.U. after   14 cycles
 Normal termination of Gaussian 16 at Wed Dec  9 17:14:42 2020.

 ----------------------------------------------------------------------
 # B3LYP/6-311++G(d,p) empiricaldispersion=gd3bj scf=xqc pop=npa geom=c
 heck
 ----------------------------------------------------------------------

 ------------------------------------
 CID_65051085_JID_2276_Energie_kation
 ------------------------------------
 Structure from the checkpoint file:  "JID_2276.chk"
 Charge =  1 Multiplicity = 2

 SCF Done:  E(UB3LYP) =  -574.346850379     A.U. after   21 cycles
 Normal termination of Gaussian 16 at Wed Dec  9 17:22:00 2020.
 Gaussian 16:  ES64L-G16RevA.03 25-Dec-2016

 ----------------------------------------------------------------------
 # B3LYP/6-311++G(d,p) empiricaldispersion=gd3bj scf=xqc pop=npa geom=c
 heck
 ----------------------------------------------------------------------

 -----------------------------------
 CID_65051085_JID_2276_Energie_anion
 -----------------------------------
 Structure from the checkpoint file:  "JID_2276.chk"
 Charge = -1 Multiplicity = 2

                         Standard orientation:
 ---------------------------------------------------------------------
 Center     Atomic      Atomic             Coordinates (Angstroms)
 Number     Number       Type             X           Y           Z
 ---------------------------------------------------------------------
      1          6           0       -2.964656   -0.091532    0.957659
      2          6           0       -3.172168   -0.422141   -0.526827
      3          6           0       -1.770154   -0.867157   -0.971934
      4          6           0       -0.772419   -0.007333   -0.149920
      5          6           0       -1.630290    0.669921    0.952335
      6          6           0       -0.077905    1.023918   -1.064792
      7          7           0        0.604748    2.111191   -0.356009
      8          8           0        0.143894   -0.975116    0.425449
      9          6           0        1.265558   -0.455995    1.119381
     10          6           0        2.510380   -0.360833    0.229935
     11          8           0        3.384351    0.478369    0.417813
     12          7           0        2.558852   -1.314708   -0.737150
     13          1           0       -2.866335   -1.022357    1.530979
     14          1           0       -3.785345    0.484577    1.397702
     15          1           0       -3.936129   -1.185252   -0.708189
     16          1           0       -3.477166    0.483248   -1.069035
     17          1           0       -1.604362   -0.780023   -2.051741
     18          1           0       -1.606302   -1.913593   -0.695486
     19          1           0       -1.786894    1.721154    0.689483
     20          1           0       -1.121850    0.664991    1.919766
     21          1           0        0.562970    0.477157   -1.776022
     22          1           0       -0.881397    1.477733   -1.656658
     23          1           0        0.636522    2.937287   -0.947286
     24          1           0        1.572233    1.875822   -0.145477
     25          1           0        1.077320    0.527826    1.555719
     26          1           0        1.491364   -1.154574    1.935000
     27          1           0        1.721483   -1.847136   -0.928487
     28          1           0        3.302654   -1.281352   -1.419278
 ---------------------------------------------------------------------

 SCF Done:  E(UB3LYP) =  -574.648204648     A.U. after   32 cycles

 The electronic state is 2-A.
 Alpha  occ. eigenvalues --  -19.02990 -18.99543 -14.22980 -14.18836 -10.17601
 Alpha  occ. eigenvalues --  -10.12529 -10.12518 -10.08838 -10.06438 -10.06404
 Alpha  occ. eigenvalues --  -10.05963 -10.05902  -0.94977  -0.93260  -0.80663
 Alpha  occ. eigenvalues --   -0.77978  -0.73379  -0.64562  -0.61049  -0.60013
 Alpha  occ. eigenvalues --   -0.53833  -0.49491  -0.47579  -0.45693  -0.44257
 Alpha  occ. eigenvalues --   -0.40911  -0.39118  -0.37881  -0.36373  -0.36046
 Alpha  occ. eigenvalues --   -0.35112  -0.33600  -0.32380  -0.31139  -0.29624
 Alpha  occ. eigenvalues --   -0.28339  -0.26907  -0.25274  -0.24059  -0.23768
 Alpha  occ. eigenvalues --   -0.23586  -0.22615  -0.21049  -0.19095  -0.17771
 Alpha  occ. eigenvalues --   -0.15194  -0.13830   0.04520
 Alpha virt. eigenvalues --    0.06807   0.07303   0.07938   0.08744   0.09382
 Alpha virt. eigenvalues --    0.10056   0.10423   0.10864   0.11419   0.11644
 Alpha virt. eigenvalues --    0.13242   0.13498   0.13823   0.14132   0.14355

  Beta  occ. eigenvalues --  -19.02985 -18.99532 -14.22920 -14.18817 -10.17597
  Beta  occ. eigenvalues --  -10.12532 -10.12503 -10.08805 -10.06425 -10.06383
  Beta  occ. eigenvalues --  -10.05944 -10.05888  -0.94962  -0.93248  -0.80584
  Beta  occ. eigenvalues --   -0.77941  -0.73354  -0.64528  -0.61010  -0.59962
  Beta  occ. eigenvalues --   -0.53768  -0.49413  -0.47512  -0.45652  -0.44206
  Beta  occ. eigenvalues --   -0.40870  -0.39089  -0.37843  -0.36331  -0.36014
  Beta  occ. eigenvalues --   -0.35053  -0.33569  -0.32357  -0.31113  -0.29594
  Beta  occ. eigenvalues --   -0.28298  -0.26882  -0.25248  -0.24021  -0.23740
  Beta  occ. eigenvalues --   -0.23557  -0.22581  -0.21026  -0.19072  -0.17715
  Beta  occ. eigenvalues --   -0.15164  -0.13804
  Beta virt. eigenvalues --    0.06845   0.07925   0.08035   0.08513   0.09322
  Beta virt. eigenvalues --    0.09767   0.10558   0.10580   0.11294   0.11731
  Beta virt. eigenvalues --    0.12217   0.13679   0.13837   0.14148   0.14414

 Mulliken charges and spin densities:
               1          2
     1  C   -0.496734   0.230954
     2  C    0.803615  -1.271742
     3  C    0.664667  -0.897405
     4  C   -2.010747   2.073909
     5  C    0.077229  -0.322546
     6  C    2.012464  -2.679670
     7  N   -0.418313   0.093650
     8  O   -0.037109   0.027920
     9  C    0.234698  -0.450609
    10  C    0.256363  -0.364323
    11  O   -0.338212   0.025626
    12  N   -0.224650  -0.051510
    13  H    0.105288   0.030582
    14  H   -0.193709   0.353628
    15  H   -0.138370   0.295242
    16  H    0.013441   0.114891
    17  H   -0.421367   0.593523
    18  H   -0.045784   0.203308
    19  H    0.007988   0.184345
    20  H    0.039565   0.088024
    21  H    0.052470   0.132125
    22  H   -0.799195   1.009279
    23  H    0.058770   0.189466
    24  H    0.205081   0.014106
    25  H    0.254730  -0.040393
    26  H   -0.128571   0.311484
    27  H   -0.091179   0.365638
    28  H   -0.442433   0.740496
 Sum of Mulliken charges =  -1.00000   1.00000

 Dipole moment (field-independent basis, Debye):
    X=             -1.7655    Y=              0.0949    Z=              4.4835  Tot=              4.8195
 Quadrupole moment (field-independent basis, Debye-Ang):
   XX=           -138.1442   YY=           -111.8940   ZZ=           -112.7481
   XY=              4.3481   XZ=              0.9628   YZ=             -2.7763

 Summary of Natural Population Analysis:

                                       Natural Population
                Natural  -----------------------------------------------
    Atom  No    Charge         Core      Valence    Rydberg      Total
 -----------------------------------------------------------------------
      C    1   -0.19022      0.99964     2.18353    0.00705     3.19022
      C    2   -0.19062      0.99964     2.18324    0.00774     3.19062
      C    3   -0.19649      0.99957     2.18655    0.01037     3.19649
      C    4    0.13966      0.99948     1.84174    0.01912     2.86034
      C    5   -0.20261      0.99957     2.19493    0.00811     3.20261
      C    6   -0.10726      0.99954     2.09487    0.01285     3.10726
      N    7   -0.43302      0.99976     2.92300    0.01026     3.93302
      O    8   -0.31660      0.99987     3.30559    0.01114     4.31660
      C    9   -0.05949      0.99952     2.04711    0.01287     3.05949
      C   10    0.32115      0.99971     1.65545    0.02369     2.67885
      O   11   -0.32797      0.99988     3.32215    0.00595     4.32797
      N   12   -0.39769      0.99970     2.88942    0.00857     3.89769
      H   13    0.09328      0.00000     0.40524    0.00147     0.40672
      H   14    0.09723      0.00000     0.40172    0.00105     0.40277
      H   15    0.09898      0.00000     0.40002    0.00100     0.40102
      H   16    0.09448      0.00000     0.40378    0.00174     0.40552
      H   17    0.10399      0.00000     0.39412    0.00190     0.39601
      H   18    0.10607      0.00000     0.39215    0.00179     0.39393
      H   19    0.10550      0.00000     0.39288    0.00162     0.39450
      H   20    0.10295      0.00000     0.39607    0.00098     0.39705
      H   21    0.09101      0.00000     0.40612    0.00287     0.40899
      H   22    0.10003      0.00000     0.39759    0.00239     0.39997
      H   23    0.17821      0.00000     0.32025    0.00154     0.32179
      H   24    0.18325      0.00000     0.31457    0.00218     0.31675
      H   25    0.10158      0.00000     0.39684    0.00158     0.39842
      H   26    0.10033      0.00000     0.39870    0.00097     0.39967
      H   27    0.20494      0.00000     0.29097    0.00409     0.29506
      H   28    0.19934      0.00000     0.29569    0.00496     0.30066
 =======================================================================
   * Total *    0.00000     11.99587    34.83428    0.16985    47.00000

 Normal termination of Gaussian 16 at Wed Dec  9 17:33:09 2020.
