 Gaussian 16, Revision A.03,

 -----------------------------------------------------------
 # opt freq B3LYP/6-31G(d) empiricaldispersion=gd3bj scf=xqc
 -----------------------------------------------------------

 --------------------------------
 CID_106988316_JID_10907_neutraal
 --------------------------------
 Symbolic Z-matrix:
 Charge =  0 Multiplicity = 1

 SCF Done:  E(RB3LYP) =  -1356.96968564     A.U. after   15 cycles
 SCF Done:  E(RB3LYP) =  -1356.97330963     A.U. after   13 cycles
 SCF Done:  E(RB3LYP) =  -1356.97061876     A.U. after   15 cycles
 SCF Done:  E(RB3LYP) =  -1356.97553908     A.U. after   12 cycles
 SCF Done:  E(RB3LYP) =  -1356.97548658     A.U. after   13 cycles
 SCF Done:  E(RB3LYP) =  -1356.97757755     A.U. after   13 cycles
 SCF Done:  E(RB3LYP) =  -1356.97987111     A.U. after   13 cycles
 SCF Done:  E(RB3LYP) =  -1356.97925205     A.U. after   12 cycles
 SCF Done:  E(RB3LYP) =  -1356.98202155     A.U. after   13 cycles
 SCF Done:  E(RB3LYP) =  -1356.98336670     A.U. after   13 cycles
 SCF Done:  E(RB3LYP) =  -1356.98546405     A.U. after    9 cycles
 SCF Done:  E(RB3LYP) =  -1356.98546704     A.U. after   10 cycles
 SCF Done:  E(RB3LYP) =  -1356.98546750     A.U. after    9 cycles
 SCF Done:  E(RB3LYP) =  -1356.98546762     A.U. after    8 cycles
 SCF Done:  E(RB3LYP) =  -1356.98546765     A.U. after    7 cycles
 Optimization completed.
    -- Stationary point found.
 Normal termination of Gaussian 16 at Sat Dec 12 17:07:22 2020.

 --------------------------------------------------------------------
 #N Geom=AllCheck Guess=TCheck SCRF=Check GenChk RB3LYP/6-31G(d) Freq
 --------------------------------------------------------------------

 Structure from the checkpoint file:  "JID_10907.chk"
 --------------------------------
 CID_106988316_JID_10907_neutraal
 --------------------------------
 Charge =  0 Multiplicity = 1

 SCF Done:  E(RB3LYP) =  -1356.98546765     A.U. after    1 cycles

  Exact polarizability: 196.976   0.741 191.131  22.290   9.848 135.395
 Approx polarizability: 274.797 -16.095 309.147  34.535  20.868 198.519

                      1                      2                      3
                      A                      A                      A
 Frequencies --     15.0503                20.9434                24.1629
 Red. masses --      4.1634                 3.4332                 3.0328
 Frc consts  --      0.0006                 0.0009                 0.0010
 IR Inten    --      0.0378                 0.6161                 0.5230

                      4                      5                      6
                      A                      A                      A
 Frequencies --     37.5442                50.2424                72.8016
 Red. masses --      7.3013                 4.3561                 3.9935
 Frc consts  --      0.0061                 0.0065                 0.0125
 IR Inten    --      1.3481                 0.2819                 2.5959

                      7                      8                      9
                      A                      A                      A
 Frequencies --     83.6651                91.2469                96.8787
 Red. masses --      5.4306                 5.8100                 7.5622
 Frc consts  --      0.0224                 0.0285                 0.0418
 IR Inten    --      1.6490                 1.2225                 1.2219

                     10                     11                     12
                      A                      A                      A
 Frequencies --    106.2279               135.3839               147.9308
 Red. masses --      2.7913                 3.8467                 3.9681
 Frc consts  --      0.0186                 0.0415                 0.0512
 IR Inten    --      4.7572                 0.7588                 0.9071

                     13                     14                     15
                      A                      A                      A
 Frequencies --    167.7971               175.4144               204.8950
 Red. masses --      4.8549                 3.5570                 2.0596
 Frc consts  --      0.0805                 0.0645                 0.0509
 IR Inten    --      0.9327                 1.2861                 1.2738

                     16                     17                     18
                      A                      A                      A
 Frequencies --    226.2425               234.8824               266.1667
 Red. masses --      1.5697                 1.7379                 4.7822
 Frc consts  --      0.0473                 0.0565                 0.1996
 IR Inten    --      5.3329                 1.3862                 1.0576

                     19                     20                     21
                      A                      A                      A
 Frequencies --    267.9588               294.3588               297.5330
 Red. masses --      2.8993                 3.8272                 2.0852
 Frc consts  --      0.1227                 0.1954                 0.1088
 IR Inten    --      4.0403                 5.2226                 0.3189

                     22                     23                     24
                      A                      A                      A
 Frequencies --    322.7435               334.3380               343.5526
 Red. masses --      4.8096                 3.7086                 3.9977
 Frc consts  --      0.2952                 0.2443                 0.2780
 IR Inten    --      2.1467                 1.5558                 9.2562

                     25                     26                     27
                      A                      A                      A
 Frequencies --    375.9388               401.9492               447.8355
 Red. masses --      4.4441                 3.5323                 3.5397
 Frc consts  --      0.3701                 0.3362                 0.4183
 IR Inten    --      2.5501                 1.9526                 3.5718

                     28                     29                     30
                      A                      A                      A
 Frequencies --    451.6488               508.6179               525.1586
 Red. masses --      2.7279                 5.6961                 1.0979
 Frc consts  --      0.3279                 0.8682                 0.1784
 IR Inten    --      6.3878                 4.0750                89.6346

                     31                     32                     33
                      A                      A                      A
 Frequencies --    567.8582               588.2438               600.8347
 Red. masses --      3.4493                 1.5656                 2.4812
 Frc consts  --      0.6553                 0.3192                 0.5277
 IR Inten    --     32.8941                63.0803                 6.7589

                     34                     35                     36
                      A                      A                      A
 Frequencies --    618.2303               643.4941               659.7921
 Red. masses --      3.3206                 5.5909                 2.9712
 Frc consts  --      0.7478                 1.3640                 0.7621
 IR Inten    --     15.6093                26.9778                15.7557

                     37                     38                     39
                      A                      A                      A
 Frequencies --    673.6480               706.9765               743.1367
 Red. masses --      3.4327                 4.3510                 4.1327
 Frc consts  --      0.9178                 1.2813                 1.3447
 IR Inten    --     12.7682                 8.9502                 9.7952

                     40                     41                     42
                      A                      A                      A
 Frequencies --    767.7305               807.5860               823.2432
 Red. masses --      7.3425                 1.3414                 2.7732
 Frc consts  --      2.5498                 0.5155                 1.1074
 IR Inten    --     44.5648                 4.5835                24.7719

                     43                     44                     45
                      A                      A                      A
 Frequencies --    828.5758               861.6886               863.2935
 Red. masses --      1.5552                 1.9782                 2.5542
 Frc consts  --      0.6291                 0.8654                 1.1216
 IR Inten    --     25.1323                 8.6774                12.2232

                     46                     47                     48
                      A                      A                      A
 Frequencies --    953.8779               957.2831               986.9906
 Red. masses --      2.2437                 2.0982                 3.8174
 Frc consts  --      1.2028                 1.1329                 2.1910
 IR Inten    --      5.5599                 7.8957                 8.1385

                     49                     50                     51
                      A                      A                      A
 Frequencies --    996.5800              1053.2481              1060.2842
 Red. masses --      2.8855                 2.7309                 2.0800
 Frc consts  --      1.6885                 1.7849                 1.3777
 IR Inten    --     20.0398                23.0753                 9.4507

                     52                     53                     54
                      A                      A                      A
 Frequencies --   1066.1803              1076.1874              1099.7235
 Red. masses --      3.9066                 2.8679                 1.5776
 Frc consts  --      2.6165                 1.9570                 1.1241
 IR Inten    --     85.3097                72.8037                 5.3296

                     55                     56                     57
                      A                      A                      A
 Frequencies --   1105.2077              1139.0441              1141.1200
 Red. masses --      2.8710                 2.6568                 4.5507
 Frc consts  --      2.0662                 2.0309                 3.4913
 IR Inten    --    144.7378                35.0246               137.1100

                     58                     59                     60
                      A                      A                      A
 Frequencies --   1163.3515              1166.5660              1179.8043
 Red. masses --      2.4609                 2.0565                 2.2800
 Frc consts  --      1.9623                 1.6489                 1.8698
 IR Inten    --     29.3900                37.9925                32.8206

                     61                     62                     63
                      A                      A                      A
 Frequencies --   1185.1579              1199.6432              1216.8504
 Red. masses --      3.1247                 1.4285                 2.0468
 Frc consts  --      2.5859                 1.2112                 1.7857
 IR Inten    --     46.3862                 2.2674               207.9111

                     64                     65                     66
                      A                      A                      A
 Frequencies --   1238.9879              1251.4085              1257.4144
 Red. masses --      1.6886                 1.2473                 1.5413
 Frc consts  --      1.5273                 1.1508                 1.4358
 IR Inten    --     46.2528                32.5032                70.8965

                     67                     68                     69
                      A                      A                      A
 Frequencies --   1277.9084              1293.8966              1319.7230
 Red. masses --      1.4413                 1.1704                 1.3793
 Frc consts  --      1.3868                 1.1545                 1.4154
 IR Inten    --     32.1283                13.4179                45.7756

                     70                     71                     72
                      A                      A                      A
 Frequencies --   1326.3355              1335.8962              1365.0939
 Red. masses --      1.1874                 1.1730                 1.4658
 Frc consts  --      1.2307                 1.2333                 1.6094
 IR Inten    --     12.1961                17.3976                13.1258

                     73                     74                     75
                      A                      A                      A
 Frequencies --   1377.3076              1386.1060              1402.5755
 Red. masses --      1.3117                 2.6775                 1.2624
 Frc consts  --      1.4660                 3.0309                 1.4632
 IR Inten    --     68.7790                19.0393                21.8652

                     76                     77                     78
                      A                      A                      A
 Frequencies --   1428.2254              1436.8382              1438.0187
 Red. masses --      1.4020                 1.3282                 1.2285
 Frc consts  --      1.6849                 1.6156                 1.4967
 IR Inten    --     48.6036                 6.6684                 8.6336

                     79                     80                     81
                      A                      A                      A
 Frequencies --   1453.1774              1458.4445              1478.6357
 Red. masses --      1.3634                 1.3435                 4.9700
 Frc consts  --      1.6964                 1.6838                 6.4022
 IR Inten    --     17.3482                53.2265               352.1844

                     82                     83                     84
                      A                      A                      A
 Frequencies --   1504.2546              1512.2399              1514.6992
 Red. masses --      1.1856                 1.1408                 1.0674
 Frc consts  --      1.5807                 1.5371                 1.4429
 IR Inten    --      1.5298                20.3026                 4.2809

                     85                     86                     87
                      A                      A                      A
 Frequencies --   1520.0132              1521.2478              1525.4505
 Red. masses --      1.5277                 1.5810                 1.1089
 Frc consts  --      2.0797                 2.1556                 1.5203
 IR Inten    --     25.9105                45.4696                 7.7203

                     88                     89                     90
                      A                      A                      A
 Frequencies --   1525.8825              1536.7439              1537.9466
 Red. masses --      1.0487                 1.1176                 1.1673
 Frc consts  --      1.4385                 1.5551                 1.6267
 IR Inten    --      8.6588                 0.6358                35.9659

                     91                     92                     93
                      A                      A                      A
 Frequencies --   1546.7780              1564.6444              1617.2729
 Red. masses --      1.1241                 1.0900                 6.1709
 Frc consts  --      1.5846                 1.5721                 9.5096
 IR Inten    --     10.8418                 2.2736               144.2955

                     94                     95                     96
                      A                      A                      A
 Frequencies --   1792.6122              2973.7948              2995.8976
 Red. masses --      9.1563                 1.0697                 1.0400
 Frc consts  --     17.3358                 5.5735                 5.4999
 IR Inten    --    436.2367                24.7726                58.2531

                     97                     98                     99
                      A                      A                      A
 Frequencies --   3006.4469              3040.6982              3050.7216
 Red. masses --      1.0715                 1.1032                 1.0610
 Frc consts  --      5.7065                 6.0097                 5.8177
 IR Inten    --     77.4765                60.3044                22.6634

                    100                    101                    102
                      A                      A                      A
 Frequencies --   3054.6579              3057.4374              3068.1867
 Red. masses --      1.0555                 1.0347                 1.0837
 Frc consts  --      5.8028                 5.6990                 6.0109
 IR Inten    --     32.4366                25.9695                11.7540

                    103                    104                    105
                      A                      A                      A
 Frequencies --   3070.6724              3088.3145              3089.6142
 Red. masses --      1.0866                 1.0694                 1.1025
 Frc consts  --      6.0368                 6.0096                 6.2004
 IR Inten    --      7.5364                36.1330                 6.8194

                    106                    107                    108
                      A                      A                      A
 Frequencies --   3106.4202              3110.3136              3130.1146
 Red. masses --      1.1043                 1.0965                 1.1031
 Frc consts  --      6.2784                 6.2498                 6.3680
 IR Inten    --     87.1461                12.1004                38.6027

                    109                    110                    111
                      A                      A                      A
 Frequencies --   3133.5855              3139.8247              3158.8509
 Red. masses --      1.1038                 1.0974                 1.1002
 Frc consts  --      6.3859                 6.3741                 6.4680
 IR Inten    --     25.4019                37.2638                13.3572

                    112                    113                    114
                      A                      A                      A
 Frequencies --   3235.7977              3668.3101              3690.2967
 Red. masses --      1.0927                 1.0651                 1.0640
 Frc consts  --      6.7411                 8.4446                 8.5370
 IR Inten    --      3.3351                42.7443                71.7095

 - Thermochemistry -
 -------------------
 Temperature   298.150 Kelvin.  Pressure   1.00000 Atm.
 Atom     1 has atomic number  6 and mass  12.00000

 Molecular mass:   304.09806 amu.
 Principal axes and moments of inertia in atomic units:
                           1         2         3
     Eigenvalues --  4928.794988486.64530**********
           X            0.99883   0.04469   0.01822
           Y           -0.04457   0.99898  -0.00688
           Z           -0.01851   0.00606   0.99981
 This molecule is an asymmetric top.
 Rotational symmetry number  1.
 Warning -- assumption of classical behavior for rotation
           may cause significant error
 Rotational temperatures (Kelvin)      0.01757     0.01021     0.00842
 Rotational constants (GHZ):           0.36616     0.21266     0.17534
 Zero-point vibrational energy     866373.1 (Joules/Mol)
                                  207.06815 (Kcal/Mol)
 Warning -- explicit consideration of  34 degrees of freedom as
           vibrations may cause significant error
 Vibrational temperatures:     21.65    30.13    34.76    54.02    72.29
          (Kelvin)            104.75   120.38   131.28   139.39   152.84
                              194.79   212.84   241.42   252.38   294.80
                              325.51   337.94   382.95   385.53   423.52
                              428.08   464.36   481.04   494.30   540.89
                              578.32   644.34   649.82   731.79   755.59
                              817.02   846.35   864.47   889.50   925.84
                              949.29   969.23  1017.18  1069.21  1104.59
                             1161.94  1184.46  1192.14  1239.78  1242.09
                             1372.42  1377.32  1420.06  1433.86  1515.39
                             1525.51  1534.00  1548.39  1582.26  1590.15
                             1638.83  1641.82  1673.80  1678.43  1697.48
                             1705.18  1726.02  1750.78  1782.63  1800.50
                             1809.14  1838.63  1861.63  1898.79  1908.30
                             1922.06  1964.07  1981.64  1994.30  2017.99
                             2054.90  2067.29  2068.99  2090.80  2098.38
                             2127.43  2164.29  2175.78  2179.31  2186.96
                             2188.74  2194.78  2195.40  2211.03  2212.76
                             2225.47  2251.17  2326.89  2579.17  4278.63
                             4310.43  4325.61  4374.89  4389.31  4394.97
                             4398.97  4414.44  4418.01  4443.40  4445.27
                             4469.45  4475.05  4503.54  4508.53  4517.51
                             4544.88  4655.59  5277.88  5309.51

 Zero-point correction=                           0.329984 (Hartree/Particle)
 Thermal correction to Energy=                    0.351977
 Thermal correction to Enthalpy=                  0.352921
 Thermal correction to Gibbs Free Energy=         0.275346
 Sum of electronic and zero-point Energies=          -1356.655484
 Sum of electronic and thermal Energies=             -1356.633491
 Sum of electronic and thermal Enthalpies=           -1356.632546
 Sum of electronic and thermal Free Energies=        -1356.710122

                     E (Thermal)             CV                S
                      KCal/Mol        Cal/Mol-Kelvin    Cal/Mol-Kelvin
 Total                  220.869             78.862            163.271
 Electronic               0.000              0.000              0.000
 Translational            0.889              2.981             43.033
 Rotational               0.889              2.981             34.420
 Vibrational            219.091             72.901             85.818
 Vibration     1          0.593              1.986              7.199
 Vibration     2          0.593              1.986              6.543
 Vibration     3          0.593              1.985              6.259
 Vibration     4          0.594              1.982              5.385
 Vibration     5          0.595              1.977              4.808
 Vibration     6          0.599              1.967              4.076
 Vibration     7          0.601              1.960              3.803
 Vibration     8          0.602              1.955              3.633
 Vibration     9          0.603              1.951              3.516
 Vibration    10          0.605              1.944              3.337
 Vibration    11          0.613              1.918              2.868
 Vibration    12          0.617              1.905              2.699
 Vibration    13          0.625              1.882              2.460
 Vibration    14          0.627              1.873              2.377
 Vibration    15          0.640              1.833              2.089
 Vibration    16          0.650              1.801              1.909
 Vibration    17          0.655              1.787              1.841
 Vibration    18          0.672              1.735              1.621
 Vibration    19          0.673              1.732              1.609
 Vibration    20          0.689              1.684              1.449
 Vibration    21          0.691              1.678              1.431
 Vibration    22          0.708              1.630              1.296
 Vibration    23          0.716              1.607              1.239
 Vibration    24          0.722              1.588              1.196
 Vibration    25          0.747              1.521              1.055
 Vibration    26          0.768              1.466              0.956
 Vibration    27          0.807              1.366              0.802
 Vibration    28          0.810              1.357              0.791
 Vibration    29          0.864              1.231              0.637
 Vibration    30          0.880              1.194              0.598
 Vibration    31          0.924              1.101              0.508
 Vibration    32          0.945              1.057              0.470
 Vibration    33          0.959              1.030              0.448
 Vibration    34          0.978              0.993              0.419

                           ! Non-Optimized Parameters !
 Normal termination of Gaussian 16 at Sat Dec 12 17:27:26 2020.

 ----------------------------------------------------------------------
 # B3LYP/6-311++G(d,p) empiricaldispersion=gd3bj scf=xqc pop=npa geom=c
 heck
 ----------------------------------------------------------------------

 ----------------------------------------
 CID_106988316_JID_10907_Energie_neutraal
 ----------------------------------------
 Structure from the checkpoint file:  "JID_10907.chk"
 Charge =  0 Multiplicity = 1

 SCF Done:  E(RB3LYP) =  -1357.30653691     A.U. after   16 cycles
 Normal termination of Gaussian 16 at Sat Dec 12 17:37:29 2020.

 ----------------------------------------------------------------------
 # B3LYP/6-311++G(d,p) empiricaldispersion=gd3bj scf=xqc pop=npa geom=c
 heck
 ----------------------------------------------------------------------

 --------------------------------------
 CID_106988316_JID_10907_Energie_kation
 --------------------------------------
 Structure from the checkpoint file:  "JID_10907.chk"
 Charge =  1 Multiplicity = 2

 SCF Done:  E(UB3LYP) =  -1357.00498035     A.U. after   33 cycles
 SCF Done:  E(UB3LYP) =  -1357.00498035     a.u. after    1 cycles
 Normal termination of Gaussian 16 at Sat Dec 12 18:06:51 2020.
 Gaussian 16:  ES64L-G16RevA.03 25-Dec-2016

 ----------------------------------------------------------------------
 # B3LYP/6-311++G(d,p) empiricaldispersion=gd3bj scf=xqc pop=npa geom=c
 heck
 ----------------------------------------------------------------------

 -------------------------------------
 CID_106988316_JID_10907_Energie_anion
 -------------------------------------
 Structure from the checkpoint file:  "JID_10907.chk"
 Charge = -1 Multiplicity = 2

                         Standard orientation:
 ---------------------------------------------------------------------
 Center     Atomic      Atomic             Coordinates (Angstroms)
 Number     Number       Type             X           Y           Z
 ---------------------------------------------------------------------
      1          6           0        4.372232    1.244234    2.186479
      2          6           0        4.167934    1.603779    0.704945
      3          6           0        2.999413    0.894498    0.084388
      4          6           0        1.793755    1.443534   -0.277448
      5          6           0        0.881891    0.482291   -0.810451
      6          6           0        1.411617   -0.802257   -0.842412
      7         16           0        3.046707   -0.814710   -0.218698
      8          6           0        0.854356   -2.067587   -1.285977
      9          8           0        1.454066   -3.129256   -1.261718
     10          8           0       -0.430439   -1.980575   -1.734948
     11          8           0       -0.366827    0.736442   -1.243206
     12          6           0       -0.949051    2.011109   -0.950800
     13          6           0       -2.458216    1.898373   -1.179303
     14          6           0       -3.099856    0.734554   -0.422065
     15          8           0       -3.124143    1.006592    0.979160
     16          6           0       -2.095938    0.476589    1.811982
     17          6           0       -1.690640   -0.962069    1.540452
     18          8           0       -2.836052   -1.785955    1.570807
     19          6           0       -2.526684   -3.131428    1.275403
     20          8           0       -3.054839    3.126835   -0.792427
     21          1           0        3.478422    1.486537    2.770577
     22          1           0        5.219051    1.799377    2.603464
     23          1           0        4.572516    0.174676    2.307224
     24          1           0        4.001496    2.682440    0.604566
     25          1           0        5.082586    1.374301    0.144063
     26          1           0        1.575280    2.499717   -0.178972
     27          1           0       -0.658887   -2.889969   -2.003938
     28          1           0       -0.756300    2.288368    0.091303
     29          1           0       -0.522350    2.784294   -1.600282
     30          1           0       -2.646430    1.762331   -2.250865
     31          1           0       -4.150459    0.666690   -0.721695
     32          1           0       -2.610168   -0.210864   -0.659802
     33          1           0       -1.181923    1.089961    1.769406
     34          1           0       -2.503682    0.554011    2.824287
     35          1           0       -1.174358   -1.055297    0.576396
     36          1           0       -0.965584   -1.254887    2.320962
     37          1           0       -1.842912   -3.566290    2.022082
     38          1           0       -3.466307   -3.689364    1.284722
     39          1           0       -2.056854   -3.227431    0.284163
     40          1           0       -3.239461    3.020372    0.159007
 ---------------------------------------------------------------------

 SCF Done:  E(UB3LYP) =  -1357.31768202     A.U. after   30 cycles

 The electronic state is 2-A.
 Alpha  occ. eigenvalues --  -88.72204 -19.04415 -19.04070 -19.03738 -19.03592
 Alpha  occ. eigenvalues --  -19.02856 -18.95092 -10.14162 -10.13393 -10.13334
 Alpha  occ. eigenvalues --  -10.12801 -10.12595 -10.12503 -10.12356 -10.09639
 Alpha  occ. eigenvalues --  -10.06218 -10.05282 -10.05209 -10.04471 -10.03670
 Alpha  occ. eigenvalues --   -7.80852  -5.77161  -5.76802  -5.76428  -0.96639
 Alpha  occ. eigenvalues --   -0.96303  -0.95608  -0.94949  -0.93229  -0.86639
 Alpha  occ. eigenvalues --   -0.74255  -0.69091  -0.67229  -0.65843  -0.62085
 Alpha  occ. eigenvalues --   -0.60382  -0.58711  -0.57133  -0.53199  -0.53040
 Alpha  occ. eigenvalues --   -0.49628  -0.47985  -0.44237  -0.43181  -0.42472
 Alpha  occ. eigenvalues --   -0.41563  -0.41091  -0.40228  -0.39210  -0.37540
 Alpha  occ. eigenvalues --   -0.37242  -0.35789  -0.35338  -0.34292  -0.34154
 Alpha  occ. eigenvalues --   -0.33193  -0.32399  -0.31532  -0.31193  -0.30775
 Alpha  occ. eigenvalues --   -0.30452  -0.28356  -0.27855  -0.27347  -0.26828
 Alpha  occ. eigenvalues --   -0.25761  -0.25154  -0.24792  -0.24369  -0.23227
 Alpha  occ. eigenvalues --   -0.22158  -0.21462  -0.20725  -0.19994  -0.19706
 Alpha  occ. eigenvalues --   -0.18463  -0.17567  -0.17481  -0.13722  -0.11195
 Alpha  occ. eigenvalues --   -0.09077   0.04104
 Alpha virt. eigenvalues --    0.06796   0.07269   0.07728   0.08317   0.09080
 Alpha virt. eigenvalues --    0.09513   0.09922   0.10171   0.10355   0.11075
 Alpha virt. eigenvalues --    0.11321   0.12079   0.12739   0.13178   0.13381

  Beta  occ. eigenvalues --  -88.72152 -19.04415 -19.04070 -19.03738 -19.03535
  Beta  occ. eigenvalues --  -19.02793 -18.94865 -10.13917 -10.13394 -10.13332
  Beta  occ. eigenvalues --  -10.12799 -10.12595 -10.12499 -10.12356 -10.09382
  Beta  occ. eigenvalues --  -10.06251 -10.05220 -10.04702 -10.04401 -10.03761
  Beta  occ. eigenvalues --   -7.80805  -5.77142  -5.76783  -5.76249  -0.96578
  Beta  occ. eigenvalues --   -0.96106  -0.95507  -0.94891  -0.93227  -0.86285
  Beta  occ. eigenvalues --   -0.73855  -0.69048  -0.67090  -0.65717  -0.62031
  Beta  occ. eigenvalues --   -0.60058  -0.58576  -0.56918  -0.53152  -0.52688
  Beta  occ. eigenvalues --   -0.49573  -0.47828  -0.44132  -0.43095  -0.42428
  Beta  occ. eigenvalues --   -0.41470  -0.40966  -0.40010  -0.39133  -0.37504
  Beta  occ. eigenvalues --   -0.37201  -0.35686  -0.35185  -0.34209  -0.33956
  Beta  occ. eigenvalues --   -0.32982  -0.32242  -0.31426  -0.30878  -0.30490
  Beta  occ. eigenvalues --   -0.30002  -0.28312  -0.27500  -0.27198  -0.26584
  Beta  occ. eigenvalues --   -0.25560  -0.25118  -0.24567  -0.24112  -0.23077
  Beta  occ. eigenvalues --   -0.22144  -0.21313  -0.20409  -0.19655  -0.19455
  Beta  occ. eigenvalues --   -0.17822  -0.17453  -0.17163  -0.13502  -0.10342
  Beta  occ. eigenvalues --   -0.07429
  Beta virt. eigenvalues --    0.06782   0.07199   0.07759   0.08170   0.09070
  Beta virt. eigenvalues --    0.09463   0.09839   0.10134   0.10208   0.10590
  Beta virt. eigenvalues --    0.11150   0.11383   0.12043   0.12739   0.13205

 Mulliken charges and spin densities:
               1          2
     1  C   -0.048665  -0.555570
     2  C   -0.622660   0.282699
     3  C    0.429359   0.409408
     4  C    0.115570  -0.423554
     5  C   -0.012955   0.007697
     6  C    0.012849   0.046391
     7  S   -0.559183   0.210235
     8  C    0.002989   0.160032
     9  O   -0.361509   0.079103
    10  O   -0.227806   0.009518
    11  O   -0.061094   0.013149
    12  C   -0.033113  -0.044703
    13  C   -0.435981  -0.020688
    14  C   -0.340967  -0.002368
    15  O   -0.098481   0.000221
    16  C   -0.368594  -0.007400
    17  C   -0.374825   0.004092
    18  O   -0.095650   0.001201
    19  C   -0.197900  -0.026632
    20  O   -0.172591   0.000360
    21  H    0.105320   0.026798
    22  H   -0.219189   0.330827
    23  H    0.133746   0.001901
    24  H   -0.018438   0.160271
    25  H   -0.064129   0.223027
    26  H    0.097683   0.024118
    27  H    0.289885  -0.002718
    28  H    0.130880   0.005290
    29  H    0.136098   0.040354
    30  H    0.192277   0.001267
    31  H    0.188787   0.000488
    32  H    0.200499  -0.000980
    33  H    0.139642   0.003698
    34  H    0.175443   0.001708
    35  H    0.240904   0.011435
    36  H    0.121788   0.004868
    37  H    0.105042   0.010264
    38  H    0.142537  -0.002340
    39  H    0.098992   0.016210
    40  H    0.253437   0.000324
 Sum of Mulliken charges =  -1.00000   1.00000

 Dipole moment (field-independent basis, Debye):
    X=             -7.7283    Y=              0.9824    Z=              1.7860  Tot=              7.9926
 Quadrupole moment (field-independent basis, Debye-Ang):
   XX=           -196.9762   YY=           -161.9913   ZZ=           -144.9391
   XY=             10.1914   XZ=             -0.0137   YZ=             -3.8985

 Summary of Natural Population Analysis:

                                       Natural Population
                Natural  -----------------------------------------------
    Atom  No    Charge         Core      Valence    Rydberg      Total
 -----------------------------------------------------------------------
      C    1   -0.27646      0.99966     2.27096    0.00584     3.27646
      C    2   -0.20985      0.99959     2.20018    0.01008     3.20985
      C    3    0.01157      0.99952     1.97596    0.01295     2.98843
      C    4   -0.20266      0.99943     2.19342    0.00981     3.20266
      C    5    0.20179      0.99932     1.78461    0.01428     2.79821
      C    6   -0.18875      0.99942     2.17604    0.01328     3.18875
      S    7    0.22789      4.99941     2.75166    0.02105     7.77211
      C    8    0.40496      0.99959     1.57035    0.02510     2.59504
      O    9   -0.31470      0.99987     3.30903    0.00580     4.31470
      O   10   -0.35157      0.99988     3.34444    0.00725     4.35157
      O   11   -0.27103      0.99984     3.26138    0.00982     4.27103
      C   12   -0.01778      0.99955     2.00782    0.01041     3.01778
      C   13    0.04512      0.99958     1.94302    0.01229     2.95488
      C   14   -0.02669      0.99955     2.01529    0.01185     3.02669
      O   15   -0.31435      0.99989     3.30271    0.01175     4.31435
      C   16   -0.01353      0.99957     2.00292    0.01104     3.01353
      C   17   -0.03498      0.99959     2.02560    0.00980     3.03498
      O   18   -0.30069      0.99988     3.28989    0.01092     4.30069
      C   19   -0.09890      0.99963     2.09082    0.00845     3.09890
      O   20   -0.37455      0.99990     3.36811    0.00655     4.37455
      H   21    0.09483      0.00000     0.40414    0.00103     0.40517
      H   22    0.09260      0.00000     0.40565    0.00175     0.40740
      H   23    0.09816      0.00000     0.40095    0.00089     0.40184
      H   24    0.09796      0.00000     0.40089    0.00115     0.40204
      H   25    0.10410      0.00000     0.39432    0.00158     0.39590
      H   26    0.09968      0.00000     0.39901    0.00131     0.40032
      H   27    0.22732      0.00000     0.26807    0.00461     0.27268
      H   28    0.08393      0.00000     0.41470    0.00138     0.41607
      H   29    0.08771      0.00000     0.41034    0.00195     0.41229
      H   30    0.08734      0.00000     0.41135    0.00131     0.41266
      H   31    0.08836      0.00000     0.41064    0.00101     0.41164
      H   32    0.10531      0.00000     0.39342    0.00127     0.39469
      H   33    0.08493      0.00000     0.41385    0.00122     0.41507
      H   34    0.08783      0.00000     0.41104    0.00114     0.41217
      H   35    0.10155      0.00000     0.39604    0.00240     0.39845
      H   36    0.08432      0.00000     0.41440    0.00128     0.41568
      H   37    0.07673      0.00000     0.42198    0.00129     0.42327
      H   38    0.08493      0.00000     0.41423    0.00084     0.41507
      H   39    0.08448      0.00000     0.41388    0.00164     0.41552
      H   40    0.23310      0.00000     0.26425    0.00265     0.26690
 =======================================================================
   * Total *    0.00000     23.99265    56.74736    0.25999    81.00000

 Normal termination of Gaussian 16 at Sat Dec 12 18:32:45 2020.
