 Gaussian 16, Revision A.03,

 -----------------------------------------------------------
 # opt freq B3LYP/6-31G(d) empiricaldispersion=gd3bj scf=xqc
 -----------------------------------------------------------

 ------------------------------
 CID_84198093_JID_9169_neutraal
 ------------------------------
 Symbolic Z-matrix:
 Charge =  0 Multiplicity = 1

 SCF Done:  E(RB3LYP) =  -849.883110007     A.U. after   14 cycles
 SCF Done:  E(RB3LYP) =  -849.888222484     A.U. after   12 cycles
 SCF Done:  E(RB3LYP) =  -849.887981705     A.U. after   12 cycles
 SCF Done:  E(RB3LYP) =  -849.889078712     A.U. after   11 cycles
 SCF Done:  E(RB3LYP) =  -849.889365923     A.U. after   12 cycles
 SCF Done:  E(RB3LYP) =  -849.889519695     A.U. after   11 cycles
 SCF Done:  E(RB3LYP) =  -849.889563046     A.U. after   10 cycles
 SCF Done:  E(RB3LYP) =  -849.889587049     A.U. after   10 cycles
 SCF Done:  E(RB3LYP) =  -849.889592109     A.U. after    9 cycles
 SCF Done:  E(RB3LYP) =  -849.889595070     A.U. after    8 cycles
 SCF Done:  E(RB3LYP) =  -849.894011215     A.U. after   11 cycles
 SCF Done:  E(RB3LYP) =  -849.894064575     A.U. after   10 cycles
 SCF Done:  E(RB3LYP) =  -849.894086528     A.U. after   10 cycles
 SCF Done:  E(RB3LYP) =  -849.894088361     A.U. after    7 cycles
 SCF Done:  E(RB3LYP) =  -849.894088840     A.U. after    7 cycles
 SCF Done:  E(RB3LYP) =  -849.894088912     A.U. after    7 cycles
 Optimization completed.
    -- Stationary point found.
 Normal termination of Gaussian 16 at Sun Dec 13 13:07:00 2020.

 --------------------------------------------------------------------
 #N Geom=AllCheck Guess=TCheck SCRF=Check GenChk RB3LYP/6-31G(d) Freq
 --------------------------------------------------------------------

 Structure from the checkpoint file:  "JID_9169.chk"
 ------------------------------
 CID_84198093_JID_9169_neutraal
 ------------------------------
 Charge =  0 Multiplicity = 1

 SCF Done:  E(RB3LYP) =  -849.894088912     A.U. after    1 cycles

  Exact polarizability: 209.658 -13.418 177.248  15.651  13.754 141.663
 Approx polarizability: 280.883 -26.531 257.599  33.415  33.663 224.592

                      1                      2                      3
                      A                      A                      A
 Frequencies --     26.6893                46.5029                57.2399
 Red. masses --      4.1551                 3.7198                 3.3569
 Frc consts  --      0.0017                 0.0047                 0.0065
 IR Inten    --      0.1308                 0.3047                 0.8027

                      4                      5                      6
                      A                      A                      A
 Frequencies --     79.8585                93.9732               111.0148
 Red. masses --      3.2540                 3.0330                 3.0781
 Frc consts  --      0.0122                 0.0158                 0.0224
 IR Inten    --      2.8139                 3.2720                 1.6840

                      7                      8                      9
                      A                      A                      A
 Frequencies --    121.4856               136.8124               140.2694
 Red. masses --      2.4984                 1.2173                 1.3831
 Frc consts  --      0.0217                 0.0134                 0.0160
 IR Inten    --      1.5040                 0.4331                 1.3293

                     10                     11                     12
                      A                      A                      A
 Frequencies --    158.9255               165.3721               199.6049
 Red. masses --      3.0089                 2.8664                 2.3838
 Frc consts  --      0.0448                 0.0462                 0.0560
 IR Inten    --      1.3081                 1.4187                 1.0293

                     13                     14                     15
                      A                      A                      A
 Frequencies --    221.4796               233.2732               286.7720
 Red. masses --      1.8766                 3.2425                 3.5048
 Frc consts  --      0.0542                 0.1040                 0.1698
 IR Inten    --      0.4021                 1.6146                 2.4667

                     16                     17                     18
                      A                      A                      A
 Frequencies --    289.4321               294.9610               296.3687
 Red. masses --      1.6859                 2.6257                 1.5426
 Frc consts  --      0.0832                 0.1346                 0.0798
 IR Inten    --      0.4149                 7.7860                30.2233

                     19                     20                     21
                      A                      A                      A
 Frequencies --    327.1783               333.8596               357.2885
 Red. masses --      1.7458                 1.7659                 2.2029
 Frc consts  --      0.1101                 0.1160                 0.1657
 IR Inten    --     42.9967                 2.2361                14.4389

                     22                     23                     24
                      A                      A                      A
 Frequencies --    388.7134               398.4754               440.7399
 Red. masses --      4.8284                 3.5489                 3.2027
 Frc consts  --      0.4298                 0.3320                 0.3666
 IR Inten    --     17.7707                14.3145                 0.8676

                     25                     26                     27
                      A                      A                      A
 Frequencies --    445.4708               454.1097               472.3564
 Red. masses --      4.0597                 3.4182                 3.9501
 Frc consts  --      0.4747                 0.4153                 0.5193
 IR Inten    --      1.7334                 8.4170                 4.3005

                     28                     29                     30
                      A                      A                      A
 Frequencies --    503.5098               520.2656               556.2929
 Red. masses --      3.4055                 5.1122                 2.1197
 Frc consts  --      0.5087                 0.8153                 0.3865
 IR Inten    --      2.7649                 2.4135                 1.5532

                     31                     32                     33
                      A                      A                      A
 Frequencies --    600.9971               612.3119               678.6414
 Red. masses --      3.3890                 3.3572                 4.2573
 Frc consts  --      0.7212                 0.7416                 1.1552
 IR Inten    --      1.9403                 0.7518                 6.5250

                     34                     35                     36
                      A                      A                      A
 Frequencies --    704.6428               744.0440               770.0958
 Red. masses --      4.8005                 5.0022                 2.9562
 Frc consts  --      1.4043                 1.6316                 1.0329
 IR Inten    --      4.6744                 1.8730                 2.7578

                     37                     38                     39
                      A                      A                      A
 Frequencies --    786.5184               830.9116               854.4627
 Red. masses --      2.6809                 2.3223                 2.1095
 Frc consts  --      0.9771                 0.9447                 0.9074
 IR Inten    --      2.9748                12.7863                 2.0320

                     40                     41                     42
                      A                      A                      A
 Frequencies --    862.2264               872.7692               896.5753
 Red. masses --      1.6845                 1.8565                 1.8750
 Frc consts  --      0.7379                 0.8332                 0.8880
 IR Inten    --      4.1813                15.7185                 1.5626

                     43                     44                     45
                      A                      A                      A
 Frequencies --    901.0625               925.9435               941.8304
 Red. masses --      1.4343                 1.5930                 2.1732
 Frc consts  --      0.6861                 0.8047                 1.1358
 IR Inten    --      9.3730                 9.3048                13.1624

                     46                     47                     48
                      A                      A                      A
 Frequencies --    983.0172              1019.8137              1034.8973
 Red. masses --      2.1113                 3.8438                 1.5736
 Frc consts  --      1.2021                 2.3554                 0.9930
 IR Inten    --     12.5757                31.8073                18.7746

                     49                     50                     51
                      A                      A                      A
 Frequencies --   1056.1756              1066.6366              1074.7774
 Red. masses --      2.9844                 1.5346                 1.4786
 Frc consts  --      1.9615                 1.0287                 1.0063
 IR Inten    --      4.4224                 4.2561                 1.3472

                     52                     53                     54
                      A                      A                      A
 Frequencies --   1077.6016              1084.3396              1085.2960
 Red. masses --      1.5641                 5.7620                 2.1324
 Frc consts  --      1.0701                 3.9917                 1.4798
 IR Inten    --      4.3841               108.7354                68.8979

                     55                     56                     57
                      A                      A                      A
 Frequencies --   1107.4314              1126.0632              1148.5416
 Red. masses --      2.6735                 1.9389                 2.9888
 Frc consts  --      1.9318                 1.4485                 2.3229
 IR Inten    --      2.0999                 0.6715                36.8574

                     58                     59                     60
                      A                      A                      A
 Frequencies --   1166.3002              1186.6817              1187.5731
 Red. masses --      1.9101                 1.2581                 1.2728
 Frc consts  --      1.5309                 1.0439                 1.0576
 IR Inten    --      3.8289                 1.3389                 0.8317

                     61                     62                     63
                      A                      A                      A
 Frequencies --   1209.3120              1215.9312              1222.4193
 Red. masses --      1.8000                 1.4975                 1.4812
 Frc consts  --      1.5510                 1.3045                 1.3041
 IR Inten    --      1.2835                43.0198                 3.2938

                     64                     65                     66
                      A                      A                      A
 Frequencies --   1226.5350              1240.4208              1255.1788
 Red. masses --      1.4790                 1.4039                 2.7915
 Frc consts  --      1.3109                 1.2727                 2.5911
 IR Inten    --      0.6566                15.5810               223.3628

                     67                     68                     69
                      A                      A                      A
 Frequencies --   1267.6249              1276.7148              1299.4407
 Red. masses --      1.3698                 1.4781                 1.7107
 Frc consts  --      1.2968                 1.4195                 1.7019
 IR Inten    --      5.2669                30.8895                25.1383

                     70                     71                     72
                      A                      A                      A
 Frequencies --   1313.2660              1330.0711              1339.4797
 Red. masses --      1.3158                 2.0413                 1.3564
 Frc consts  --      1.3370                 2.1277                 1.4339
 IR Inten    --      2.1943                 4.3990                 5.7645

                     73                     74                     75
                      A                      A                      A
 Frequencies --   1347.4263              1372.9199              1378.7262
 Red. masses --      1.6103                 1.6887                 2.3869
 Frc consts  --      1.7225                 1.8754                 2.6732
 IR Inten    --      9.6462                12.6038                15.7069

                     76                     77                     78
                      A                      A                      A
 Frequencies --   1387.9329              1394.8524              1401.8472
 Red. masses --      1.4895                 1.4095                 1.4908
 Frc consts  --      1.6906                 1.6158                 1.7261
 IR Inten    --      1.5304                 0.0893                 3.0248

                     79                     80                     81
                      A                      A                      A
 Frequencies --   1410.2504              1421.8618              1437.3044
 Red. masses --      1.5348                 1.5384                 1.8143
 Frc consts  --      1.7984                 1.8324                 2.2083
 IR Inten    --      3.4696                 9.4734                79.3758

                     82                     83                     84
                      A                      A                      A
 Frequencies --   1444.3037              1448.3104              1500.0408
 Red. masses --      1.2502                 1.6370                 1.1986
 Frc consts  --      1.5366                 2.0232                 1.5890
 IR Inten    --     38.3508                28.0694                 1.6806

                     85                     86                     87
                      A                      A                      A
 Frequencies --   1504.0791              1507.7543              1510.6884
 Red. masses --      1.2539                 1.0448                 1.0596
 Frc consts  --      1.6713                 1.3995                 1.4248
 IR Inten    --      5.1162                 4.9741                 5.4457

                     88                     89                     90
                      A                      A                      A
 Frequencies --   1514.1894              1516.6113              1517.4885
 Red. masses --      1.0969                 1.0999                 1.0924
 Frc consts  --      1.4818                 1.4906                 1.4821
 IR Inten    --      0.1921                 1.3722                 7.2405

                     91                     92                     93
                      A                      A                      A
 Frequencies --   1519.8937              1520.9972              1524.8755
 Red. masses --      1.0499                 1.0829                 1.2002
 Frc consts  --      1.4290                 1.4760                 1.6443
 IR Inten    --      4.7972                10.8808                 1.1629

                     94                     95                     96
                      A                      A                      A
 Frequencies --   1533.7677              1534.8547              1536.2861
 Red. masses --      1.1011                 1.0723                 1.0807
 Frc consts  --      1.5262                 1.4883                 1.5028
 IR Inten    --      0.8973                55.6996                28.2503

                     97                     98                     99
                      A                      A                      A
 Frequencies --   1561.5732              1634.7412              1672.4653
 Red. masses --      2.5364                 7.4533                 6.4189
 Frc consts  --      3.6442                11.7353                10.5786
 IR Inten    --    128.0886                 0.9263                13.3270

                    100                    101                    102
                      A                      A                      A
 Frequencies --   2963.2672              2996.3295              3021.3794
 Red. masses --      1.0816                 1.0709                 1.0351
 Frc consts  --      5.5960                 5.6646                 5.5674
 IR Inten    --     38.9316                42.4522                81.8966

                    103                    104                    105
                      A                      A                      A
 Frequencies --   3021.7997              3022.0876              3031.8186
 Red. masses --      1.0634                 1.0406                 1.0623
 Frc consts  --      5.7209                 5.5992                 5.7531
 IR Inten    --     43.0774                24.0678                28.0126

                    106                    107                    108
                      A                      A                      A
 Frequencies --   3036.9005              3048.9443              3053.4232
 Red. masses --      1.0619                 1.0362                 1.0683
 Frc consts  --      5.7704                 5.6753                 5.8683
 IR Inten    --     29.4936                36.6267                35.9427

                    109                    110                    111
                      A                      A                      A
 Frequencies --   3070.4103              3075.6934              3078.4577
 Red. masses --      1.0964                 1.0991                 1.1064
 Frc consts  --      6.0899                 6.1258                 6.1775
 IR Inten    --     46.3839                47.8364                43.9853

                    112                    113                    114
                      A                      A                      A
 Frequencies --   3081.5753              3082.0315              3084.3976
 Red. masses --      1.1033                 1.1018                 1.0922
 Frc consts  --      6.1729                 6.1663                 6.1217
 IR Inten    --     18.1645                83.7627                42.6658

                    115                    116                    117
                      A                      A                      A
 Frequencies --   3100.3947              3118.1238              3129.2697
 Red. masses --      1.1003                 1.0945                 1.0863
 Frc consts  --      6.2318                 6.2700                 6.2675
 IR Inten    --     18.0221                12.4938                14.5319

                    118                    119                    120
                      A                      A                      A
 Frequencies --   3131.5086              3154.3583              3162.4225
 Red. masses --      1.1026                 1.0995                 1.1000
 Frc consts  --      6.3705                 6.4457                 6.4815
 IR Inten    --     18.7328                31.0603                27.2144

                    121                    122                    123
                      A                      A                      A
 Frequencies --   3194.2927              3215.0997              3711.7229
 Red. masses --      1.0905                 1.0887                 1.0656
 Frc consts  --      6.5557                 6.6306                 8.6497
 IR Inten    --     12.2925                 9.8773                 5.2576

 - Thermochemistry -
 -------------------
 Temperature   298.150 Kelvin.  Pressure   1.00000 Atm.
 Atom     1 has atomic number  6 and mass  12.00000

 Molecular mass:   264.17254 amu.
 Principal axes and moments of inertia in atomic units:
                           1         2         3
     Eigenvalues --  3269.880487384.397449092.31167
           X            0.99997   0.00805  -0.00047
           Y           -0.00805   0.99996   0.00261
           Z            0.00049  -0.00261   1.00000
 This molecule is an asymmetric top.
 Rotational symmetry number  1.
 Warning -- assumption of classical behavior for rotation
           may cause significant error
 Rotational temperatures (Kelvin)      0.02649     0.01173     0.00953
 Rotational constants (GHZ):           0.55193     0.24440     0.19849
 Zero-point vibrational energy     995201.0 (Joules/Mol)
                                  237.85876 (Kcal/Mol)
 Warning -- explicit consideration of  32 degrees of freedom as
           vibrations may cause significant error
 Vibrational temperatures:     38.40    66.91    82.36   114.90   135.21
          (Kelvin)            159.73   174.79   196.84   201.82   228.66
                              237.93   287.19   318.66   335.63   412.60
                              416.43   424.38   426.41   470.74   480.35
                              514.06   559.27   573.32   634.13   640.93
                              653.36   679.62   724.44   748.55   800.38
                              864.70   880.98   976.41  1013.82  1070.51
                             1108.00  1131.62  1195.50  1229.38  1240.55
                             1255.72  1289.97  1296.43  1332.23  1355.08
                             1414.34  1467.28  1488.99  1519.60  1534.65
                             1546.36  1550.43  1560.12  1561.50  1593.35
                             1620.15  1652.50  1678.05  1707.37  1708.65
                             1739.93  1749.45  1758.79  1764.71  1784.69
                             1805.92  1823.83  1836.91  1869.61  1889.50
                             1913.68  1927.21  1938.65  1975.33  1983.68
                             1996.93  2006.88  2016.95  2029.04  2045.74
                             2067.96  2078.03  2083.80  2158.22  2164.03
                             2169.32  2173.54  2178.58  2182.07  2183.33
                             2186.79  2188.38  2193.96  2206.75  2208.31
                             2210.37  2246.76  2352.03  2406.30  4263.48
                             4311.05  4347.09  4347.70  4348.11  4362.11
                             4369.42  4386.75  4393.20  4417.64  4425.24
                             4429.21  4433.70  4434.36  4437.76  4460.78
                             4486.28  4502.32  4505.54  4538.42  4550.02
                             4595.87  4625.81  5340.34

 Zero-point correction=                           0.379052 (Hartree/Particle)
 Thermal correction to Energy=                    0.398635
 Thermal correction to Enthalpy=                  0.399579
 Thermal correction to Gibbs Free Energy=         0.331196
 Sum of electronic and zero-point Energies=           -849.515037
 Sum of electronic and thermal Energies=              -849.495454
 Sum of electronic and thermal Enthalpies=            -849.494509
 Sum of electronic and thermal Free Energies=         -849.562893

                     E (Thermal)             CV                S
                      KCal/Mol        Cal/Mol-Kelvin    Cal/Mol-Kelvin
 Total                  250.147             74.813            143.924
 Electronic               0.000              0.000              0.000
 Translational            0.889              2.981             42.614
 Rotational               0.889              2.981             33.751
 Vibrational            248.370             68.851             67.560
 Vibration     1          0.593              1.984              6.061
 Vibration     2          0.595              1.979              4.961
 Vibration     3          0.596              1.975              4.550
 Vibration     4          0.600              1.963              3.894
 Vibration     5          0.603              1.953              3.576
 Vibration     6          0.607              1.940              3.251
 Vibration     7          0.609              1.931              3.077
 Vibration     8          0.614              1.917              2.848
 Vibration     9          0.615              1.913              2.800
 Vibration    10          0.621              1.893              2.563
 Vibration    11          0.624              1.885              2.487
 Vibration    12          0.638              1.840              2.137
 Vibration    13          0.648              1.808              1.947
 Vibration    14          0.654              1.790              1.854
 Vibration    15          0.684              1.698              1.493
 Vibration    16          0.686              1.693              1.477
 Vibration    17          0.689              1.683              1.445
 Vibration    18          0.690              1.681              1.437
 Vibration    19          0.711              1.621              1.274
 Vibration    20          0.715              1.608              1.241
 Vibration    21          0.732              1.560              1.134
 Vibration    22          0.757              1.494              1.005
 Vibration    23          0.765              1.473              0.968
 Vibration    24          0.801              1.381              0.824
 Vibration    25          0.805              1.371              0.810
 Vibration    26          0.813              1.352              0.783
 Vibration    27          0.829              1.311              0.731
 Vibration    28          0.859              1.242              0.649
 Vibration    29          0.875              1.205              0.609
 Vibration    30          0.912              1.126              0.531
 Vibration    31          0.959              1.030              0.448
 Vibration    32          0.972              1.006              0.429

 Optimization completed.
    -- Stationary point found.
 Normal termination of Gaussian 16 at Sun Dec 13 13:31:08 2020.

 ----------------------------------------------------------------------
 # B3LYP/6-311++G(d,p) empiricaldispersion=gd3bj scf=xqc pop=npa geom=c
 heck
 ----------------------------------------------------------------------

 --------------------------------------
 CID_84198093_JID_9169_Energie_neutraal
 --------------------------------------
 Structure from the checkpoint file:  "JID_9169.chk"
 Charge =  0 Multiplicity = 1

 SCF Done:  E(RB3LYP) =  -850.133864387     A.U. after   14 cycles
 Normal termination of Gaussian 16 at Sun Dec 13 13:42:18 2020.

 ----------------------------------------------------------------------
 # B3LYP/6-311++G(d,p) empiricaldispersion=gd3bj scf=xqc pop=npa geom=c
 heck
 ----------------------------------------------------------------------

 ------------------------------------
 CID_84198093_JID_9169_Energie_kation
 ------------------------------------
 Structure from the checkpoint file:  "JID_9169.chk"
 Charge =  1 Multiplicity = 2

 SCF Done:  E(UB3LYP) =  -849.859733813     A.U. after   22 cycles
 Normal termination of Gaussian 16 at Sun Dec 13 14:06:30 2020.
 Gaussian 16:  ES64L-G16RevA.03 25-Dec-2016

 ----------------------------------------------------------------------
 # B3LYP/6-311++G(d,p) empiricaldispersion=gd3bj scf=xqc pop=npa geom=c
 heck
 ----------------------------------------------------------------------

 -----------------------------------
 CID_84198093_JID_9169_Energie_anion
 -----------------------------------
 Structure from the checkpoint file:  "JID_9169.chk"
 Charge = -1 Multiplicity = 2

                         Standard orientation:
 ---------------------------------------------------------------------
 Center     Atomic      Atomic             Coordinates (Angstroms)
 Number     Number       Type             X           Y           Z
 ---------------------------------------------------------------------
      1          6           0        4.152494    0.779929    1.592106
      2          6           0        2.891043    0.618552    0.786799
      3          6           0        1.836516    1.522201    0.869156
      4          6           0        0.665268    1.360038    0.123694
      5          6           0        0.514006    0.274141   -0.744043
      6          6           0        1.578083   -0.637741   -0.834483
      7          6           0        2.743396   -0.476763   -0.085718
      8          8           0        3.809842   -1.336526   -0.128422
      9          6           0        3.716186   -2.469094   -0.971953
     10          6           0       -0.739234    0.044279   -1.561582
     11          6           0       -1.922180   -0.627541   -0.819597
     12          6           0       -1.492255   -1.845687    0.013914
     13          6           0       -2.684178   -2.536617    0.685565
     14          6           0       -3.477229   -1.544122    1.544297
     15          6           0       -3.919703   -0.334265    0.712224
     16          6           0       -2.734733    0.362317    0.036054
     17          8           0       -3.176703    1.485328   -0.734042
     18          8           0       -0.364621    2.266007    0.304932
     19          6           0       -0.343202    3.378922   -0.581878
     20          1           0        4.103924    1.677294    2.215835
     21          1           0        4.321811   -0.085994    2.242872
     22          1           0        5.032018    0.856307    0.942044
     23          1           0        1.905036    2.375650    1.538178
     24          1           0        1.470972   -1.482446   -1.505501
     25          1           0        2.875694   -3.116019   -0.686493
     26          1           0        3.601937   -2.180028   -2.025399
     27          1           0        4.652479   -3.016266   -0.847347
     28          1           0       -1.108689    0.986824   -1.974162
     29          1           0       -0.469574   -0.594673   -2.411204
     30          1           0       -2.610595   -0.988025   -1.604349
     31          1           0       -0.782204   -1.516777    0.783612
     32          1           0       -0.946103   -2.554106   -0.622919
     33          1           0       -2.337002   -3.378888    1.296806
     34          1           0       -3.346323   -2.958379   -0.084881
     35          1           0       -2.844547   -1.199298    2.374527
     36          1           0       -4.348872   -2.033286    1.995926
     37          1           0       -4.458024    0.395694    1.327531
     38          1           0       -4.621061   -0.671955   -0.068712
     39          1           0       -2.082747    0.799253    0.795526
     40          1           0       -3.806612    1.144045   -1.390076
     41          1           0        0.533856    4.014450   -0.395668
     42          1           0       -0.329793    3.056115   -1.630311
     43          1           0       -1.259395    3.940735   -0.392899
 ---------------------------------------------------------------------

 SCF Done:  E(UB3LYP) =  -850.121456348     A.U. after   32 cycles

 The electronic state is 2-A.
 Alpha  occ. eigenvalues --  -19.05872 -19.04147 -19.02195 -10.13555 -10.12560
 Alpha  occ. eigenvalues --  -10.12384 -10.12352 -10.11358 -10.08754 -10.08387
 Alpha  occ. eigenvalues --  -10.08043 -10.07916 -10.07580 -10.07431 -10.07398
 Alpha  occ. eigenvalues --  -10.07064 -10.07007 -10.06920 -10.06519  -0.97415
 Alpha  occ. eigenvalues --   -0.95839  -0.92306  -0.76511  -0.73709  -0.70116
 Alpha  occ. eigenvalues --   -0.66475  -0.65798  -0.63826  -0.62071  -0.60921
 Alpha  occ. eigenvalues --   -0.58937  -0.55618  -0.51947  -0.51238  -0.49995
 Alpha  occ. eigenvalues --   -0.47998  -0.46723  -0.42367  -0.41744  -0.41313
 Alpha  occ. eigenvalues --   -0.39701  -0.37708  -0.37095  -0.36081  -0.35850
 Alpha  occ. eigenvalues --   -0.35564  -0.35116  -0.34764  -0.33192  -0.32962
 Alpha  occ. eigenvalues --   -0.32637  -0.32383  -0.31676  -0.30511  -0.29451
 Alpha  occ. eigenvalues --   -0.28707  -0.27851  -0.27221  -0.26808  -0.26307
 Alpha  occ. eigenvalues --   -0.25557  -0.24826  -0.24162  -0.23675  -0.22824
 Alpha  occ. eigenvalues --   -0.22077  -0.21598  -0.20256  -0.18239  -0.17260
 Alpha  occ. eigenvalues --   -0.15178  -0.12115   0.04139
 Alpha virt. eigenvalues --    0.05898   0.06437   0.06700   0.07555   0.07756
 Alpha virt. eigenvalues --    0.08026   0.08860   0.09020   0.09259   0.09620
 Alpha virt. eigenvalues --    0.10210   0.10326   0.10680   0.10841   0.11282

  Beta  occ. eigenvalues --  -19.05865 -19.04147 -19.02174 -10.13559 -10.12549
  Beta  occ. eigenvalues --  -10.12352 -10.12334 -10.11359 -10.08738 -10.08370
  Beta  occ. eigenvalues --  -10.08039 -10.07913 -10.07576 -10.07412 -10.07382
  Beta  occ. eigenvalues --  -10.07048 -10.06993 -10.06907 -10.06508  -0.97400
  Beta  occ. eigenvalues --   -0.95837  -0.92267  -0.76487  -0.73683  -0.70083
  Beta  occ. eigenvalues --   -0.66450  -0.65774  -0.63797  -0.62031  -0.60895
  Beta  occ. eigenvalues --   -0.58902  -0.55587  -0.51905  -0.51197  -0.49963
  Beta  occ. eigenvalues --   -0.47964  -0.46684  -0.42330  -0.41723  -0.41296
  Beta  occ. eigenvalues --   -0.39658  -0.37680  -0.37073  -0.36058  -0.35817
  Beta  occ. eigenvalues --   -0.35539  -0.35089  -0.34732  -0.33173  -0.32934
  Beta  occ. eigenvalues --   -0.32603  -0.32358  -0.31646  -0.30487  -0.29434
  Beta  occ. eigenvalues --   -0.28670  -0.27828  -0.27197  -0.26783  -0.26281
  Beta  occ. eigenvalues --   -0.25538  -0.24790  -0.24132  -0.23644  -0.22797
  Beta  occ. eigenvalues --   -0.22041  -0.21571  -0.20231  -0.18231  -0.17235
  Beta  occ. eigenvalues --   -0.15114  -0.12069
  Beta virt. eigenvalues --    0.06107   0.06596   0.06796   0.07175   0.07809
  Beta virt. eigenvalues --    0.08027   0.08440   0.09106   0.09219   0.09638
  Beta virt. eigenvalues --    0.09677   0.10479   0.10674   0.10762   0.10968

 Mulliken charges and spin densities:
               1          2
     1  C   -0.154654  -0.312858
     2  C    0.366793   0.071339
     3  C   -0.385595  -0.077652
     4  C   -0.648005   0.025503
     5  C    0.980316  -0.188967
     6  C    0.455103  -0.355727
     7  C   -1.038261   0.394072
     8  O   -0.204728   0.053110
     9  C    0.893794  -1.232922
    10  C   -0.256147  -0.213423
    11  C    0.894762  -0.108194
    12  C   -0.805087   0.363957
    13  C    0.171426  -0.758836
    14  C   -0.315491  -0.068497
    15  C    0.498031  -0.765806
    16  C   -0.569788  -0.280193
    17  O   -0.139957   0.001699
    18  O   -0.053712  -0.001512
    19  C   -0.005038  -0.245202
    20  H    0.111113   0.022908
    21  H    0.113054   0.060462
    22  H    0.088137   0.082376
    23  H    0.089173   0.063153
    24  H    0.469431  -0.263273
    25  H   -0.210123   0.374856
    26  H   -0.414826   0.579952
    27  H   -0.591843   0.765765
    28  H    0.150543  -0.044525
    29  H   -0.698777   0.884385
    30  H   -0.217571   0.435497
    31  H    0.238577  -0.067181
    32  H   -0.199873   0.356230
    33  H   -0.040023   0.207174
    34  H   -0.128657   0.263439
    35  H    0.078769   0.024290
    36  H    0.056363   0.117178
    37  H    0.079592   0.089350
    38  H   -0.186287   0.316498
    39  H    0.377879  -0.074039
    40  H    0.012242   0.237547
    41  H    0.015550   0.107481
    42  H    0.037621   0.096647
    43  H    0.086174   0.063938
 Sum of Mulliken charges =  -1.00000   1.00000

 Dipole moment (field-independent basis, Debye):
    X=             -0.5386    Y=              5.8015    Z=              5.1391  Tot=              7.7690
 Quadrupole moment (field-independent basis, Debye-Ang):
   XX=           -201.1054   YY=           -170.3498   ZZ=           -154.9709
   XY=             13.7678   XZ=              2.4972   YZ=             -9.6049

 Summary of Natural Population Analysis:

                                       Natural Population
                Natural  -----------------------------------------------
    Atom  No    Charge         Core      Valence    Rydberg      Total
 -----------------------------------------------------------------------
      C    1   -0.29056      0.99964     2.28604    0.00488     3.29056
      C    2   -0.03337      0.99949     2.02480    0.00908     3.03337
      C    3   -0.11019      0.99948     2.10290    0.00781     3.11019
      C    4    0.13825      0.99930     1.84822    0.01423     2.86175
      C    5   -0.02065      0.99946     2.01063    0.01056     3.02065
      C    6   -0.13133      0.99948     2.12372    0.00813     3.13133
      C    7    0.15953      0.99933     1.82836    0.01277     2.84047
      O    8   -0.27564      0.99986     3.26607    0.00971     4.27564
      C    9   -0.10017      0.99960     2.09143    0.00913     3.10017
      C   10   -0.19890      0.99958     2.18708    0.01224     3.19890
      C   11   -0.11399      0.99956     2.10079    0.01364     3.11399
      C   12   -0.19274      0.99961     2.18352    0.00961     3.19274
      C   13   -0.18719      0.99963     2.17944    0.00813     3.18719
      C   14   -0.18937      0.99963     2.18179    0.00795     3.18937
      C   15   -0.19850      0.99961     2.18976    0.00913     3.19850
      C   16    0.05961      0.99949     1.92760    0.01330     2.94039
      O   17   -0.37202      0.99990     3.36516    0.00696     4.37202
      O   18   -0.29531      0.99986     3.28519    0.01026     4.29531
      C   19   -0.09170      0.99959     2.08448    0.00763     3.09170
      H   20    0.09701      0.00000     0.40227    0.00072     0.40299
      H   21    0.10566      0.00000     0.39307    0.00127     0.39434
      H   22    0.10617      0.00000     0.39248    0.00136     0.39383
      H   23    0.09996      0.00000     0.39861    0.00143     0.40004
      H   24    0.10809      0.00000     0.39003    0.00188     0.39191
      H   25    0.08597      0.00000     0.41225    0.00177     0.41403
      H   26    0.08676      0.00000     0.41113    0.00211     0.41324
      H   27    0.09395      0.00000     0.40460    0.00145     0.40605
      H   28    0.11158      0.00000     0.38633    0.00208     0.38842
      H   29    0.10408      0.00000     0.39441    0.00151     0.39592
      H   30    0.09549      0.00000     0.40145    0.00306     0.40451
      H   31    0.09812      0.00000     0.40033    0.00155     0.40188
      H   32    0.10327      0.00000     0.39545    0.00128     0.39673
      H   33    0.09759      0.00000     0.40158    0.00084     0.40241
      H   34    0.09481      0.00000     0.40385    0.00134     0.40519
      H   35    0.09236      0.00000     0.40646    0.00118     0.40764
      H   36    0.09694      0.00000     0.40222    0.00084     0.40306
      H   37    0.10010      0.00000     0.39903    0.00088     0.39990
      H   38    0.09276      0.00000     0.40581    0.00142     0.40724
      H   39    0.09643      0.00000     0.40115    0.00242     0.40357
      H   40    0.22480      0.00000     0.27202    0.00318     0.27520
      H   41    0.07652      0.00000     0.42213    0.00135     0.42348
      H   42    0.08308      0.00000     0.41577    0.00115     0.41692
      H   43    0.09275      0.00000     0.40632    0.00093     0.40725
 =======================================================================
   * Total *    0.00000     18.99208    52.78574    0.22218    72.00000

 Normal termination of Gaussian 16 at Sun Dec 13 14:40:00 2020.
