 Gaussian 16, Revision A.03,

 -----------------------------------------------------------
 # opt freq B3LYP/6-31G(d) empiricaldispersion=gd3bj scf=xqc
 -----------------------------------------------------------

 -------------------------------
 CID_151532214_JID_5768_neutraal
 -------------------------------
 Symbolic Z-matrix:
 Charge =  0 Multiplicity = 1

 SCF Done:  E(RB3LYP) =  -671.526862456     A.U. after   15 cycles
 SCF Done:  E(RB3LYP) =  -671.531269208     A.U. after   12 cycles
 SCF Done:  E(RB3LYP) =  -671.532077773     A.U. after   13 cycles
 SCF Done:  E(RB3LYP) =  -671.532541143     A.U. after   12 cycles
 SCF Done:  E(RB3LYP) =  -671.532720580     A.U. after   12 cycles
 SCF Done:  E(RB3LYP) =  -671.532776917     A.U. after   12 cycles
 SCF Done:  E(RB3LYP) =  -671.532799461     A.U. after   11 cycles
 SCF Done:  E(RB3LYP) =  -671.532858074     A.U. after   12 cycles
 SCF Done:  E(RB3LYP) =  -671.532917811     A.U. after   14 cycles
 SCF Done:  E(RB3LYP) =  -671.530867238     A.U. after   15 cycles
 SCF Done:  E(RB3LYP) =  -671.533403132     A.U. after   10 cycles
 SCF Done:  E(RB3LYP) =  -671.533403765     A.U. after    9 cycles
 SCF Done:  E(RB3LYP) =  -671.533404094     A.U. after    8 cycles
 SCF Done:  E(RB3LYP) =  -671.533404147     A.U. after    7 cycles
 SCF Done:  E(RB3LYP) =  -671.533404173     A.U. after    7 cycles
 Optimization completed.
    -- Stationary point found.
 Normal termination of Gaussian 16 at Thu Dec 10 17:07:10 2020.

 --------------------------------------------------------------------
 #N Geom=AllCheck Guess=TCheck SCRF=Check GenChk RB3LYP/6-31G(d) Freq
 --------------------------------------------------------------------

 Structure from the checkpoint file:  "JID_5768.chk"
 -------------------------------
 CID_151532214_JID_5768_neutraal
 -------------------------------
 Charge =  0 Multiplicity = 1

 SCF Done:  E(RB3LYP) =  -671.533404173     A.U. after    1 cycles

  Exact polarizability: 178.807   5.435 131.858   4.289   2.617  86.447
 Approx polarizability: 240.867  17.631 223.401  10.766   5.647 121.423

                      1                      2                      3
                      A                      A                      A
 Frequencies --     26.1283                31.7862                67.1875
 Red. masses --      4.6364                 4.1548                 3.4238
 Frc consts  --      0.0019                 0.0025                 0.0091
 IR Inten    --      1.3131                 0.4241                 1.2688

                      4                      5                      6
                      A                      A                      A
 Frequencies --    109.6459               119.6039               140.7485
 Red. masses --      3.4519                 3.5883                 2.1464
 Frc consts  --      0.0245                 0.0302                 0.0251
 IR Inten    --      0.6047                 0.4970                 8.8120

                      7                      8                      9
                      A                      A                      A
 Frequencies --    173.8897               188.6789               193.3447
 Red. masses --      2.3168                 3.6821                 2.8119
 Frc consts  --      0.0413                 0.0772                 0.0619
 IR Inten    --      3.5534                 3.5134                 1.1284

                     10                     11                     12
                      A                      A                      A
 Frequencies --    212.0594               249.6386               272.5375
 Red. masses --      3.0177                 1.1578                 1.0467
 Frc consts  --      0.0800                 0.0425                 0.0458
 IR Inten    --      6.7652                 0.1857                 0.1347

                     13                     14                     15
                      A                      A                      A
 Frequencies --    286.6452               312.2157               331.4309
 Red. masses --      4.1502                 2.9466                 3.4703
 Frc consts  --      0.2009                 0.1692                 0.2246
 IR Inten    --      6.2538                 0.9236                 1.5055

                     16                     17                     18
                      A                      A                      A
 Frequencies --    346.1986               411.9489               431.8744
 Red. masses --      3.5986                 2.7934                 3.9913
 Frc consts  --      0.2541                 0.2793                 0.4386
 IR Inten    --      1.1350                 4.5162                 1.6303

                     19                     20                     21
                      A                      A                      A
 Frequencies --    465.4373               480.3398               545.2067
 Red. masses --      3.6286                 3.5430                 4.8730
 Frc consts  --      0.4631                 0.4816                 0.8534
 IR Inten    --      1.8072                 2.8262                 3.4222

                     22                     23                     24
                      A                      A                      A
 Frequencies --    577.5353               622.5760               639.3915
 Red. masses --      5.7344                 5.6375                 4.9845
 Frc consts  --      1.1269                 1.2874                 1.2006
 IR Inten    --      0.1830                 0.9455                 3.1920

                     25                     26                     27
                      A                      A                      A
 Frequencies --    656.7882               699.1349               714.7829
 Red. masses --      5.2169                 6.2761                 2.3990
 Frc consts  --      1.3259                 1.8074                 0.7221
 IR Inten    --     12.0899                 4.2463                11.3833

                     28                     29                     30
                      A                      A                      A
 Frequencies --    806.2640               808.0193               892.4597
 Red. masses --      1.7357                 2.4874                 1.4682
 Frc consts  --      0.6648                 0.9569                 0.6890
 IR Inten    --     18.6405                15.8058                13.9284

                     31                     32                     33
                      A                      A                      A
 Frequencies --    910.0439               912.3676               953.7013
 Red. masses --      1.7353                 1.9856                 2.6479
 Frc consts  --      0.8467                 0.9738                 1.4190
 IR Inten    --      0.2878                 2.4705                 6.7813

                     34                     35                     36
                      A                      A                      A
 Frequencies --    955.3438               958.0784               978.8621
 Red. masses --      3.6161                 1.5821                 1.2700
 Frc consts  --      1.9445                 0.8556                 0.7170
 IR Inten    --     17.7485                 0.6721                 0.5784

                     37                     38                     39
                      A                      A                      A
 Frequencies --   1021.6649              1054.7205              1057.7343
 Red. masses --      6.1064                 1.2834                 6.1566
 Frc consts  --      3.7553                 0.8412                 4.0583
 IR Inten    --      1.9083                 0.0928               403.3789

                     40                     41                     42
                      A                      A                      A
 Frequencies --   1114.7760              1128.1428              1146.5691
 Red. masses --      2.0076                 1.8362                 1.5958
 Frc consts  --      1.4700                 1.3769                 1.2360
 IR Inten    --     72.5255                 4.5007                11.8810

                     43                     44                     45
                      A                      A                      A
 Frequencies --   1162.7940              1185.7339              1194.5258
 Red. masses --      3.3344                 1.8025                 1.7321
 Frc consts  --      2.6563                 1.4931                 1.4562
 IR Inten    --      1.8744               106.9105                96.3122

                     46                     47                     48
                      A                      A                      A
 Frequencies --   1214.1383              1226.3399              1237.6873
 Red. masses --      1.2167                 1.7788                 1.7911
 Frc consts  --      1.0567                 1.5761                 1.6166
 IR Inten    --      7.3210                24.7598                14.9380

                     49                     50                     51
                      A                      A                      A
 Frequencies --   1260.3561              1297.8129              1331.7850
 Red. masses --      2.6359                 3.7038                 1.7215
 Frc consts  --      2.4670                 3.6756                 1.7990
 IR Inten    --     18.0816               158.8403                 7.7890

                     52                     53                     54
                      A                      A                      A
 Frequencies --   1353.2700              1372.5509              1426.0763
 Red. masses --      1.2036                 3.0418                 1.1925
 Frc consts  --      1.2987                 3.3763                 1.4289
 IR Inten    --     21.2085                20.1432                 3.0633

                     55                     56                     57
                      A                      A                      A
 Frequencies --   1448.7196              1455.0787              1493.9191
 Red. masses --      1.2041                 1.1880                 2.8837
 Frc consts  --      1.4890                 1.4820                 3.7919
 IR Inten    --      1.9227                28.6094                33.8900

                     58                     59                     60
                      A                      A                      A
 Frequencies --   1500.3902              1512.7718              1515.3535
 Red. masses --      1.1508                 1.0455                 1.0556
 Frc consts  --      1.5264                 1.4097                 1.4282
 IR Inten    --      7.4618                 0.4420                 0.9668

                     61                     62                     63
                      A                      A                      A
 Frequencies --   1515.9882              1526.1393              1528.8055
 Red. masses --      1.0481                 1.1297                 1.0519
 Frc consts  --      1.4192                 1.5503                 1.4485
 IR Inten    --      2.5186                 2.0086                 7.4618

                     64                     65                     66
                      A                      A                      A
 Frequencies --   1534.9364              1539.1131              1544.1234
 Red. masses --      1.2054                 1.1163                 1.7026
 Frc consts  --      1.6732                 1.5580                 2.3917
 IR Inten    --     10.4999                10.8525                54.1033

                     67                     68                     69
                      A                      A                      A
 Frequencies --   1643.3216              1670.7343              2362.3120
 Red. masses --      5.6541                 6.0109                12.6938
 Frc consts  --      8.9961                 9.8856                41.7364
 IR Inten    --     50.7155                78.8389                 7.8447

                     70                     71                     72
                      A                      A                      A
 Frequencies --   3019.5683              3043.6145              3066.3043
 Red. masses --      1.0428                 1.0579                 1.0337
 Frc consts  --      5.6022                 5.7741                 5.7260
 IR Inten    --     51.2314                86.9484                13.4747

                     73                     74                     75
                      A                      A                      A
 Frequencies --   3069.5260              3095.8057              3110.7357
 Red. masses --      1.0342                 1.0951                 1.1095
 Frc consts  --      5.7411                 6.1836                 6.3259
 IR Inten    --     16.7898                35.9953                27.3671

                     76                     77                     78
                      A                      A                      A
 Frequencies --   3140.6307              3144.6824              3150.8302
 Red. masses --      1.1037                 1.1034                 1.1041
 Frc consts  --      6.4143                 6.4287                 6.4582
 IR Inten    --      0.6590                46.5792                11.3968

                     79                     80                     81
                      A                      A                      A
 Frequencies --   3151.9040              3158.7917              3196.0783
 Red. masses --      1.1038                 1.1019                 1.0886
 Frc consts  --      6.4607                 6.4777                 6.5517
 IR Inten    --     15.1261                24.7276                13.2266

                     82                     83                     84
                      A                      A                      A
 Frequencies --   3211.0179              3222.1637              3247.2549
 Red. masses --      1.0897                 1.0925                 1.0925
 Frc consts  --      6.6197                 6.6831                 6.7875
 IR Inten    --      5.4156                 3.3632                 0.6080

 - Thermochemistry -
 -------------------
 Temperature   298.150 Kelvin.  Pressure   1.00000 Atm.
 Atom     1 has atomic number  6 and mass  12.00000

 Molecular mass:   205.11028 amu.
 Principal axes and moments of inertia in atomic units:
                           1         2         3
     Eigenvalues --  1239.163546389.893026912.13619
           X            0.99992  -0.01108  -0.00622
           Y            0.01101   0.99987  -0.01166
           Z            0.00635   0.01159   0.99991
 This molecule is an asymmetric top.
 Rotational symmetry number  1.
 Warning -- assumption of classical behavior for rotation
           may cause significant error
 Rotational temperatures (Kelvin)      0.06990     0.01355     0.01253
 Rotational constants (GHZ):           1.45642     0.28244     0.26110
 Zero-point vibrational energy     658479.6 (Joules/Mol)
                                  157.38040 (Kcal/Mol)
 Warning -- explicit consideration of  22 degrees of freedom as
           vibrations may cause significant error
 Vibrational temperatures:     37.59    45.73    96.67   157.76   172.08
          (Kelvin)            202.51   250.19   271.47   278.18   305.11
                              359.17   392.12   412.42   449.21   476.86
                              498.10   592.70   621.37   669.66   691.10
                              784.43   830.94   895.75   919.94   944.97
                             1005.90  1028.41  1160.03  1162.56  1284.05
                             1309.35  1312.69  1372.16  1374.53  1378.46
                             1408.36  1469.95  1517.51  1521.84  1603.91
                             1623.15  1649.66  1673.00  1706.01  1718.66
                             1746.87  1764.43  1780.76  1813.37  1867.26
                             1916.14  1947.05  1974.79  2051.81  2084.38
                             2093.53  2149.42  2158.73  2176.54  2180.26
                             2181.17  2195.77  2199.61  2208.43  2214.44
                             2221.65  2364.37  2403.81  3398.84  4344.49
                             4379.08  4411.73  4416.36  4454.17  4475.65
                             4518.67  4524.50  4533.34  4534.89  4544.80
                             4598.44  4619.94  4635.97  4672.08

 Zero-point correction=                           0.250802 (Hartree/Particle)
 Thermal correction to Energy=                    0.266029
 Thermal correction to Enthalpy=                  0.266973
 Thermal correction to Gibbs Free Energy=         0.207520
 Sum of electronic and zero-point Energies=           -671.282603
 Sum of electronic and thermal Energies=              -671.267376
 Sum of electronic and thermal Enthalpies=            -671.266431
 Sum of electronic and thermal Free Energies=         -671.325884

                     E (Thermal)             CV                S
                      KCal/Mol        Cal/Mol-Kelvin    Cal/Mol-Kelvin
 Total                  166.935             56.471            125.128
 Electronic               0.000              0.000              0.000
 Translational            0.889              2.981             41.859
 Rotational               0.889              2.981             32.370
 Vibrational            165.158             50.509             50.899
 Vibration     1          0.593              1.985              6.104
 Vibration     2          0.594              1.983              5.715
 Vibration     3          0.598              1.970              4.234
 Vibration     4          0.606              1.941              3.275
 Vibration     5          0.609              1.933              3.107
 Vibration     6          0.615              1.913              2.794
 Vibration     7          0.627              1.875              2.393
 Vibration     8          0.633              1.855              2.241
 Vibration     9          0.635              1.849              2.196
 Vibration    10          0.643              1.823              2.026
 Vibration    11          0.662              1.763              1.733
 Vibration    12          0.676              1.724              1.580
 Vibration    13          0.684              1.699              1.494
 Vibration    14          0.701              1.650              1.351
 Vibration    15          0.714              1.613              1.253
 Vibration    16          0.724              1.583              1.183
 Vibration    17          0.776              1.444              0.920
 Vibration    18          0.793              1.401              0.853
 Vibration    19          0.823              1.327              0.750
 Vibration    20          0.837              1.294              0.709
 Vibration    21          0.900              1.150              0.554
 Vibration    22          0.934              1.080              0.490

 Optimization completed.
    -- Stationary point found.
 Normal termination of Gaussian 16 at Thu Dec 10 17:17:11 2020.

 ----------------------------------------------------------------------
 # B3LYP/6-311++G(d,p) empiricaldispersion=gd3bj scf=xqc pop=npa geom=c
 heck
 ----------------------------------------------------------------------

 ---------------------------------------
 CID_151532214_JID_5768_Energie_neutraal
 ---------------------------------------
 Structure from the checkpoint file:  "JID_5768.chk"
 Charge =  0 Multiplicity = 1

 SCF Done:  E(RB3LYP) =  -671.719211602     A.U. after   15 cycles
 Normal termination of Gaussian 16 at Thu Dec 10 17:21:09 2020.

 ----------------------------------------------------------------------
 # B3LYP/6-311++G(d,p) empiricaldispersion=gd3bj scf=xqc pop=npa geom=c
 heck
 ----------------------------------------------------------------------

 -------------------------------------
 CID_151532214_JID_5768_Energie_kation
 -------------------------------------
 Structure from the checkpoint file:  "JID_5768.chk"
 Charge =  1 Multiplicity = 2

 SCF Done:  E(UB3LYP) =  -671.408041730     A.U. after   24 cycles
 Normal termination of Gaussian 16 at Thu Dec 10 17:30:39 2020.
 Gaussian 16:  ES64L-G16RevA.03 25-Dec-2016

 ----------------------------------------------------------------------
 # B3LYP/6-311++G(d,p) empiricaldispersion=gd3bj scf=xqc pop=npa geom=c
 heck
 ----------------------------------------------------------------------

 ------------------------------------
 CID_151532214_JID_5768_Energie_anion
 ------------------------------------
 Structure from the checkpoint file:  "JID_5768.chk"
 Charge = -1 Multiplicity = 2

                         Standard orientation:
 ---------------------------------------------------------------------
 Center     Atomic      Atomic             Coordinates (Angstroms)
 Number     Number       Type             X           Y           Z
 ---------------------------------------------------------------------
      1          6           0        2.669453   -1.477404    1.307704
      2          6           0        2.621529   -0.554454    0.064038
      3          6           0        2.914091   -1.371932   -1.219530
      4          6           0        3.701602    0.439101    0.210006
      5          7           0        4.574841    1.194805    0.325878
      6          6           0        1.256422    0.143262   -0.038887
      7          6           0        0.111648   -0.644681   -0.177971
      8          6           0       -1.151505   -0.058030   -0.276774
      9          6           0       -1.291267    1.333216   -0.229103
     10          6           0       -0.143328    2.113811   -0.101232
     11          6           0        1.121607    1.535390   -0.006317
     12          8           0       -2.199788   -0.938333   -0.409830
     13          6           0       -3.439358   -0.440060   -0.883496
     14          8           0       -4.140641    0.328083    0.044293
     15          6           0       -4.506574   -0.389518    1.217002
     16          1           0        1.909283   -2.258309    1.218747
     17          1           0        3.650465   -1.954608    1.393345
     18          1           0        2.474460   -0.906578    2.219409
     19          1           0        2.157258   -2.151493   -1.342339
     20          1           0        2.892405   -0.726163   -2.101341
     21          1           0        3.897268   -1.848040   -1.155107
     22          1           0        0.167486   -1.727333   -0.220014
     23          1           0       -2.272175    1.790048   -0.256969
     24          1           0       -0.240308    3.195055   -0.062924
     25          1           0        1.998216    2.165048    0.098602
     26          1           0       -3.283852    0.203859   -1.755278
     27          1           0       -3.999984   -1.343251   -1.157713
     28          1           0       -5.101709   -1.279725    0.964268
     29          1           0       -3.624140   -0.701885    1.786631
     30          1           0       -5.111037    0.289513    1.821209
 ---------------------------------------------------------------------

 SCF Done:  E(UB3LYP) =  -671.707131621     A.U. after   33 cycles
 SCF Done:  E(UB3LYP) =  -671.707131621     a.u. after    1 cycles

 The electronic state is 2-A.
 Alpha  occ. eigenvalues --  -19.06641 -19.04968 -14.22751 -10.18431 -10.14967
 Alpha  occ. eigenvalues --  -10.14853 -10.12499 -10.12116 -10.10792 -10.09258
 Alpha  occ. eigenvalues --  -10.08889 -10.08822 -10.08623 -10.08518 -10.08507
 Alpha  occ. eigenvalues --   -1.00266  -0.94423  -0.82814  -0.78264  -0.74113
 Alpha  occ. eigenvalues --   -0.67438  -0.65758  -0.63345  -0.61644  -0.57128
 Alpha  occ. eigenvalues --   -0.56626  -0.51678  -0.50913  -0.46194  -0.41854
 Alpha  occ. eigenvalues --   -0.41655  -0.41249  -0.40890  -0.37593  -0.36486
 Alpha  occ. eigenvalues --   -0.35804  -0.35044  -0.33928  -0.33358  -0.32073
 Alpha  occ. eigenvalues --   -0.31528  -0.30612  -0.30016  -0.29103  -0.28321
 Alpha  occ. eigenvalues --   -0.28052  -0.27304  -0.26517  -0.24881  -0.24122
 Alpha  occ. eigenvalues --   -0.24080  -0.22955  -0.19473  -0.16846  -0.14667
 Alpha  occ. eigenvalues --    0.04122
 Alpha virt. eigenvalues --    0.05922   0.06502   0.07075   0.07360   0.07946
 Alpha virt. eigenvalues --    0.08239   0.08737   0.08950   0.09275   0.10651
 Alpha virt. eigenvalues --    0.10813   0.11096   0.11304   0.11350   0.12110

  Beta  occ. eigenvalues --  -19.06638 -19.04962 -14.22743 -10.18405 -10.14963
  Beta  occ. eigenvalues --  -10.14850 -10.12499 -10.12069 -10.10792 -10.09240
  Beta  occ. eigenvalues --  -10.08853 -10.08787 -10.08618 -10.08502 -10.08487
  Beta  occ. eigenvalues --   -1.00254  -0.94410  -0.82804  -0.78243  -0.74092
  Beta  occ. eigenvalues --   -0.67401  -0.65728  -0.63293  -0.61582  -0.57071
  Beta  occ. eigenvalues --   -0.56576  -0.51629  -0.50876  -0.46159  -0.41822
  Beta  occ. eigenvalues --   -0.41617  -0.41219  -0.40857  -0.37565  -0.36458
  Beta  occ. eigenvalues --   -0.35754  -0.35010  -0.33885  -0.33314  -0.32036
  Beta  occ. eigenvalues --   -0.31491  -0.30583  -0.29989  -0.29065  -0.28291
  Beta  occ. eigenvalues --   -0.28022  -0.27283  -0.26493  -0.24855  -0.24096
  Beta  occ. eigenvalues --   -0.24056  -0.22920  -0.19447  -0.16779  -0.14619
  Beta virt. eigenvalues --    0.06298   0.06607   0.06975   0.07421   0.07954
  Beta virt. eigenvalues --    0.08098   0.08761   0.09197   0.09562   0.09686
  Beta virt. eigenvalues --    0.10832   0.11015   0.11303   0.11514   0.11685

 Mulliken charges and spin densities:
               1          2
     1  C    0.582527  -1.257810
     2  C   -0.251114   0.974929
     3  C    0.816390  -1.487531
     4  C   -0.191546  -0.059705
     5  N   -0.270161  -0.007734
     6  C    0.124827   1.109241
     7  C   -0.592860  -0.027235
     8  C    0.936280  -1.080636
     9  C    1.208102  -1.077011
    10  C   -0.606599  -0.102842
    11  C   -1.387267   0.854590
    12  O   -0.116141   0.028488
    13  C    0.368369  -0.574643
    14  O   -0.169300   0.063555
    15  C    0.755442  -1.060912
    16  H   -0.506880   0.674150
    17  H   -0.154748   0.322381
    18  H    0.023899   0.140714
    19  H   -0.494388   0.657659
    20  H   -0.013851   0.179652
    21  H   -0.171450   0.342205
    22  H    0.107784   0.088677
    23  H    0.297511  -0.096965
    24  H   -0.095770   0.276697
    25  H    0.163331  -0.026380
    26  H   -0.025571   0.201788
    27  H   -0.516743   0.674235
    28  H   -0.380404   0.519553
    29  H   -0.136657   0.297682
    30  H   -0.303012   0.453210
 Sum of Mulliken charges =  -1.00000   1.00000

 Dipole moment (field-independent basis, Debye):
    X=              1.0805    Y=              4.3063    Z=             -1.1719  Tot=              4.5918
 Quadrupole moment (field-independent basis, Debye-Ang):
   XX=           -196.2885   YY=           -135.8957   ZZ=           -121.9864
   XY=             -7.1874   XZ=              4.9593   YZ=             -1.5699

 Summary of Natural Population Analysis:

                                       Natural Population
                Natural  -----------------------------------------------
    Atom  No    Charge         Core      Valence    Rydberg      Total
 -----------------------------------------------------------------------
      C    1   -0.27104      0.99964     2.26418    0.00722     3.27104
      C    2   -0.09695      0.99947     2.08516    0.01232     3.09695
      C    3   -0.27130      0.99964     2.26440    0.00726     3.27130
      C    4    0.17172      0.99963     1.80673    0.02192     2.82828
      N    5   -0.18624      0.99979     2.67477    0.01169     3.68624
      C    6   -0.00350      0.99949     1.99173    0.01228     3.00350
      C    7   -0.11640      0.99946     2.10668    0.01026     3.11640
      C    8    0.16414      0.99937     1.82256    0.01394     2.83586
      C    9   -0.13952      0.99951     2.13189    0.00813     3.13952
      C   10   -0.08530      0.99958     2.07652    0.00921     3.08530
      C   11   -0.11720      0.99950     2.10966    0.00804     3.11720
      O   12   -0.28225      0.99986     3.27183    0.01056     4.28225
      C   13    0.14356      0.99960     1.83909    0.01774     2.85644
      O   14   -0.29887      0.99989     3.28922    0.00977     4.29887
      C   15   -0.10260      0.99961     2.09356    0.00943     3.10260
      H   16    0.10784      0.00000     0.39064    0.00152     0.39216
      H   17    0.10395      0.00000     0.39467    0.00138     0.39605
      H   18    0.10545      0.00000     0.39335    0.00121     0.39455
      H   19    0.10718      0.00000     0.39127    0.00155     0.39282
      H   20    0.10538      0.00000     0.39343    0.00119     0.39462
      H   21    0.10449      0.00000     0.39406    0.00144     0.39551
      H   22    0.10996      0.00000     0.38750    0.00254     0.39004
      H   23    0.11433      0.00000     0.38413    0.00154     0.38567
      H   24    0.09997      0.00000     0.39927    0.00076     0.40003
      H   25    0.10817      0.00000     0.39042    0.00141     0.39183
      H   26    0.08106      0.00000     0.41721    0.00172     0.41894
      H   27    0.08144      0.00000     0.41647    0.00209     0.41856
      H   28    0.08319      0.00000     0.41445    0.00237     0.41681
      H   29    0.08793      0.00000     0.41043    0.00164     0.41207
      H   30    0.09143      0.00000     0.40718    0.00140     0.40857
 =======================================================================
   * Total *    0.00000     14.99402    39.81245    0.19353    55.00000

 Normal termination of Gaussian 16 at Thu Dec 10 17:44:12 2020.
