 Gaussian 16, Revision A.03,

 -----------------------------------------------------------
 # opt freq B3LYP/6-31G(d) empiricaldispersion=gd3bj scf=xqc
 -----------------------------------------------------------

 ------------------------------
 CID_61335730_JID_6212_neutraal
 ------------------------------
 Symbolic Z-matrix:
 Charge =  0 Multiplicity = 1

 SCF Done:  E(RB3LYP) =  -1029.98323272     A.U. after   15 cycles
 SCF Done:  E(RB3LYP) =  -1029.98888966     A.U. after   12 cycles
 SCF Done:  E(RB3LYP) =  -1029.99017229     A.U. after   12 cycles
 SCF Done:  E(RB3LYP) =  -1029.99084691     A.U. after   12 cycles
 SCF Done:  E(RB3LYP) =  -1029.99129942     A.U. after   13 cycles
 SCF Done:  E(RB3LYP) =  -1029.99154537     A.U. after   11 cycles
 SCF Done:  E(RB3LYP) =  -1029.99166080     A.U. after   11 cycles
 SCF Done:  E(RB3LYP) =  -1029.99172400     A.U. after   11 cycles
 SCF Done:  E(RB3LYP) =  -1029.99175454     A.U. after   10 cycles
 SCF Done:  E(RB3LYP) =  -1029.99180636     A.U. after   11 cycles
 SCF Done:  E(RB3LYP) =  -1029.99182347     A.U. after    7 cycles
 SCF Done:  E(RB3LYP) =  -1029.99182353     A.U. after    7 cycles
 SCF Done:  E(RB3LYP) =  -1029.99182359     A.U. after    7 cycles
 SCF Done:  E(RB3LYP) =  -1029.99182366     A.U. after    7 cycles
 SCF Done:  E(RB3LYP) =  -1029.99182370     A.U. after    7 cycles
 Optimization completed.
    -- Stationary point found.
 Normal termination of Gaussian 16 at Thu Dec 10 21:24:53 2020.

 --------------------------------------------------------------------
 #N Geom=AllCheck Guess=TCheck SCRF=Check GenChk RB3LYP/6-31G(d) Freq
 --------------------------------------------------------------------

 Structure from the checkpoint file:  "JID_6212.chk"
 ------------------------------
 CID_61335730_JID_6212_neutraal
 ------------------------------
 Charge =  0 Multiplicity = 1

 SCF Done:  E(RB3LYP) =  -1029.99182370     A.U. after    1 cycles

  Exact polarizability: 224.700  -6.398 140.970   0.290  -9.230 121.279
 Approx polarizability: 287.190 -14.614 220.447   0.788 -25.625 210.352

                      1                      2                      3
                      A                      A                      A
 Frequencies --     21.2442                35.1092                41.0766
 Red. masses --      3.6443                 3.8036                 3.1883
 Frc consts  --      0.0010                 0.0028                 0.0032
 IR Inten    --      0.0978                 0.7703                 0.3453

                      4                      5                      6
                      A                      A                      A
 Frequencies --     49.4214                63.2277                69.9501
 Red. masses --      1.9961                 2.2965                 2.8567
 Frc consts  --      0.0029                 0.0054                 0.0082
 IR Inten    --      0.0596                 1.7367                 0.2380

                      7                      8                      9
                      A                      A                      A
 Frequencies --    122.5531               151.0068               170.0913
 Red. masses --      3.6482                 3.0797                 3.2156
 Frc consts  --      0.0323                 0.0414                 0.0548
 IR Inten    --      1.5541                 0.5428                 1.0134

                     10                     11                     12
                      A                      A                      A
 Frequencies --    176.6200               222.5600               238.0677
 Red. masses --      2.6040                 1.4288                 1.1329
 Frc consts  --      0.0479                 0.0417                 0.0378
 IR Inten    --      5.6237                 0.0830                 0.9605

                     13                     14                     15
                      A                      A                      A
 Frequencies --    251.0059               277.8358               305.5113
 Red. masses --      3.4825                 3.3411                 2.5079
 Frc consts  --      0.1293                 0.1520                 0.1379
 IR Inten    --      1.3815                 3.3902                 1.0858

                     16                     17                     18
                      A                      A                      A
 Frequencies --    337.7965               363.2924               423.5810
 Red. masses --      3.5131                 2.8181                 3.7824
 Frc consts  --      0.2362                 0.2191                 0.3998
 IR Inten    --      4.3404                 0.5651                 0.6499

                     19                     20                     21
                      A                      A                      A
 Frequencies --    437.9524               508.8888               551.9112
 Red. masses --      3.7816                 2.1657                 3.7364
 Frc consts  --      0.4273                 0.3304                 0.6706
 IR Inten    --      2.2368                69.6662                 0.6256

                     22                     23                     24
                      A                      A                      A
 Frequencies --    578.2903               598.1854               603.1302
 Red. masses --      4.3919                 3.8627                 3.1567
 Frc consts  --      0.8653                 0.8144                 0.6766
 IR Inten    --     20.9713                 7.1341                15.5856

                     25                     26                     27
                      A                      A                      A
 Frequencies --    612.6476               651.1791               675.0825
 Red. masses --      2.8747                 3.9850                 5.6435
 Frc consts  --      0.6357                 0.9956                 1.5153
 IR Inten    --     18.5465                 0.2843                 1.7198

                     28                     29                     30
                      A                      A                      A
 Frequencies --    713.2612               724.0484               729.5041
 Red. masses --      1.8175                 4.1806                 2.2545
 Frc consts  --      0.5448                 1.2913                 0.7069
 IR Inten    --      9.2286                10.7798                46.7927

                     31                     32                     33
                      A                      A                      A
 Frequencies --    747.5600               800.5736               803.6507
 Red. masses --      4.6841                 1.2630                 1.3157
 Frc consts  --      1.5423                 0.4769                 0.5007
 IR Inten    --      6.3385                 2.7702                 0.5450

                     34                     35                     36
                      A                      A                      A
 Frequencies --    813.6879               822.0930               886.4539
 Red. masses --      1.7191                 1.7510                 1.4287
 Frc consts  --      0.6706                 0.6972                 0.6615
 IR Inten    --     13.3632                18.4595                 0.1119

                     37                     38                     39
                      A                      A                      A
 Frequencies --    915.5029               960.5155              1007.1412
 Red. masses --      2.3008                 2.1228                 2.1564
 Frc consts  --      1.1362                 1.1539                 1.2887
 IR Inten    --      0.7418                 3.8137                 8.0384

                     40                     41                     42
                      A                      A                      A
 Frequencies --   1017.1061              1038.3881              1058.9882
 Red. masses --      7.0418                 2.0246                 1.7731
 Frc consts  --      4.2921                 1.2862                 1.1715
 IR Inten    --     12.1557                 2.6934                 8.2903

                     43                     44                     45
                      A                      A                      A
 Frequencies --   1079.9640              1088.8157              1099.8961
 Red. masses --      1.6300                 1.5336                 1.3762
 Frc consts  --      1.1201                 1.0712                 0.9809
 IR Inten    --     12.6837                 3.6119                32.4720

                     46                     47                     48
                      A                      A                      A
 Frequencies --   1102.2099              1118.6691              1160.5776
 Red. masses --      1.4718                 1.9965                 3.2443
 Frc consts  --      1.0535                 1.4721                 2.5747
 IR Inten    --      8.1505                 3.9505                48.8631

                     49                     50                     51
                      A                      A                      A
 Frequencies --   1163.2511              1192.8129              1212.3550
 Red. masses --      1.2957                 3.0886                 3.3238
 Frc consts  --      1.0330                 2.5891                 2.8783
 IR Inten    --      0.2098                 3.3955                 8.1820

                     52                     53                     54
                      A                      A                      A
 Frequencies --   1244.8978              1276.2950              1296.2247
 Red. masses --      1.3370                 1.7919                 1.4092
 Frc consts  --      1.2208                 1.7198                 1.3951
 IR Inten    --      3.6814                 5.3745                 0.8166

                     55                     56                     57
                      A                      A                      A
 Frequencies --   1330.7738              1341.3803              1366.2551
 Red. masses --      1.6087                 3.0331                 1.6642
 Frc consts  --      1.6785                 3.2155                 1.8303
 IR Inten    --     10.3691                23.1791                10.7349

                     58                     59                     60
                      A                      A                      A
 Frequencies --   1373.9817              1382.8012              1410.5788
 Red. masses --      1.2560                 2.1694                 2.2988
 Frc consts  --      1.3971                 2.4441                 2.6949
 IR Inten    --     34.4167                38.8298                19.5355

                     61                     62                     63
                      A                      A                      A
 Frequencies --   1434.7280              1437.9635              1468.8813
 Red. masses --      1.2464                 1.2267                 2.7194
 Frc consts  --      1.5116                 1.4945                 3.4570
 IR Inten    --     13.0363                 1.5925                72.8510

                     64                     65                     66
                      A                      A                      A
 Frequencies --   1476.3824              1500.9501              1505.7816
 Red. masses --      1.3906                 1.0476                 1.5735
 Frc consts  --      1.7859                 1.3905                 2.1020
 IR Inten    --     24.2809                 7.0837                 6.5361

                     67                     68                     69
                      A                      A                      A
 Frequencies --   1511.5558              1518.3451              1526.0118
 Red. masses --      1.0689                 1.1229                 1.0400
 Frc consts  --      1.4389                 1.5252                 1.4269
 IR Inten    --      2.3562                 6.2385                 7.3037

                     70                     71                     72
                      A                      A                      A
 Frequencies --   1527.5049              1534.0779              1543.1494
 Red. masses --      1.0749                 1.0909                 2.3052
 Frc consts  --      1.4777                 1.5127                 3.2342
 IR Inten    --      3.1323                 0.8290                55.4892

                     73                     74                     75
                      A                      A                      A
 Frequencies --   1557.8021              1559.7278              1617.9064
 Red. masses --      1.9116                 3.5107                 4.7722
 Frc consts  --      2.7331                 5.0320                 7.3599
 IR Inten    --     67.7995                13.1733               376.0557

                     76                     77                     78
                      A                      A                      A
 Frequencies --   1627.0653              2982.5980              3039.3457
 Red. masses --      5.8443                 1.0832                 1.0629
 Frc consts  --      9.1157                 5.6773                 5.7850
 IR Inten    --      4.0320                31.9116                34.4859

                     79                     80                     81
                      A                      A                      A
 Frequencies --   3053.4557              3062.6729              3063.7000
 Red. masses --      1.0347                 1.0327                 1.0348
 Frc consts  --      5.6839                 5.7074                 5.7227
 IR Inten    --     28.8874                76.4182                13.3048

                     82                     83                     84
                      A                      A                      A
 Frequencies --   3079.8074              3123.4801              3125.1740
 Red. masses --      1.1003                 1.1027                 1.1058
 Frc consts  --      6.1488                 6.3383                 6.3632
 IR Inten    --     10.1116                47.5613                19.3956

                     85                     86                     87
                      A                      A                      A
 Frequencies --   3129.8966              3137.5718              3143.8619
 Red. masses --      1.1036                 1.1030                 1.1025
 Frc consts  --      6.3699                 6.3977                 6.4203
 IR Inten    --     29.1594                25.0407                34.5265

                     88                     89                     90
                      A                      A                      A
 Frequencies --   3158.5882              3205.8852              3220.6615
 Red. masses --      1.1038                 1.0891                 1.0969
 Frc consts  --      6.4883                 6.5949                 6.7034
 IR Inten    --     12.2590                13.6524                10.1319

                     91                     92                     93
                      A                      A                      A
 Frequencies --   3265.9705              3293.6939              3573.9844
 Red. masses --      1.0933                 1.1010                 1.0754
 Frc consts  --      6.8712                 7.0370                 8.0935
 IR Inten    --      5.3189                 1.9196                13.8281

 - Thermochemistry -
 -------------------
 Temperature   298.150 Kelvin.  Pressure   1.00000 Atm.
 Atom     1 has atomic number  6 and mass  12.00000

 Molecular mass:   235.11432 amu.
 Principal axes and moments of inertia in atomic units:
                           1         2         3
     Eigenvalues --  1602.208149329.45853**********
           X            0.99998  -0.00695   0.00019
           Y            0.00695   0.99992   0.01036
           Z           -0.00026  -0.01036   0.99995
 This molecule is an asymmetric top.
 Rotational symmetry number  1.
 Warning -- assumption of classical behavior for rotation
           may cause significant error
 Rotational temperatures (Kelvin)      0.05406     0.00928     0.00861
 Rotational constants (GHZ):           1.12641     0.19345     0.17935
 Zero-point vibrational energy     728679.0 (Joules/Mol)
                                  174.15846 (Kcal/Mol)
 Warning -- explicit consideration of  25 degrees of freedom as
           vibrations may cause significant error
 Vibrational temperatures:     30.57    50.51    59.10    71.11    90.97
          (Kelvin)            100.64   176.33   217.27   244.72   254.12
                              320.21   342.53   361.14   399.74   439.56
                              486.01   522.70   609.44   630.12   732.18
                              794.08   832.03   860.66   867.77   881.46
                              936.90   971.29  1026.22  1041.74  1049.59
                             1075.57  1151.85  1156.27  1170.72  1182.81
                             1275.41  1317.20  1381.97  1449.05  1463.39
                             1494.01  1523.65  1553.83  1566.56  1582.51
                             1585.83  1609.52  1669.81  1673.66  1716.19
                             1744.31  1791.13  1836.30  1864.98  1914.69
                             1929.95  1965.74  1976.85  1989.54  2029.51
                             2064.25  2068.91  2113.39  2124.18  2159.53
                             2166.48  2174.79  2184.56  2195.59  2197.74
                             2207.20  2220.25  2241.33  2244.10  2327.81
                             2340.98  4291.29  4372.94  4393.24  4406.50
                             4407.98  4431.16  4493.99  4496.43  4503.22
                             4514.27  4523.32  4544.50  4612.55  4633.81
                             4699.00  4738.89  5142.17

 Zero-point correction=                           0.277539 (Hartree/Particle)
 Thermal correction to Energy=                    0.294287
 Thermal correction to Enthalpy=                  0.295231
 Thermal correction to Gibbs Free Energy=         0.230423
 Sum of electronic and zero-point Energies=          -1029.714285
 Sum of electronic and thermal Energies=             -1029.697537
 Sum of electronic and thermal Enthalpies=           -1029.696593
 Sum of electronic and thermal Free Energies=        -1029.761401

                     E (Thermal)             CV                S
                      KCal/Mol        Cal/Mol-Kelvin    Cal/Mol-Kelvin
 Total                  184.668             61.456            136.400
 Electronic               0.000              0.000              0.000
 Translational            0.889              2.981             42.266
 Rotational               0.889              2.981             33.375
 Vibrational            182.890             55.495             60.759
 Vibration     1          0.593              1.985              6.514
 Vibration     2          0.594              1.982              5.518
 Vibration     3          0.594              1.981              5.206
 Vibration     4          0.595              1.978              4.840
 Vibration     5          0.597              1.972              4.354
 Vibration     6          0.598              1.968              4.155
 Vibration     7          0.610              1.930              3.060
 Vibration     8          0.618              1.902              2.660
 Vibration     9          0.625              1.879              2.434
 Vibration    10          0.628              1.871              2.364
 Vibration    11          0.648              1.807              1.938
 Vibration    12          0.656              1.782              1.817
 Vibration    13          0.663              1.761              1.724
 Vibration    14          0.679              1.714              1.547
 Vibration    15          0.696              1.663              1.387
 Vibration    16          0.718              1.600              1.223
 Vibration    17          0.737              1.548              1.108
 Vibration    18          0.786              1.419              0.880
 Vibration    19          0.798              1.387              0.833
 Vibration    20          0.864              1.230              0.636
 Vibration    21          0.907              1.136              0.540
 Vibration    22          0.935              1.078              0.489
 Vibration    23          0.956              1.036              0.453
 Vibration    24          0.962              1.025              0.444
 Vibration    25          0.972              1.005              0.428

                           ! Non-Optimized Parameters !
 Normal termination of Gaussian 16 at Thu Dec 10 21:35:10 2020.

 ----------------------------------------------------------------------
 # B3LYP/6-311++G(d,p) empiricaldispersion=gd3bj scf=xqc pop=npa geom=c
 heck
 ----------------------------------------------------------------------

 --------------------------------------
 CID_61335730_JID_6212_Energie_neutraal
 --------------------------------------
 Structure from the checkpoint file:  "JID_6212.chk"
 Charge =  0 Multiplicity = 1

 SCF Done:  E(RB3LYP) =  -1030.19034231     A.U. after   15 cycles
 Normal termination of Gaussian 16 at Thu Dec 10 21:40:44 2020.

 ----------------------------------------------------------------------
 # B3LYP/6-311++G(d,p) empiricaldispersion=gd3bj scf=xqc pop=npa geom=c
 heck
 ----------------------------------------------------------------------

 ------------------------------------
 CID_61335730_JID_6212_Energie_kation
 ------------------------------------
 Structure from the checkpoint file:  "JID_6212.chk"
 Charge =  1 Multiplicity = 2

 SCF Done:  E(UB3LYP) =  -1029.92621549     A.U. after   23 cycles
 Normal termination of Gaussian 16 at Thu Dec 10 21:52:48 2020.
 Gaussian 16:  ES64L-G16RevA.03 25-Dec-2016

 ----------------------------------------------------------------------
 # B3LYP/6-311++G(d,p) empiricaldispersion=gd3bj scf=xqc pop=npa geom=c
 heck
 ----------------------------------------------------------------------

 -----------------------------------
 CID_61335730_JID_6212_Energie_anion
 -----------------------------------
 Structure from the checkpoint file:  "JID_6212.chk"
 Charge = -1 Multiplicity = 2

                         Standard orientation:
 ---------------------------------------------------------------------
 Center     Atomic      Atomic             Coordinates (Angstroms)
 Number     Number       Type             X           Y           Z
 ---------------------------------------------------------------------
      1          6           0       -4.722790    2.217723   -0.306756
      2          6           0       -4.837565    0.697518   -0.109243
      3          6           0       -3.541712    0.044039    0.273805
      4          6           0       -3.201019   -0.537883    1.464433
      5          6           0       -1.859079   -1.028646    1.498603
      6          6           0       -1.174683   -0.824852    0.332689
      7         16           0       -2.191225   -0.009856   -0.841108
      8          6           0        0.236502   -1.216529    0.001909
      9          6           0        0.289677   -2.270378   -1.116678
     10          7           0        1.002294   -0.023066   -0.382286
     11          6           0        2.372001    0.004260   -0.143176
     12          7           0        3.005153    1.180096   -0.065237
     13          7           0        4.309887    0.855040    0.148777
     14          6           0        4.502471   -0.482921    0.210886
     15          6           0        3.269308   -1.084149    0.029886
     16          6           0        5.288578    1.911013    0.262839
     17          1           0       -4.355724    2.699171    0.605611
     18          1           0       -5.696482    2.651328   -0.560172
     19          1           0       -4.023845    2.457661   -1.115140
     20          1           0       -5.564804    0.482209    0.682798
     21          1           0       -5.234373    0.241434   -1.026019
     22          1           0       -3.891650   -0.609998    2.298519
     23          1           0       -1.414378   -1.516476    2.359913
     24          1           0        0.659257   -1.657931    0.919495
     25          1           0       -0.177824   -1.876544   -2.024059
     26          1           0        1.323412   -2.532608   -1.358505
     27          1           0       -0.242914   -3.176997   -0.811123
     28          1           0        0.563029    0.845724   -0.100931
     29          1           0        5.483265   -0.905956    0.376974
     30          1           0        3.057010   -2.141566    0.025642
     31          1           0        5.341661    2.484666   -0.668013
     32          1           0        5.018204    2.587930    1.078973
     33          1           0        6.264290    1.465979    0.469807
 ---------------------------------------------------------------------

 SCF Done:  E(UB3LYP) =  -1030.17906221     A.U. after   33 cycles
 SCF Done:  E(UB3LYP) =  -1030.17906221     a.u. after    1 cycles

 The electronic state is 2-A.
 Alpha  occ. eigenvalues --  -88.77622 -14.29422 -14.22723 -14.22310 -10.13436
 Alpha  occ. eigenvalues --  -10.13261 -10.11897 -10.11479 -10.10736 -10.10680
 Alpha  occ. eigenvalues --  -10.09120 -10.08353 -10.07881 -10.07795 -10.07490
 Alpha  occ. eigenvalues --  -10.07200  -7.86264  -5.82550  -5.82187  -5.81859
 Alpha  occ. eigenvalues --   -0.95509  -0.84653  -0.78862  -0.74318  -0.70018
 Alpha  occ. eigenvalues --   -0.69383  -0.67069  -0.63840  -0.61742  -0.60153
 Alpha  occ. eigenvalues --   -0.55593  -0.52932  -0.50262  -0.48486  -0.45431
 Alpha  occ. eigenvalues --   -0.44667  -0.43681  -0.41431  -0.38810  -0.38156
 Alpha  occ. eigenvalues --   -0.37935  -0.36495  -0.34967  -0.34218  -0.33792
 Alpha  occ. eigenvalues --   -0.32446  -0.31480  -0.31079  -0.30506  -0.29727
 Alpha  occ. eigenvalues --   -0.29401  -0.28813  -0.28130  -0.26691  -0.26273
 Alpha  occ. eigenvalues --   -0.25461  -0.24241  -0.21293  -0.20395  -0.16199
 Alpha  occ. eigenvalues --   -0.15675  -0.13835  -0.11367   0.03816
 Alpha virt. eigenvalues --    0.04756   0.06538   0.06647   0.07234   0.07717
 Alpha virt. eigenvalues --    0.08113   0.08607   0.08863   0.09098   0.09541
 Alpha virt. eigenvalues --    0.10498   0.10903   0.11073   0.11465   0.11664

  Beta  occ. eigenvalues --  -88.77611 -14.29421 -14.22714 -14.22302 -10.13439
  Beta  occ. eigenvalues --  -10.13260 -10.11854 -10.11458 -10.10671 -10.10597
  Beta  occ. eigenvalues --  -10.09103 -10.08355 -10.07862 -10.07789 -10.07458
  Beta  occ. eigenvalues --  -10.07197  -7.86252  -5.82545  -5.82182  -5.81827
  Beta  occ. eigenvalues --   -0.95500  -0.84631  -0.78779  -0.74289  -0.69939
  Beta  occ. eigenvalues --   -0.69361  -0.67034  -0.63778  -0.61670  -0.60102
  Beta  occ. eigenvalues --   -0.55535  -0.52889  -0.50217  -0.48465  -0.45370
  Beta  occ. eigenvalues --   -0.44580  -0.43618  -0.41389  -0.38780  -0.38122
  Beta  occ. eigenvalues --   -0.37909  -0.36451  -0.34922  -0.34168  -0.33729
  Beta  occ. eigenvalues --   -0.32412  -0.31435  -0.31057  -0.30426  -0.29677
  Beta  occ. eigenvalues --   -0.29365  -0.28781  -0.28081  -0.26591  -0.26206
  Beta  occ. eigenvalues --   -0.25404  -0.24182  -0.21276  -0.20385  -0.16036
  Beta  occ. eigenvalues --   -0.15664  -0.13485  -0.11350
  Beta virt. eigenvalues --    0.05838   0.06235   0.06803   0.07146   0.07569
  Beta virt. eigenvalues --    0.08211   0.08292   0.08718   0.09055   0.09397
  Beta virt. eigenvalues --    0.10050   0.10556   0.10958   0.11306   0.11502

 Mulliken charges and spin densities:
               1          2
     1  C    0.338508  -0.910759
     2  C    0.059897  -0.670804
     3  C   -0.310153   0.592023
     4  C   -0.029817   0.125731
     5  C    0.293230  -0.141484
     6  C    0.188419  -0.129643
     7  S   -0.313233  -0.065709
     8  C    0.079538  -0.188871
     9  C   -0.447604  -0.124739
    10  N    0.007750  -0.003146
    11  C   -0.156479  -0.340145
    12  N   -0.489137   0.230929
    13  N    0.089498   0.037283
    14  C   -0.287902   0.082481
    15  C    0.826823  -0.675192
    16  C    0.952175  -1.261502
    17  H    0.085832   0.051964
    18  H   -0.361366   0.499685
    19  H    0.053948   0.080590
    20  H   -0.280001   0.434059
    21  H   -0.217805   0.384262
    22  H   -0.153442   0.310816
    23  H    0.034793   0.108065
    24  H    0.203346  -0.071790
    25  H    0.125322   0.036499
    26  H    0.145957  -0.043529
    27  H    0.065944   0.081279
    28  H    0.259848  -0.016738
    29  H   -0.906288   1.082196
    30  H    0.045742   0.108822
    31  H   -0.081019   0.248597
    32  H   -0.103704   0.273083
    33  H   -0.718623   0.875686
 Sum of Mulliken charges =  -1.00000   1.00000

 Dipole moment (field-independent basis, Debye):
    X=             -2.9782    Y=             -2.9672    Z=             -0.0399  Tot=              4.2042
 Quadrupole moment (field-independent basis, Debye-Ang):
   XX=           -272.1432   YY=           -136.0417   ZZ=           -130.5528
   XY=              0.6246   XZ=             -9.2073   YZ=              1.0903

 Summary of Natural Population Analysis:

                                       Natural Population
                Natural  -----------------------------------------------
    Atom  No    Charge         Core      Valence    Rydberg      Total
 -----------------------------------------------------------------------
      C    1   -0.28113      0.99966     2.27553    0.00593     3.28113
      C    2   -0.20693      0.99958     2.19690    0.01045     3.20693
      C    3   -0.08021      0.99950     2.06765    0.01306     3.08021
      C    4   -0.13118      0.99946     2.12128    0.01045     3.13118
      C    5   -0.12505      0.99946     2.11622    0.00937     3.12505
      C    6   -0.08759      0.99947     2.07611    0.01200     3.08759
      S    7    0.19857      4.99937     2.78278    0.01928     7.80143
      C    8   -0.02443      0.99953     2.01287    0.01202     3.02443
      C    9   -0.28261      0.99964     2.27756    0.00540     3.28261
      N   10   -0.32300      0.99966     2.81274    0.01060     3.82300
      C   11    0.17290      0.99958     1.81210    0.01543     2.82710
      N   12   -0.18423      0.99969     2.67369    0.01085     3.68423
      N   13   -0.10876      0.99967     2.59617    0.01292     3.60876
      C   14    0.00518      0.99957     1.98331    0.01195     2.99482
      C   15   -0.19357      0.99953     2.18541    0.00863     3.19357
      C   16   -0.16993      0.99964     2.16180    0.00849     3.16993
      H   17    0.09779      0.00000     0.40125    0.00095     0.40221
      H   18    0.09987      0.00000     0.39861    0.00152     0.40013
      H   19    0.09791      0.00000     0.40123    0.00087     0.40209
      H   20    0.10503      0.00000     0.39328    0.00169     0.39497
      H   21    0.10445      0.00000     0.39379    0.00176     0.39555
      H   22    0.10512      0.00000     0.39391    0.00096     0.39488
      H   23    0.10510      0.00000     0.39389    0.00101     0.39490
      H   24    0.09406      0.00000     0.40348    0.00246     0.40594
      H   25    0.10279      0.00000     0.39621    0.00100     0.39721
      H   26    0.09936      0.00000     0.39974    0.00089     0.40064
      H   27    0.09885      0.00000     0.40017    0.00098     0.40115
      H   28    0.19402      0.00000     0.30363    0.00235     0.30598
      H   29    0.10605      0.00000     0.39191    0.00203     0.39395
      H   30    0.10826      0.00000     0.39080    0.00094     0.39174
      H   31    0.09873      0.00000     0.39996    0.00131     0.40127
      H   32    0.09999      0.00000     0.39861    0.00140     0.40001
      H   33    0.10457      0.00000     0.39225    0.00319     0.39543
 =======================================================================
   * Total *   -0.00000     19.99301    42.80486    0.20213    63.00000

 Normal termination of Gaussian 16 at Thu Dec 10 22:10:12 2020.
