 Gaussian 16, Revision A.03,

 -----------------------------------------------------------
 # opt freq B3LYP/6-31G(d) empiricaldispersion=gd3bj scf=xqc
 -----------------------------------------------------------

 -------------------------------
 CID_131214963_JID_1014_neutraal
 -------------------------------
 Symbolic Z-matrix:
 Charge =  0 Multiplicity = 1

 SCF Done:  E(RB3LYP) =  -501.821783378     A.U. after   14 cycles
 SCF Done:  E(RB3LYP) =  -501.823883500     A.U. after   12 cycles
 SCF Done:  E(RB3LYP) =  -501.822869524     A.U. after   13 cycles
 SCF Done:  E(RB3LYP) =  -501.823389505     A.U. after   12 cycles
 SCF Done:  E(RB3LYP) =  -501.824245349     A.U. after   10 cycles
 SCF Done:  E(RB3LYP) =  -501.824424098     A.U. after   12 cycles
 SCF Done:  E(RB3LYP) =  -501.824437638     A.U. after   11 cycles
 SCF Done:  E(RB3LYP) =  -501.824620908     A.U. after   11 cycles
 SCF Done:  E(RB3LYP) =  -501.824625291     A.U. after   10 cycles
 SCF Done:  E(RB3LYP) =  -501.824645954     A.U. after   10 cycles
 SCF Done:  E(RB3LYP) =  -501.824650932     A.U. after   10 cycles
 SCF Done:  E(RB3LYP) =  -501.824653542     A.U. after    9 cycles
 SCF Done:  E(RB3LYP) =  -501.824655849     A.U. after   10 cycles
 SCF Done:  E(RB3LYP) =  -501.824656749     A.U. after    9 cycles
 SCF Done:  E(RB3LYP) =  -501.824656906     A.U. after    7 cycles
 Optimization completed.
    -- Stationary point found.

 1\1\GINC-NODE316\FOpt\RB3LYP\6-31G(d)\C9H14O2\VSC10255\08-Dec-2020\0\\
 # opt freq B3LYP/6-31G(d) empiricaldispersion=gd3bj scf=xqc\\CID_13121
 4963_JID_1014_neutraal\\0,1\C,0.9092768253,-0.0979878079,-0.0297158427
 \C,0.3729344894,-0.1713737167,-1.4669908479\C,0.7523465724,-1.49959037
 84,-2.1452488595\C,-1.1342227643,0.0148359481,-1.5132264826\O,-1.70828
 86866,0.8511788695,-2.1799578862\O,-1.7534348263,-0.8959811073,-0.7284
 764613\C,-3.1999073979,-0.9889522949,-0.7309879357\C,-3.8475097333,0.2
 329723299,-0.0904247039\C,-3.7519109971,-1.289645119,-2.1389958244\C,-

 Normal termination of Gaussian 16 at Tue Dec  8 19:12:34 2020.

 --------------------------------------------------------------------
 #N Geom=AllCheck Guess=TCheck SCRF=Check GenChk RB3LYP/6-31G(d) Freq
 --------------------------------------------------------------------

 Structure from the checkpoint file:  "JID_1014.chk"
 -------------------------------
 CID_131214963_JID_1014_neutraal
 -------------------------------
 Charge =  0 Multiplicity = 1

 SCF Done:  E(RB3LYP) =  -501.824656906     A.U. after    1 cycles

  Exact polarizability:  96.870   6.451 106.795   0.006  -3.089  76.569
 Approx polarizability: 121.179  13.299 152.022  -1.792 -12.208 124.832

                      1                      2                      3
                      A                      A                      A
 Frequencies --     23.9027                53.1076                67.1932
 Red. masses --      2.9079                 4.7660                 4.0828
 Frc consts  --      0.0010                 0.0079                 0.0109
 IR Inten    --      0.1065                 0.1560                 2.2155

                      4                      5                      6
                      A                      A                      A
 Frequencies --    140.5564               150.6793               172.1927
 Red. masses --      4.4414                 3.1309                 3.0164
 Frc consts  --      0.0517                 0.0419                 0.0527
 IR Inten    --      0.0965                 0.4678                 2.5290

                      7                      8                      9
                      A                      A                      A
 Frequencies --    215.1608               227.2261               235.7001
 Red. masses --      1.2261                 2.3770                 1.2685
 Frc consts  --      0.0334                 0.0723                 0.0415
 IR Inten    --      0.5611                 1.5488                 0.5668

                     10                     11                     12
                      A                      A                      A
 Frequencies --    246.1943               254.3289               332.4656
 Red. masses --      1.8794                 1.2242                 2.6602
 Frc consts  --      0.0671                 0.0467                 0.1732
 IR Inten    --      1.1011                 0.5204                 0.2799

                     13                     14                     15
                      A                      A                      A
 Frequencies --    343.1255               360.3427               398.8058
 Red. masses --      3.1100                 3.2077                 4.4900
 Frc consts  --      0.2157                 0.2454                 0.4207
 IR Inten    --      1.1637                 7.1654                 4.1365

                     16                     17                     18
                      A                      A                      A
 Frequencies --    461.2860               527.9248               550.4968
 Red. masses --      2.9754                 3.5389                 4.6258
 Frc consts  --      0.3730                 0.5811                 0.8259
 IR Inten    --      3.0323                 5.7409                 8.0645

                     19                     20                     21
                      A                      A                      A
 Frequencies --    597.3107               613.4491               635.0522
 Red. masses --      1.1988                 1.2085                 2.4905
 Frc consts  --      0.2520                 0.2680                 0.5918
 IR Inten    --     49.6797                48.7533                 0.5748

                     22                     23                     24
                      A                      A                      A
 Frequencies --    770.4983               822.7757               852.5954
 Red. masses --      6.3860                 5.3166                 2.8799
 Frc consts  --      2.2337                 2.1206                 1.2334
 IR Inten    --      7.9552                15.1282                 0.3457

                     25                     26                     27
                      A                      A                      A
 Frequencies --    910.8349               916.7823               941.3605
 Red. masses --      2.0447                 1.6820                 2.3273
 Frc consts  --      0.9995                 0.8329                 1.2151
 IR Inten    --      2.2549                 0.9665                 3.8806

                     28                     29                     30
                      A                      A                      A
 Frequencies --    952.8229               984.8310               994.6813
 Red. masses --      1.1620                 1.5298                 2.9408
 Frc consts  --      0.6216                 0.8742                 1.7143
 IR Inten    --      2.1243                 0.1417                 1.3496

                     31                     32                     33
                      A                      A                      A
 Frequencies --   1076.8766              1110.9243              1131.1223
 Red. masses --      1.8424                 2.3357                 2.3810
 Frc consts  --      1.2588                 1.6984                 1.7948
 IR Inten    --     26.9461               155.1749                 0.2391

                     34                     35                     36
                      A                      A                      A
 Frequencies --   1143.1274              1169.6146              1206.1330
 Red. masses --      2.0126                 2.1946                 1.8931
 Frc consts  --      1.5495                 1.7688                 1.6226
 IR Inten    --      3.4376                79.4418                 2.8537

                     37                     38                     39
                      A                      A                      A
 Frequencies --   1278.0559              1290.8976              1333.5079
 Red. masses --      1.3021                 2.9387                 1.3164
 Frc consts  --      1.2531                 2.8853                 1.3792
 IR Inten    --      0.4770               241.1831                 9.7515

                     40                     41                     42
                      A                      A                      A
 Frequencies --   1358.7875              1367.3411              1404.1379
 Red. masses --      1.4514                 1.3563                 1.4126
 Frc consts  --      1.5788                 1.4941                 1.6409
 IR Inten    --      4.2057                 3.0215                13.0027

                     43                     44                     45
                      A                      A                      A
 Frequencies --   1424.7301              1427.1663              1435.7855
 Red. masses --      1.2206                 1.2517                 1.2715
 Frc consts  --      1.4598                 1.5021                 1.5443
 IR Inten    --      2.0108                11.0443                12.0062

                     46                     47                     48
                      A                      A                      A
 Frequencies --   1450.0746              1497.9081              1515.9162
 Red. masses --      1.2535                 1.0927                 1.0490
 Frc consts  --      1.5530                 1.4445                 1.4203
 IR Inten    --      6.6024                 9.2764                10.4048

                     49                     50                     51
                      A                      A                      A
 Frequencies --   1517.6442              1519.6414              1531.7003
 Red. masses --      1.0413                 1.0496                 1.0448
 Frc consts  --      1.4131                 1.4281                 1.4443
 IR Inten    --      2.3251                 2.9552                 7.6580

                     52                     53                     54
                      A                      A                      A
 Frequencies --   1539.6478              1541.9452              1812.8330
 Red. masses --      1.0513                 1.0616                10.8186
 Frc consts  --      1.4683                 1.4872                20.9478
 IR Inten    --      0.9177                27.4824               190.5466

                     55                     56                     57
                      A                      A                      A
 Frequencies --   2244.9214              3048.1672              3054.4037
 Red. masses --      5.9766                 1.0673                 1.0350
 Frc consts  --     17.7461                 5.8428                 5.6890
 IR Inten    --      1.6786                13.4058                26.1132

                     58                     59                     60
                      A                      A                      A
 Frequencies --   3058.0514              3065.0130              3085.0077
 Red. masses --      1.0356                 1.0392                 1.0856
 Frc consts  --      5.7059                 5.7522                 6.0877
 IR Inten    --     18.3675                22.3218                 7.3642

                     61                     62                     63
                      A                      A                      A
 Frequencies --   3094.7018              3119.4642              3121.2722
 Red. masses --      1.0863                 1.1030                 1.0932
 Frc consts  --      6.1294                 6.3238                 6.2752
 IR Inten    --     17.7326                24.5260                 5.2142

                     64                     65                     66
                      A                      A                      A
 Frequencies --   3126.5519              3129.2694              3137.1012
 Red. masses --      1.1026                 1.1014                 1.1028
 Frc consts  --      6.3503                 6.3547                 6.3946
 IR Inten    --     29.5161                24.1121                 7.4181

                     67                     68                     69
                      A                      A                      A
 Frequencies --   3143.1675              3170.0890              3496.9253
 Red. masses --      1.1014                 1.1009                 1.1603
 Frc consts  --      6.4112                 6.5183                 8.3596
 IR Inten    --     40.9296                10.1861                53.8354

 - Thermochemistry -
 -------------------
 Temperature   298.150 Kelvin.  Pressure   1.00000 Atm.
 Atom     1 has atomic number  6 and mass  12.00000

 Molecular mass:   154.09938 amu.
 Principal axes and moments of inertia in atomic units:
                           1         2         3
     Eigenvalues --  1318.296512011.208732760.10641
           X            0.99767   0.06741  -0.01011
           Y           -0.06727   0.99764   0.01379
           Z            0.01101  -0.01308   0.99985
 This molecule is an asymmetric top.
 Rotational symmetry number  1.
 Warning -- assumption of classical behavior for rotation
           may cause significant error
 Rotational temperatures (Kelvin)      0.06570     0.04307     0.03138
 Rotational constants (GHZ):           1.36899     0.89734     0.65387
 Zero-point vibrational energy     561846.0 (Joules/Mol)
                                  134.28441 (Kcal/Mol)
 Warning -- explicit consideration of  20 degrees of freedom as
           vibrations may cause significant error
 Vibrational temperatures:     34.39    76.41    96.68   202.23   216.79
          (Kelvin)            247.75   309.57   326.93   339.12   354.22
                              365.92   478.34   493.68   518.45   573.79
                              663.69   759.57   792.04   859.40   882.62
                              913.70  1108.58  1183.79  1226.69  1310.49
                             1319.05  1354.41  1370.90  1416.95  1431.12
                             1549.39  1598.37  1627.43  1644.71  1682.81
                             1735.36  1838.84  1857.31  1918.62  1954.99
                             1967.30  2020.24  2049.87  2053.37  2065.78
                             2086.33  2155.16  2181.07  2183.55  2186.43
                             2203.78  2215.21  2218.52  2608.26  3229.94
                             4385.63  4394.61  4399.85  4409.87  4438.64
                             4452.59  4488.21  4490.81  4498.41  4502.32
                             4513.59  4522.32  4561.05  5031.30

 Zero-point correction=                           0.213996 (Hartree/Particle)
 Thermal correction to Energy=                    0.227045
 Thermal correction to Enthalpy=                  0.227989
 Thermal correction to Gibbs Free Energy=         0.174182
 Sum of electronic and zero-point Energies=           -501.610661
 Sum of electronic and thermal Energies=              -501.597612
 Sum of electronic and thermal Enthalpies=            -501.596668
 Sum of electronic and thermal Free Energies=         -501.650475

                     E (Thermal)             CV                S
                      KCal/Mol        Cal/Mol-Kelvin    Cal/Mol-Kelvin
 Total                  142.473             47.077            113.247
 Electronic               0.000              0.000              0.000
 Translational            0.889              2.981             41.007
 Rotational               0.889              2.981             30.371
 Vibrational            140.695             41.116             41.869
 Vibration     1          0.593              1.985              6.280
 Vibration     2          0.596              1.976              4.698
 Vibration     3          0.598              1.970              4.234
 Vibration     4          0.615              1.913              2.796
 Vibration     5          0.618              1.902              2.664
 Vibration     6          0.626              1.877              2.411
 Vibration     7          0.645              1.818              1.999
 Vibration     8          0.651              1.800              1.901
 Vibration     9          0.655              1.786              1.835
 Vibration    10          0.661              1.769              1.758
 Vibration    11          0.665              1.755              1.700
 Vibration    12          0.714              1.611              1.248
 Vibration    13          0.722              1.589              1.198
 Vibration    14          0.735              1.554              1.121
 Vibration    15          0.765              1.473              0.967
 Vibration    16          0.819              1.336              0.762
 Vibration    17          0.883              1.188              0.592
 Vibration    18          0.906              1.139              0.543
 Vibration    19          0.955              1.038              0.454
 Vibration    20          0.973              1.003              0.427

 Optimization completed.
    -- Stationary point found.

 1\1\GINC-NODE316\Freq\RB3LYP\6-31G(d)\C9H14O2\VSC10255\08-Dec-2020\0\\
 #N Geom=AllCheck Guess=TCheck SCRF=Check GenChk RB3LYP/6-31G(d) Freq\\
 CID_131214963_JID_1014_neutraal\\0,1\C,0.9092768253,-0.0979878079,-0.0
 297158427\C,0.3729344894,-0.1713737167,-1.4669908479\C,0.7523465724,-1
 .4995903784,-2.1452488595\C,-1.1342227643,0.0148359481,-1.5132264826\O
 ,-1.7082886866,0.8511788695,-2.1799578862\O,-1.7534348263,-0.895981107
 3,-0.7284764613\C,-3.1999073979,-0.9889522949,-0.7309879357\C,-3.84750
 97333,0.2329723299,-0.0904247039\C,-3.7519109971,-1.289645119,-2.13899

 Normal termination of Gaussian 16 at Tue Dec  8 19:17:29 2020.

 ----------------------------------------------------------------------
 # B3LYP/6-311++G(d,p) empiricaldispersion=gd3bj scf=xqc pop=npa geom=c
 heck
 ----------------------------------------------------------------------

 ---------------------------------------
 CID_131214963_JID_1014_Energie_neutraal
 ---------------------------------------
 Structure from the checkpoint file:  "JID_1014.chk"
 Charge =  0 Multiplicity = 1

 SCF Done:  E(RB3LYP) =  -501.973617364     A.U. after   14 cycles
 Normal termination of Gaussian 16 at Tue Dec  8 19:19:13 2020.

 ----------------------------------------------------------------------
 # B3LYP/6-311++G(d,p) empiricaldispersion=gd3bj scf=xqc pop=npa geom=c
 heck
 ----------------------------------------------------------------------

 -------------------------------------
 CID_131214963_JID_1014_Energie_kation
 -------------------------------------
 Structure from the checkpoint file:  "JID_1014.chk"
 Charge =  1 Multiplicity = 2

 SCF Done:  E(UB3LYP) =  -501.635301970     A.U. after   23 cycles
 Normal termination of Gaussian 16 at Tue Dec  8 19:22:56 2020.
 Gaussian 16:  ES64L-G16RevA.03 25-Dec-2016

 ------------------------------------
 CID_131214963_JID_1014_Energie_anion
 ------------------------------------
 Structure from the checkpoint file:  "JID_1014.chk"
 Charge = -1 Multiplicity = 2

                         Standard orientation:
 ---------------------------------------------------------------------
 Center     Atomic      Atomic             Coordinates (Angstroms)
 Number     Number       Type             X           Y           Z
 ---------------------------------------------------------------------
      1          6           0        2.880241   -0.685144   -0.715521
      2          6           0        2.108907    0.120385    0.340403
      3          6           0        2.034106    1.612262   -0.029535
      4          6           0        0.706749   -0.426316    0.548745
      5          8           0        0.250189   -0.771209    1.619330
      6          8           0        0.025062   -0.453388   -0.618908
      7          6           0       -1.379780   -0.810125   -0.628381
      8          6           0       -1.593383   -2.280814   -0.290362
      9          6           0       -2.216522    0.134969    0.257209
     10          6           0       -1.950067    1.545449   -0.012597
     11          6           0       -1.706314    2.705541   -0.240136
     12          1           0        2.397428   -0.602135   -1.693638
     13          1           0        2.934673   -1.746437   -0.449068
     14          1           0        3.903924   -0.304949   -0.802602
     15          1           0        2.601658    0.014668    1.312253
     16          1           0        1.527103    1.744640   -0.989838
     17          1           0        1.479997    2.180417    0.724371
     18          1           0        3.043965    2.030206   -0.105701
     19          1           0       -1.650411   -0.628740   -1.672068
     20          1           0       -1.345211   -2.481711    0.753268
     21          1           0       -2.640163   -2.552419   -0.466883
     22          1           0       -0.965521   -2.907332   -0.931420
     23          1           0       -3.274684   -0.090637    0.068829
     24          1           0       -2.017819   -0.088386    1.309275
     25          1           0       -1.500565    3.732345   -0.439106
 ---------------------------------------------------------------------

 SCF Done:  E(UB3LYP) =  -501.957304320     A.U. after   32 cycles

 The electronic state is 2-A.
 Alpha  occ. eigenvalues --  -19.06459 -19.01228 -10.20107 -10.14272 -10.09740
 Alpha  occ. eigenvalues --  -10.08957 -10.07910 -10.06549 -10.06525 -10.06409
 Alpha  occ. eigenvalues --  -10.06338  -1.00579  -0.92224  -0.72680  -0.70057
 Alpha  occ. eigenvalues --   -0.65758  -0.60228  -0.59156  -0.56812  -0.51593
 Alpha  occ. eigenvalues --   -0.44912  -0.42758  -0.40772  -0.38428  -0.37875
 Alpha  occ. eigenvalues --   -0.36755  -0.35375  -0.34237  -0.32901  -0.31364
 Alpha  occ. eigenvalues --   -0.29850  -0.28953  -0.28715  -0.27716  -0.27018
 Alpha  occ. eigenvalues --   -0.24824  -0.24664  -0.24191  -0.21012  -0.18160
 Alpha  occ. eigenvalues --   -0.17752  -0.16827   0.04577
 Alpha virt. eigenvalues --    0.06381   0.07006   0.08400   0.08829   0.08957
 Alpha virt. eigenvalues --    0.10071   0.10104   0.10756   0.11469   0.11661
 Alpha virt. eigenvalues --    0.11901   0.12712   0.12924   0.14024   0.14498

  Beta  occ. eigenvalues --  -19.06455 -19.01222 -10.20106 -10.14255 -10.09717
  Beta  occ. eigenvalues --  -10.08949 -10.07911 -10.06516 -10.06503 -10.06382
  Beta  occ. eigenvalues --  -10.06298  -1.00569  -0.92215  -0.72649  -0.70028
  Beta  occ. eigenvalues --   -0.65726  -0.60179  -0.59099  -0.56767  -0.51538
  Beta  occ. eigenvalues --   -0.44867  -0.42716  -0.40728  -0.38401  -0.37841
  Beta  occ. eigenvalues --   -0.36724  -0.35330  -0.34206  -0.32869  -0.31324
  Beta  occ. eigenvalues --   -0.29815  -0.28915  -0.28674  -0.27683  -0.26981
  Beta  occ. eigenvalues --   -0.24798  -0.24634  -0.24154  -0.20998  -0.18140
  Beta  occ. eigenvalues --   -0.17724  -0.16805
  Beta virt. eigenvalues --    0.06873   0.07702   0.07835   0.09045   0.09162
  Beta virt. eigenvalues --    0.09547   0.10290   0.10592   0.11095   0.11665
  Beta virt. eigenvalues --    0.12075   0.12343   0.12963   0.13251   0.14183

 Mulliken charges and spin densities:
               1          2
     1  C    0.792376  -1.363695
     2  C   -1.574284   1.830323
     3  C    0.599234  -1.175210
     4  C    0.793091  -1.130904
     5  O   -0.243155   0.016585
     6  O    0.074090   0.018684
     7  C   -1.207231   1.295565
     8  C    1.497847  -2.042208
     9  C   -0.708683   0.007150
    10  C    2.002983  -1.300942
    11  C   -0.185956  -0.396612
    12  H   -0.083449   0.250540
    13  H   -0.093027   0.232305
    14  H   -0.263623   0.417505
    15  H   -0.054632   0.238140
    16  H    0.109450   0.055416
    17  H    0.079332   0.060530
    18  H   -0.443005   0.605175
    19  H   -0.517759   0.723022
    20  H    0.117242   0.064397
    21  H   -0.539914   0.700550
    22  H   -0.281100   0.435799
    23  H   -0.447103   0.643241
    24  H    0.243207  -0.025037
    25  H   -0.665932   0.839680
 Sum of Mulliken charges =  -1.00000   1.00000

 Dipole moment (field-independent basis, Debye):
    X=              1.3775    Y=              0.2445    Z=              2.3982  Tot=              2.7764
 Quadrupole moment (field-independent basis, Debye-Ang):
   XX=           -134.5959   YY=           -117.1103   ZZ=            -99.9326
   XY=             -6.5162   XZ=             -4.4051   YZ=             -2.4389

 Summary of Natural Population Analysis:

                                       Natural Population
                Natural  -----------------------------------------------
    Atom  No    Charge         Core      Valence    Rydberg      Total
 -----------------------------------------------------------------------
      C    1   -0.28200      0.99965     2.27672    0.00563     3.28200
      C    2   -0.15334      0.99957     2.14348    0.01029     3.15334
      C    3   -0.28084      0.99965     2.27540    0.00579     3.28084
      C    4    0.41950      0.99964     1.55416    0.02669     2.58050
      O    5   -0.31197      0.99987     3.30693    0.00517     4.31197
      O    6   -0.28744      0.99985     3.27707    0.01051     4.28744
      C    7    0.07211      0.99954     1.91328    0.01507     2.92789
      C    8   -0.29957      0.99963     2.29375    0.00618     3.29957
      C    9   -0.24900      0.99954     2.23908    0.01038     3.24900
      C   10    0.00413      0.99936     1.98719    0.00931     2.99587
      C   11   -0.12105      0.99926     2.11856    0.00323     3.12105
      H   12    0.10479      0.00000     0.39381    0.00139     0.39521
      H   13    0.10043      0.00000     0.39841    0.00116     0.39957
      H   14    0.10036      0.00000     0.39834    0.00130     0.39964
      H   15    0.10302      0.00000     0.39525    0.00173     0.39698
      H   16    0.10475      0.00000     0.39385    0.00139     0.39525
      H   17    0.10285      0.00000     0.39597    0.00118     0.39715
      H   18    0.09985      0.00000     0.39890    0.00126     0.40015
      H   19    0.09674      0.00000     0.40090    0.00236     0.40326
      H   20    0.10822      0.00000     0.39067    0.00111     0.39178
      H   21    0.10662      0.00000     0.39076    0.00262     0.39338
      H   22    0.10578      0.00000     0.39289    0.00133     0.39422
      H   23    0.12037      0.00000     0.37760    0.00203     0.37963
      H   24    0.12430      0.00000     0.37425    0.00145     0.37570
      H   25    0.11138      0.00000     0.38706    0.00156     0.38862
 =======================================================================
   * Total *    0.00000     10.99557    30.87430    0.13013    42.00000

 Normal termination of Gaussian 16 at Tue Dec  8 19:28:07 2020.
