 Gaussian 16, Revision A.03,

 -----------------------------------------------------------
 # opt freq B3LYP/6-31G(d) empiricaldispersion=gd3bj scf=xqc
 -----------------------------------------------------------

 ------------------------------
 CID_118949418_JID_545_neutraal
 ------------------------------
 Symbolic Z-matrix:
 Charge =  0 Multiplicity = 1

 SCF Done:  E(RB3LYP) =  -890.520424674     A.U. after   15 cycles
 SCF Done:  E(RB3LYP) =  -890.529139607     A.U. after   13 cycles
 SCF Done:  E(RB3LYP) =  -890.530381618     A.U. after   13 cycles
 SCF Done:  E(RB3LYP) =  -890.530687528     A.U. after   12 cycles
 SCF Done:  E(RB3LYP) =  -890.530779393     A.U. after   12 cycles
 SCF Done:  E(RB3LYP) =  -890.530853881     A.U. after   11 cycles
 SCF Done:  E(RB3LYP) =  -890.530923720     A.U. after   12 cycles
 SCF Done:  E(RB3LYP) =  -890.530950306     A.U. after   11 cycles
 SCF Done:  E(RB3LYP) =  -890.530971234     A.U. after   11 cycles
 SCF Done:  E(RB3LYP) =  -890.531009350     A.U. after   12 cycles
 SCF Done:  E(RB3LYP) =  -890.531027443     A.U. after   12 cycles
 SCF Done:  E(RB3LYP) =  -890.531042299     A.U. after   11 cycles
 SCF Done:  E(RB3LYP) =  -890.531046200     A.U. after   10 cycles
 SCF Done:  E(RB3LYP) =  -890.531048751     A.U. after    9 cycles
 SCF Done:  E(RB3LYP) =  -890.531049670     A.U. after    9 cycles
 SCF Done:  E(RB3LYP) =  -890.531049780     A.U. after    8 cycles
 Optimization completed.
    -- Stationary point found.
 Normal termination of Gaussian 16 at Tue Dec  8 12:13:46 2020.

 --------------------------------------------------------------------
 #N Geom=AllCheck Guess=TCheck SCRF=Check GenChk RB3LYP/6-31G(d) Freq
 --------------------------------------------------------------------

 Structure from the checkpoint file:  "JID_545.chk"
 ------------------------------
 CID_118949418_JID_545_neutraal
 ------------------------------
 Charge =  0 Multiplicity = 1

 SCF Done:  E(RB3LYP) =  -890.531049780     A.U. after    1 cycles

  Exact polarizability:  77.289  -1.912  84.633  -3.154   5.359  64.819
 Approx polarizability:  98.755  -3.245 139.323  -6.379  19.883 105.914

                      1                      2                      3
                      A                      A                      A
 Frequencies --     41.8459                51.0775                85.6369
 Red. masses --      7.9779                 4.0632                 5.9041
 Frc consts  --      0.0082                 0.0062                 0.0255
 IR Inten    --      4.4411                 0.5937                 1.8038

                      4                      5                      6
                      A                      A                      A
 Frequencies --    122.8009               135.2742               179.9127
 Red. masses --      2.2880                 4.3384                 2.3420
 Frc consts  --      0.0203                 0.0468                 0.0447
 IR Inten    --      3.2355                17.0137                41.6580

                      7                      8                      9
                      A                      A                      A
 Frequencies --    237.2825               254.5624               325.0267
 Red. masses --      2.8831                 1.2304                 2.2052
 Frc consts  --      0.0956                 0.0470                 0.1373
 IR Inten    --     11.1555                 1.0880                 7.5411

                     10                     11                     12
                      A                      A                      A
 Frequencies --    339.9687               356.5871               409.0201
 Red. masses --      4.8797                 3.2040                 5.0108
 Frc consts  --      0.3323                 0.2400                 0.4939
 IR Inten    --      6.7103                22.9388                 0.4420

                     13                     14                     15
                      A                      A                      A
 Frequencies --    461.9358               475.3723               495.8440
 Red. masses --      4.3103                 4.1491                10.1199
 Frc consts  --      0.5419                 0.5524                 1.4659
 IR Inten    --      4.7329                 9.2708                20.0319

                     16                     17                     18
                      A                      A                      A
 Frequencies --    536.8361               597.4011               662.8925
 Red. masses --      7.8190                10.4140                 4.0814
 Frc consts  --      1.3277                 2.1898                 1.0567
 IR Inten    --     19.5597               114.4650                40.9237

                     19                     20                     21
                      A                      A                      A
 Frequencies --    792.8783               819.6445               875.5123
 Red. masses --      1.7961                 4.2268                 2.5708
 Frc consts  --      0.6653                 1.6731                 1.1610
 IR Inten    --     60.3501               196.2173                 0.0647

                     22                     23                     24
                      A                      A                      A
 Frequencies --    896.0313               992.2916              1055.8501
 Red. masses --      1.6058                 2.3378                 1.9134
 Frc consts  --      0.7596                 1.3562                 1.2568
 IR Inten    --     39.1698               111.0673                 6.7019

                     25                     26                     27
                      A                      A                      A
 Frequencies --   1119.1095              1152.8403              1175.3635
 Red. masses --      1.9172                 4.4995                 2.6867
 Frc consts  --      1.4147                 3.5233                 2.1869
 IR Inten    --      2.0011                76.1126                38.7393

                     28                     29                     30
                      A                      A                      A
 Frequencies --   1190.4433              1228.1114              1313.8230
 Red. masses --      1.5608                 2.9090                 1.2176
 Frc consts  --      1.3032                 2.5850                 1.2384
 IR Inten    --    153.4490                47.9730                 3.3682

                     31                     32                     33
                      A                      A                      A
 Frequencies --   1339.4620              1397.0543              1404.2245
 Red. masses --      1.4111                 1.5264                 2.5785
 Frc consts  --      1.4917                 1.7553                 2.9956
 IR Inten    --     16.5740                39.0690               128.6723

                     34                     35                     36
                      A                      A                      A
 Frequencies --   1417.9431              1453.8330              1511.9522
 Red. masses --      1.6719                 1.2466                 1.0812
 Frc consts  --      1.9805                 1.5525                 1.4563
 IR Inten    --     54.0593                 6.7412                 2.7342

                     37                     38                     39
                      A                      A                      A
 Frequencies --   1513.1327              1531.8817              1545.6478
 Red. masses --      1.0753                 1.0536                 1.0492
 Frc consts  --      1.4506                 1.4567                 1.4768
 IR Inten    --      2.6195                 9.5214                 9.8154

                     40                     41                     42
                      A                      A                      A
 Frequencies --   2346.9871              3048.3345              3060.1720
 Red. masses --     12.6291                 1.0608                 1.0364
 Frc consts  --     40.9869                 5.8079                 5.7183
 IR Inten    --     95.8080                16.0090                15.6686

                     43                     44                     45
                      A                      A                      A
 Frequencies --   3082.3337              3099.0478              3129.6167
 Red. masses --      1.1012                 1.0675                 1.1027
 Frc consts  --      6.1641                 6.0407                 6.3633
 IR Inten    --     10.5379                21.1495                23.5391

                     46                     47                     48
                      A                      A                      A
 Frequencies --   3133.9825              3167.6162              3694.3178
 Red. masses --      1.1024                 1.1012                 1.0661
 Frc consts  --      6.3792                 6.5098                 8.5727
 IR Inten    --     23.9121                 1.4433               139.4680

 - Thermochemistry -
 -------------------
 Temperature   298.150 Kelvin.  Pressure   1.00000 Atm.
 Atom     1 has atomic number  6 and mass  12.00000

 Molecular mass:   164.02556 amu.
 Principal axes and moments of inertia in atomic units:
                           1         2         3
     Eigenvalues --  1211.638821669.552492217.43840
           X            0.99752  -0.07025   0.00342
           Y            0.07031   0.99724  -0.02397
           Z           -0.00173   0.02415   0.99971
 This molecule is an asymmetric top.
 Rotational symmetry number  1.
 Warning -- assumption of classical behavior for rotation
           may cause significant error
 Rotational temperatures (Kelvin)      0.07148     0.05188     0.03906
 Rotational constants (GHZ):           1.48950     1.08097     0.81389
 Zero-point vibrational energy     354445.8 (Joules/Mol)
                                   84.71459 (Kcal/Mol)
 Warning -- explicit consideration of  17 degrees of freedom as
           vibrations may cause significant error
 Vibrational temperatures:     60.21    73.49   123.21   176.68   194.63
          (Kelvin)            258.85   341.40   366.26   467.64   489.14
                              513.05   588.49   664.62   683.95   713.41
                              772.39   859.53   953.75  1140.78  1179.29
                             1259.67  1289.19  1427.69  1519.13  1610.15
                             1658.68  1691.09  1712.78  1766.98  1890.30
                             1927.19  2010.05  2020.37  2040.10  2091.74
                             2175.36  2177.06  2204.04  2223.84  3376.79
                             4385.87  4402.90  4434.79  4458.84  4502.82
                             4509.10  4557.49  5315.30

 Zero-point correction=                           0.135001 (Hartree/Particle)
 Thermal correction to Energy=                    0.146344
 Thermal correction to Enthalpy=                  0.147288
 Thermal correction to Gibbs Free Energy=         0.096964
 Sum of electronic and zero-point Energies=           -890.396048
 Sum of electronic and thermal Energies=              -890.384706
 Sum of electronic and thermal Enthalpies=            -890.383762
 Sum of electronic and thermal Free Energies=         -890.434086

                     E (Thermal)             CV                S
                      KCal/Mol        Cal/Mol-Kelvin    Cal/Mol-Kelvin
 Total                   91.832             39.469            105.916
 Electronic               0.000              0.000              0.000
 Translational            0.889              2.981             41.193
 Rotational               0.889              2.981             29.885
 Vibrational             90.055             33.507             34.838
 Vibration     1          0.594              1.980              5.170
 Vibration     2          0.595              1.977              4.775
 Vibration     3          0.601              1.959              3.757
 Vibration     4          0.610              1.930              3.056
 Vibration     5          0.613              1.918              2.870
 Vibration     6          0.629              1.867              2.329
 Vibration     7          0.656              1.784              1.823
 Vibration     8          0.665              1.755              1.699
 Vibration     9          0.709              1.625              1.285
 Vibration    10          0.720              1.596              1.212
 Vibration    11          0.732              1.562              1.137
 Vibration    12          0.773              1.451              0.930
 Vibration    13          0.820              1.334              0.760
 Vibration    14          0.832              1.305              0.723
 Vibration    15          0.851              1.259              0.669
 Vibration    16          0.892              1.169              0.572
 Vibration    17          0.955              1.037              0.454

 Optimization completed.
    -- Stationary point found.
 Normal termination of Gaussian 16 at Tue Dec  8 12:18:08 2020.

 ----------------------------------------------------------------------
 # B3LYP/6-311++G(d,p) empiricaldispersion=gd3bj scf=xqc pop=npa geom=c
 heck
 ----------------------------------------------------------------------

 --------------------------------------
 CID_118949418_JID_545_Energie_neutraal
 --------------------------------------
 Structure from the checkpoint file:  "JID_545.chk"
 Charge =  0 Multiplicity = 1

 SCF Done:  E(RB3LYP) =  -890.709563169     A.U. after   15 cycles
 Normal termination of Gaussian 16 at Tue Dec  8 12:20:33 2020.

 ----------------------------------------------------------------------
 # B3LYP/6-311++G(d,p) empiricaldispersion=gd3bj scf=xqc pop=npa geom=c
 heck
 ----------------------------------------------------------------------

 ------------------------------------
 CID_118949418_JID_545_Energie_kation
 ------------------------------------
 Structure from the checkpoint file:  "JID_545.chk"
 Charge =  1 Multiplicity = 2

 SCF Done:  E(UB3LYP) =  -890.337090814     A.U. after   21 cycles
 Normal termination of Gaussian 16 at Tue Dec  8 12:26:01 2020.
 Gaussian 16:  ES64L-G16RevA.03 25-Dec-2016

 ----------------------------------------------------------------------
 # B3LYP/6-311++G(d,p) empiricaldispersion=gd3bj scf=xqc pop=npa geom=c
 heck
 ----------------------------------------------------------------------

 -----------------------------------
 CID_118949418_JID_545_Energie_anion
 -----------------------------------
 Structure from the checkpoint file:  "JID_545.chk"
 Charge = -1 Multiplicity = 2

                         Standard orientation:
 ---------------------------------------------------------------------
 Center     Atomic      Atomic             Coordinates (Angstroms)
 Number     Number       Type             X           Y           Z
 ---------------------------------------------------------------------
      1          6           0        2.335481   -1.082048    0.895326
      2          6           0        2.555449   -0.044227   -0.207218
      3          6           0        1.369139    0.099646   -1.157494
      4          7           0        0.128783    0.557144   -0.469725
      5          6           0        0.068473    1.796505    0.039321
      6          7           0        0.014389    2.884096    0.456201
      7         16           0       -1.055229   -0.549040    0.060786
      8          8           0       -0.777967   -1.781380   -0.644202
      9          8           0       -1.203700   -0.471220    1.505488
     10          8           0       -2.380400    0.133048   -0.589551
     11          1           0        1.518099   -0.790149    1.562664
     12          1           0        3.236056   -1.190115    1.507626
     13          1           0        2.090411   -2.063396    0.474212
     14          1           0        2.781842    0.935385    0.232755
     15          1           0        3.423965   -0.317874   -0.820228
     16          1           0        1.567470    0.834282   -1.943021
     17          1           0        1.112821   -0.847968   -1.632666
     18          1           0       -2.923917    0.472971    0.147253
 ---------------------------------------------------------------------

 SCF Done:  E(UB3LYP) =  -890.706127363     A.U. after   29 cycles

 The electronic state is 2-A.
 Alpha  occ. eigenvalues --  -88.99723 -19.06977 -19.03432 -19.03335 -14.28410
 Alpha  occ. eigenvalues --  -14.20280 -10.13239 -10.12468 -10.07749 -10.06038
 Alpha  occ. eigenvalues --   -8.05643  -6.01924  -6.01868  -6.01778  -1.06609
 Alpha  occ. eigenvalues --   -0.94640  -0.93210  -0.88197  -0.78980  -0.69631
 Alpha  occ. eigenvalues --   -0.61497  -0.58865  -0.52421  -0.49386  -0.43173
 Alpha  occ. eigenvalues --   -0.41996  -0.38231  -0.37319  -0.35974  -0.34026
 Alpha  occ. eigenvalues --   -0.31395  -0.30410  -0.28355  -0.27204  -0.26700
 Alpha  occ. eigenvalues --   -0.26196  -0.25798  -0.25117  -0.24299  -0.23355
 Alpha  occ. eigenvalues --   -0.22844  -0.21732  -0.16447   0.04425
 Alpha virt. eigenvalues --    0.06566   0.08420   0.09377   0.10055   0.10276
 Alpha virt. eigenvalues --    0.12152   0.12621   0.13592   0.13921   0.14268
 Alpha virt. eigenvalues --    0.14461   0.16079   0.17044   0.17208   0.17650

  Beta  occ. eigenvalues --  -88.99656 -19.06807 -19.03335 -19.03285 -14.28295
  Beta  occ. eigenvalues --  -14.20202 -10.13210 -10.12443 -10.07722 -10.06013
  Beta  occ. eigenvalues --   -8.05555  -6.01860  -6.01790  -6.01715  -1.06317
  Beta  occ. eigenvalues --   -0.94252  -0.92982  -0.87967  -0.78832  -0.69538
  Beta  occ. eigenvalues --   -0.61341  -0.58608  -0.52296  -0.49180  -0.43070
  Beta  occ. eigenvalues --   -0.41887  -0.38119  -0.37234  -0.35909  -0.33879
  Beta  occ. eigenvalues --   -0.31341  -0.30319  -0.28135  -0.27067  -0.26587
  Beta  occ. eigenvalues --   -0.26054  -0.25712  -0.25064  -0.24137  -0.23262
  Beta  occ. eigenvalues --   -0.22664  -0.21591  -0.16344
  Beta virt. eigenvalues --    0.07141   0.08442   0.08845   0.09885   0.10697
  Beta virt. eigenvalues --    0.11004   0.12419   0.12825   0.13899   0.14183
  Beta virt. eigenvalues --    0.14316   0.14718   0.16261   0.17191   0.17244

 Mulliken charges and spin densities:
               1          2
     1  C    0.461761  -1.016136
     2  C   -0.381234   0.287138
     3  C    0.262425  -0.660411
     4  N   -0.370012   0.203119
     5  C    0.230747  -0.226146
     6  N   -0.234678   0.010987
     7  S    0.864204  -0.443101
     8  O   -0.185633  -0.004350
     9  O   -0.126999  -0.008495
    10  O   -0.083418  -0.110357
    11  H   -0.036194   0.199392
    12  H   -0.155409   0.293949
    13  H    0.054961   0.099675
    14  H    0.126018   0.032550
    15  H   -0.556895   0.712124
    16  H   -0.123556   0.318128
    17  H   -0.197465   0.426981
    18  H   -0.548624   0.884953
 Sum of Mulliken charges =  -1.00000   1.00000

 Dipole moment (field-independent basis, Debye):
    X=              2.1012    Y=             -1.3895    Z=             -0.5354  Tot=              2.5753
 Quadrupole moment (field-independent basis, Debye-Ang):
   XX=           -115.4042   YY=           -103.7318   ZZ=            -89.8769
   XY=              6.6580   XZ=              3.9807   YZ=             -4.5709

 Summary of Natural Population Analysis:

                                       Natural Population
                Natural  -----------------------------------------------
    Atom  No    Charge         Core      Valence    Rydberg      Total
 -----------------------------------------------------------------------
      C    1   -0.29275      0.99966     2.28779    0.00529     3.29275
      C    2   -0.19909      0.99964     2.19161    0.00784     3.19909
      C    3   -0.07873      0.99959     2.06735    0.01179     3.07873
      N    4   -0.36862      0.99962     2.85319    0.01581     3.86862
      C    5    0.22850      0.99960     1.75439    0.01751     2.77150
      N    6   -0.18586      0.99979     2.67729    0.00879     3.68586
      S    7    1.21328      4.99935     1.68125    0.10612     6.78672
      O    8   -0.43707      0.99989     3.43136    0.00582     4.43707
      O    9   -0.44311      0.99990     3.43766    0.00555     4.44311
      O   10   -0.42275      0.99991     3.41684    0.00600     4.42275
      H   11    0.10389      0.00000     0.39467    0.00144     0.39611
      H   12    0.09936      0.00000     0.39968    0.00096     0.40064
      H   13    0.10130      0.00000     0.39742    0.00127     0.39870
      H   14    0.09895      0.00000     0.39987    0.00118     0.40105
      H   15    0.10257      0.00000     0.39503    0.00240     0.39743
      H   16    0.10207      0.00000     0.39675    0.00118     0.39793
      H   17    0.11586      0.00000     0.38240    0.00174     0.38414
      H   18    0.26218      0.00000     0.19463    0.04319     0.23782
 =======================================================================
   * Total *    0.00000     13.99694    28.75918    0.24389    43.00000

 Normal termination of Gaussian 16 at Tue Dec  8 12:32:30 2020.
