 Gaussian 16, Revision A.03,

 -----------------------------------------------------------
 # opt freq B3LYP/6-31G(d) empiricaldispersion=gd3bj scf=xqc
 -----------------------------------------------------------

 -------------------------------
 CID_106207826_JID_9420_neutraal
 -------------------------------
 Symbolic Z-matrix:
 Charge =  0 Multiplicity = 1

 SCF Done:  E(RB3LYP) =  -855.838735889     A.U. after   14 cycles
 SCF Done:  E(RB3LYP) =  -855.853771972     A.U. after   13 cycles
 SCF Done:  E(RB3LYP) =  -855.853247734     A.U. after   14 cycles
 SCF Done:  E(RB3LYP) =  -855.857297833     A.U. after   12 cycles
 SCF Done:  E(RB3LYP) =  -855.859523508     A.U. after   13 cycles
 SCF Done:  E(RB3LYP) =  -855.860218228     A.U. after   11 cycles
 SCF Done:  E(RB3LYP) =  -855.860673596     A.U. after   11 cycles
 SCF Done:  E(RB3LYP) =  -855.860839834     A.U. after   11 cycles
 SCF Done:  E(RB3LYP) =  -855.860966933     A.U. after   11 cycles
 SCF Done:  E(RB3LYP) =  -855.861045231     A.U. after   11 cycles
 SCF Done:  E(RB3LYP) =  -855.861278486     A.U. after   10 cycles
 SCF Done:  E(RB3LYP) =  -855.861278856     A.U. after    9 cycles
 SCF Done:  E(RB3LYP) =  -855.861278939     A.U. after    7 cycles
 SCF Done:  E(RB3LYP) =  -855.861278964     A.U. after    7 cycles
 SCF Done:  E(RB3LYP) =  -855.861278964     A.U. after    6 cycles
 Optimization completed.
    -- Stationary point found.
 Normal termination of Gaussian 16 at Sat Dec 12 10:21:35 2020.

 --------------------------------------------------------------------
 #N Geom=AllCheck Guess=TCheck SCRF=Check GenChk RB3LYP/6-31G(d) Freq
 --------------------------------------------------------------------

 Structure from the checkpoint file:  "JID_9420.chk"
 -------------------------------
 CID_106207826_JID_9420_neutraal
 -------------------------------
 Charge =  0 Multiplicity = 1

 SCF Done:  E(RB3LYP) =  -855.861278964     A.U. after    1 cycles

  Exact polarizability: 208.669 -14.085 188.185  21.445   0.949 115.303
 Approx polarizability: 293.447 -18.141 293.167  52.081  -1.249 179.449

                      1                      2                      3
                      A                      A                      A
 Frequencies --     23.8072                39.8212                53.3037
 Red. masses --      4.3290                 3.8733                 3.7064
 Frc consts  --      0.0014                 0.0036                 0.0062
 IR Inten    --      0.0136                 0.1060                 1.3944

                      4                      5                      6
                      A                      A                      A
 Frequencies --     71.5000                86.8549               102.4590
 Red. masses --      3.4468                 3.4649                 2.6904
 Frc consts  --      0.0104                 0.0154                 0.0166
 IR Inten    --      0.0756                 1.4219                 0.1515

                      7                      8                      9
                      A                      A                      A
 Frequencies --    122.6681               135.2470               162.4276
 Red. masses --      4.2772                 4.2898                 2.6443
 Frc consts  --      0.0379                 0.0462                 0.0411
 IR Inten    --      0.1536                 1.5362                 0.4954

                     10                     11                     12
                      A                      A                      A
 Frequencies --    194.8921               201.8213               229.8242
 Red. masses --      2.5970                 2.8398                 3.6159
 Frc consts  --      0.0581                 0.0681                 0.1125
 IR Inten    --      0.5657                 0.5499                 3.1895

                     13                     14                     15
                      A                      A                      A
 Frequencies --    239.1579               277.7212               311.8476
 Red. masses --      4.8095                 1.3900                 2.6759
 Frc consts  --      0.1621                 0.0632                 0.1533
 IR Inten    --      1.3039                 0.0684                 4.1068

                     16                     17                     18
                      A                      A                      A
 Frequencies --    326.4687               351.8704               396.3760
 Red. masses --      5.9350                 3.1781                 3.1945
 Frc consts  --      0.3727                 0.2318                 0.2957
 IR Inten    --      2.6331                 0.4156                 2.0125

                     19                     20                     21
                      A                      A                      A
 Frequencies --    416.3061               464.7551               472.8001
 Red. masses --      1.9289                 2.4290                 3.2784
 Frc consts  --      0.1970                 0.3091                 0.4318
 IR Inten    --      1.7545                26.0935                 2.9158

                     22                     23                     24
                      A                      A                      A
 Frequencies --    475.9653               511.6938               558.4323
 Red. masses --      1.6292                 2.9723                 4.7645
 Frc consts  --      0.2175                 0.4585                 0.8754
 IR Inten    --     60.3088                21.0421                21.3592

                     25                     26                     27
                      A                      A                      A
 Frequencies --    576.1186               617.9976               657.1715
 Red. masses --      1.9156                 2.0444                 2.6635
 Frc consts  --      0.3746                 0.4600                 0.6777
 IR Inten    --     63.1165                 3.2692                39.9948

                     28                     29                     30
                      A                      A                      A
 Frequencies --    663.8802               684.9736               739.0202
 Red. masses --      3.4932                 5.9960                 3.6195
 Frc consts  --      0.9071                 1.6575                 1.1647
 IR Inten    --     10.2336                25.5292                14.9098

                     31                     32                     33
                      A                      A                      A
 Frequencies --    739.8851               759.4802               797.3154
 Red. masses --      8.8541                 1.6615                 3.0719
 Frc consts  --      2.8558                 0.5646                 1.1506
 IR Inten    --      5.5624                 1.5175                17.1448

                     34                     35                     36
                      A                      A                      A
 Frequencies --    797.6032               801.7010               834.0238
 Red. masses --      1.4944                 1.9342                 2.9649
 Frc consts  --      0.5601                 0.7324                 1.2151
 IR Inten    --     16.5340                 1.1833                19.3405

                     37                     38                     39
                      A                      A                      A
 Frequencies --    860.8450               871.2055               898.8856
 Red. masses --      2.0417                 1.3628                 2.1173
 Frc consts  --      0.8914                 0.6094                 1.0080
 IR Inten    --      2.5128                 9.2404                 2.2292

                     40                     41                     42
                      A                      A                      A
 Frequencies --    920.6879               934.0000               941.1438
 Red. masses --      2.2381                 1.8584                 2.2182
 Frc consts  --      1.1178                 0.9552                 1.1576
 IR Inten    --      4.3964                 0.8526                 2.1306

                     43                     44                     45
                      A                      A                      A
 Frequencies --    952.3384               955.8577               990.7211
 Red. masses --      2.3614                 3.4677                 1.7595
 Frc consts  --      1.2618                 1.8667                 1.0175
 IR Inten    --      2.5379                83.2641                21.9110

                     46                     47                     48
                      A                      A                      A
 Frequencies --    996.7441              1023.1347              1039.2915
 Red. masses --      1.7966                 3.6173                 2.9211
 Frc consts  --      1.0516                 2.2310                 1.8590
 IR Inten    --      1.1964                 5.8078                31.4748

                     49                     50                     51
                      A                      A                      A
 Frequencies --   1077.9961              1095.8398              1121.2699
 Red. masses --      4.2410                 2.2287                 2.3620
 Frc consts  --      2.9037                 1.5768                 1.7496
 IR Inten    --      5.7519                16.6077                 1.7648

                     52                     53                     54
                      A                      A                      A
 Frequencies --   1136.1845              1148.2972              1161.8232
 Red. masses --      2.0681                 1.9203                 2.0819
 Frc consts  --      1.5730                 1.4919                 1.6557
 IR Inten    --      2.9980                36.7548                 4.2110

                     55                     56                     57
                      A                      A                      A
 Frequencies --   1176.9248              1208.3254              1215.4740
 Red. masses --      3.1978                 2.0618                 1.8077
 Frc consts  --      2.6098                 1.7737                 1.5735
 IR Inten    --     47.9758                77.6456                50.1126

                     58                     59                     60
                      A                      A                      A
 Frequencies --   1236.1821              1243.1199              1267.8988
 Red. masses --      1.3995                 1.5976                 1.3538
 Frc consts  --      1.2600                 1.4546                 1.2823
 IR Inten    --      0.2242                19.1950                 0.3318

                     61                     62                     63
                      A                      A                      A
 Frequencies --   1271.8432              1282.1879              1288.3164
 Red. masses --      1.2015                 1.3123                 1.4065
 Frc consts  --      1.1451                 1.2711                 1.3754
 IR Inten    --      0.3435                 0.4004                 0.9990

                     64                     65                     66
                      A                      A                      A
 Frequencies --   1312.6084              1317.0495              1326.2711
 Red. masses --      1.4919                 1.9101                 1.3836
 Frc consts  --      1.5145                 1.9522                 1.4339
 IR Inten    --      1.0196                 6.0283                10.5847

                     67                     68                     69
                      A                      A                      A
 Frequencies --   1331.2447              1351.9239              1372.9748
 Red. masses --      2.0724                 1.8881                 1.3586
 Frc consts  --      2.1640                 2.0332                 1.5090
 IR Inten    --     35.9727                78.2252                24.7435

                     70                     71                     72
                      A                      A                      A
 Frequencies --   1386.6204              1396.5889              1409.2736
 Red. masses --      2.4084                 1.6334                 1.7178
 Frc consts  --      2.7284                 1.8771                 2.0101
 IR Inten    --    124.6277                87.8379                43.7635

                     73                     74                     75
                      A                      A                      A
 Frequencies --   1428.1195              1431.3232              1436.1777
 Red. masses --      1.6197                 2.0905                 1.4803
 Frc consts  --      1.9463                 2.5233                 1.7989
 IR Inten    --      1.3787                34.0191                 4.5538

                     76                     77                     78
                      A                      A                      A
 Frequencies --   1480.8511              1494.4617              1501.4558
 Red. masses --      2.0951                 1.7405                 1.1638
 Frc consts  --      2.7069                 2.2903                 1.5458
 IR Inten    --     19.3725                78.8985                 9.9290

                     79                     80                     81
                      A                      A                      A
 Frequencies --   1505.7003              1509.4406              1516.2206
 Red. masses --      1.2634                 1.1567                 1.1340
 Frc consts  --      1.6876                 1.5528                 1.5360
 IR Inten    --     35.5931                27.8014                18.8490

                     82                     83                     84
                      A                      A                      A
 Frequencies --   1519.7832              1521.8744              1530.0337
 Red. masses --      2.1999                 1.0813                 1.0925
 Frc consts  --      2.9938                 1.4755                 1.5068
 IR Inten    --     64.7950                 7.1628                 0.2786

                     85                     86                     87
                      A                      A                      A
 Frequencies --   1538.3606              1544.4198              1594.4025
 Red. masses --      1.6067                 1.1337                 4.4644
 Frc consts  --      2.2403                 1.5933                 6.6867
 IR Inten    --     78.8394                 1.6064               400.0922

                     88                     89                     90
                      A                      A                      A
 Frequencies --   1640.4468              1676.6602              3029.2064
 Red. masses --      4.4891                 8.9814                 1.0629
 Frc consts  --      7.1176                14.8760                 5.7462
 IR Inten    --    445.0575               511.2107                20.4359

                     91                     92                     93
                      A                      A                      A
 Frequencies --   3050.1436              3055.2879              3057.6623
 Red. masses --      1.0357                 1.0631                 1.0705
 Frc consts  --      5.6769                 5.8470                 5.8967
 IR Inten    --     21.0305                40.6259                11.3699

                     94                     95                     96
                      A                      A                      A
 Frequencies --   3067.2383              3070.1104              3071.3013
 Red. masses --      1.0882                 1.0605                 1.0697
 Frc consts  --      6.0319                 5.8894                 5.9452
 IR Inten    --     19.0640                45.8066                45.7034

                     97                     98                     99
                      A                      A                      A
 Frequencies --   3079.8486              3089.1298              3109.0444
 Red. masses --      1.0862                 1.0658                 1.1049
 Frc consts  --      6.0702                 5.9925                 6.2923
 IR Inten    --     18.5267                64.6914                21.4767

                    100                    101                    102
                      A                      A                      A
 Frequencies --   3113.0497              3123.5518              3131.2920
 Red. masses --      1.1018                 1.1066                 1.0994
 Frc consts  --      6.2910                 6.3610                 6.3513
 IR Inten    --     29.5517                55.6747                37.9322

                    103                    104                    105
                      A                      A                      A
 Frequencies --   3146.8202              3149.7384              3150.9456
 Red. masses --      1.0981                 1.1036                 1.1000
 Frc consts  --      6.4064                 6.4507                 6.4347
 IR Inten    --     61.2155                18.5846                 1.4891

                    106                    107                    108
                      A                      A                      A
 Frequencies --   3269.4982              3607.9659              3676.9692
 Red. masses --      1.0962                 1.0756                 1.0811
 Frc consts  --      6.9042                 8.2498                 8.6117
 IR Inten    --      6.7595                32.9307                87.1094

 - Thermochemistry -
 -------------------
 Temperature   298.150 Kelvin.  Pressure   1.00000 Atm.
 Atom     1 has atomic number  6 and mass  12.00000

 Molecular mass:   261.15896 amu.
 Principal axes and moments of inertia in atomic units:
                           1         2         3
     Eigenvalues --  3322.662416857.447959014.97975
           X            0.99999   0.00144  -0.00516
           Y           -0.00140   0.99997   0.00721
           Z            0.00517  -0.00720   0.99996
 This molecule is an asymmetric top.
 Rotational symmetry number  1.
 Warning -- assumption of classical behavior for rotation
           may cause significant error
 Rotational temperatures (Kelvin)      0.02607     0.01263     0.00961
 Rotational constants (GHZ):           0.54316     0.26318     0.20019
 Zero-point vibrational energy     851363.3 (Joules/Mol)
                                  203.48070 (Kcal/Mol)
 Warning -- explicit consideration of  26 degrees of freedom as
           vibrations may cause significant error
 Vibrational temperatures:     34.25    57.29    76.69   102.87   124.96
          (Kelvin)            147.42   176.49   194.59   233.70   280.41
                              290.38   330.67   344.09   399.58   448.68
                              469.72   506.26   570.30   598.97   668.68
                              680.25   684.81   736.21   803.46   828.91
                              889.16   945.52   955.18   985.52  1063.29
                             1064.53  1092.72  1147.16  1147.57  1153.47
                             1199.97  1238.56  1253.47  1293.30  1324.66
                             1343.82  1354.10  1370.20  1375.27  1425.43
                             1434.09  1472.06  1495.31  1551.00  1576.67
                             1613.26  1634.72  1652.14  1671.60  1693.33
                             1738.51  1748.80  1778.59  1788.57  1824.22
                             1829.90  1844.78  1853.60  1888.55  1894.94
                             1908.21  1915.36  1945.12  1975.40  1995.04
                             2009.38  2027.63  2054.75  2059.35  2066.34
                             2130.61  2150.20  2160.26  2166.37  2171.75
                             2181.50  2186.63  2189.64  2201.38  2213.36
                             2222.08  2293.99  2360.24  2412.34  4358.35
                             4388.48  4395.88  4399.29  4413.07  4417.20
                             4418.92  4431.22  4444.57  4473.22  4478.98
                             4494.09  4505.23  4527.57  4531.77  4533.51
                             4704.08  5191.06  5290.34

 Zero-point correction=                           0.324267 (Hartree/Particle)
 Thermal correction to Energy=                    0.341698
 Thermal correction to Enthalpy=                  0.342643
 Thermal correction to Gibbs Free Energy=         0.277669
 Sum of electronic and zero-point Energies=           -855.537012
 Sum of electronic and thermal Energies=              -855.519580
 Sum of electronic and thermal Enthalpies=            -855.518636
 Sum of electronic and thermal Free Energies=         -855.583610

                     E (Thermal)             CV                S
                      KCal/Mol        Cal/Mol-Kelvin    Cal/Mol-Kelvin
 Total                  214.419             66.860            136.748
 Electronic               0.000              0.000              0.000
 Translational            0.889              2.981             42.579
 Rotational               0.889              2.981             33.684
 Vibrational            212.642             60.898             60.484
 Vibration     1          0.593              1.985              6.288
 Vibration     2          0.594              1.981              5.268
 Vibration     3          0.596              1.976              4.691
 Vibration     4          0.598              1.968              4.112
 Vibration     5          0.601              1.958              3.730
 Vibration     6          0.605              1.947              3.407
 Vibration     7          0.610              1.930              3.058
 Vibration     8          0.613              1.918              2.870
 Vibration     9          0.623              1.889              2.521
 Vibration    10          0.636              1.847              2.181
 Vibration    11          0.639              1.837              2.116
 Vibration    12          0.652              1.795              1.880
 Vibration    13          0.657              1.781              1.809
 Vibration    14          0.679              1.715              1.548
 Vibration    15          0.700              1.651              1.353
 Vibration    16          0.710              1.623              1.278
 Vibration    17          0.728              1.571              1.158
 Vibration    18          0.763              1.478              0.976
 Vibration    19          0.780              1.435              0.905
 Vibration    20          0.822              1.328              0.752
 Vibration    21          0.830              1.310              0.730
 Vibration    22          0.833              1.303              0.721
 Vibration    23          0.867              1.224              0.630
 Vibration    24          0.914              1.121              0.527
 Vibration    25          0.933              1.083              0.493
 Vibration    26          0.978              0.994              0.420

 Optimization completed.
    -- Stationary point found.
 Normal termination of Gaussian 16 at Sat Dec 12 10:41:01 2020.

 ----------------------------------------------------------------------
 # B3LYP/6-311++G(d,p) empiricaldispersion=gd3bj scf=xqc pop=npa geom=c
 heck
 ----------------------------------------------------------------------

 ---------------------------------------
 CID_106207826_JID_9420_Energie_neutraal
 ---------------------------------------
 Structure from the checkpoint file:  "JID_9420.chk"
 Charge =  0 Multiplicity = 1

 SCF Done:  E(RB3LYP) =  -856.092446685     A.U. after   14 cycles
 Normal termination of Gaussian 16 at Sat Dec 12 10:49:23 2020.

 ----------------------------------------------------------------------
 # B3LYP/6-311++G(d,p) empiricaldispersion=gd3bj scf=xqc pop=npa geom=c
 heck
 ----------------------------------------------------------------------

 -------------------------------------
 CID_106207826_JID_9420_Energie_kation
 -------------------------------------
 Structure from the checkpoint file:  "JID_9420.chk"
 Charge =  1 Multiplicity = 2

 SCF Done:  E(UB3LYP) =  -855.813383706     A.U. after   21 cycles
 Normal termination of Gaussian 16 at Sat Dec 12 11:07:03 2020.
 Gaussian 16:  ES64L-G16RevA.03 25-Dec-2016

 ----------------------------------------------------------------------
 # B3LYP/6-311++G(d,p) empiricaldispersion=gd3bj scf=xqc pop=npa geom=c
 heck
 ----------------------------------------------------------------------

 ------------------------------------
 CID_106207826_JID_9420_Energie_anion
 ------------------------------------
 Structure from the checkpoint file:  "JID_9420.chk"
 Charge = -1 Multiplicity = 2

                         Standard orientation:
 ---------------------------------------------------------------------
 Center     Atomic      Atomic             Coordinates (Angstroms)
 Number     Number       Type             X           Y           Z
 ---------------------------------------------------------------------
      1          6           0       -1.644344    2.982599    0.577728
      2          6           0       -0.883198    2.954757   -0.751292
      3          7           0        0.548148    2.759176   -0.585511
      4          6           0        1.128345    1.543855   -0.352314
      5          7           0        2.367340    1.578735    0.162756
      6          6           0        2.887712    0.356994    0.325223
      7          6           0        2.260617   -0.870442    0.018748
      8          6           0        3.211772   -1.870852    0.369030
      9          7           0        4.319505   -1.332020    0.846739
     10          7           0        4.110028    0.026196    0.814565
     11          6           0        0.962504   -0.747629   -0.514609
     12          7           0        0.402622    0.438848   -0.690130
     13          8           0        0.326252   -1.880323   -0.836236
     14          6           0       -0.957183   -1.850508   -1.501778
     15          6           0       -2.067191   -2.242648   -0.531127
     16          6           0       -2.534789   -1.102534    0.361586
     17          6           0       -3.456089   -0.015810   -0.258450
     18          6           0       -4.245187    0.016232    1.075398
     19          6           0       -3.646457   -1.375131    1.410912
     20          1           0       -1.516976    2.033486    1.107947
     21          1           0       -2.715826    3.143023    0.412688
     22          1           0       -1.275547    3.787930    1.223525
     23          1           0       -1.250852    2.146733   -1.386117
     24          1           0       -1.028443    3.894566   -1.295508
     25          1           0        1.079264    3.524246   -0.190269
     26          1           0        3.123681   -2.945600    0.290026
     27          1           0        4.834987    0.649846    1.133552
     28          1           0       -1.120147   -0.860604   -1.932366
     29          1           0       -0.862652   -2.586831   -2.304746
     30          1           0       -2.921532   -2.612155   -1.116173
     31          1           0       -1.711146   -3.088000    0.072339
     32          1           0       -1.674303   -0.626006    0.844638
     33          1           0       -2.995661    0.909312   -0.610568
     34          1           0       -4.062541   -0.436264   -1.070208
     35          1           0       -5.334531    0.104752    1.022605
     36          1           0       -3.863815    0.791424    1.748461
     37          1           0       -4.308712   -2.185917    1.084149
     38          1           0       -3.337830   -1.571192    2.442646
 ---------------------------------------------------------------------

 SCF Done:  E(UB3LYP) =  -856.080820746     A.U. after   33 cycles
 SCF Done:  E(UB3LYP) =  -856.080820746     a.u. after    1 cycles

 The electronic state is 2-A.
 Alpha  occ. eigenvalues --  -19.06011 -14.28058 -14.23204 -14.22680 -14.19755
 Alpha  occ. eigenvalues --  -14.19578 -10.17046 -10.16648 -10.14238 -10.12651
 Alpha  occ. eigenvalues --  -10.10512 -10.09662 -10.07520 -10.07248 -10.07229
 Alpha  occ. eigenvalues --  -10.07144 -10.06972 -10.06679 -10.06621  -0.98385
 Alpha  occ. eigenvalues --   -0.94656  -0.89229  -0.81430  -0.78560  -0.75442
 Alpha  occ. eigenvalues --   -0.72122  -0.69597  -0.67141  -0.64813  -0.59617
 Alpha  occ. eigenvalues --   -0.56338  -0.55788  -0.54780  -0.52082  -0.51321
 Alpha  occ. eigenvalues --   -0.50590  -0.46082  -0.45651  -0.44853  -0.40556
 Alpha  occ. eigenvalues --   -0.40174  -0.39044  -0.37982  -0.37518  -0.36138
 Alpha  occ. eigenvalues --   -0.35954  -0.35089  -0.33686  -0.33610  -0.32484
 Alpha  occ. eigenvalues --   -0.31654  -0.31388  -0.29962  -0.28943  -0.28224
 Alpha  occ. eigenvalues --   -0.27097  -0.26194  -0.25874  -0.24904  -0.24250
 Alpha  occ. eigenvalues --   -0.22498  -0.21867  -0.21168  -0.20654  -0.19817
 Alpha  occ. eigenvalues --   -0.19334  -0.17597  -0.16308  -0.15705  -0.11296
 Alpha  occ. eigenvalues --    0.04362
 Alpha virt. eigenvalues --    0.05954   0.06232   0.07181   0.07593   0.08140
 Alpha virt. eigenvalues --    0.08563   0.08904   0.09640   0.09853   0.10208
 Alpha virt. eigenvalues --    0.10935   0.11144   0.11685   0.12088   0.12441

  Beta  occ. eigenvalues --  -19.05974 -14.28065 -14.23062 -14.22654 -14.19752
  Beta  occ. eigenvalues --  -14.19515 -10.16993 -10.16397 -10.14236 -10.12644
  Beta  occ. eigenvalues --  -10.10490 -10.09598 -10.07519 -10.07227 -10.07218
  Beta  occ. eigenvalues --  -10.07132 -10.07011 -10.06659 -10.06604  -0.98240
  Beta  occ. eigenvalues --   -0.94557  -0.89118  -0.81347  -0.78424  -0.75427
  Beta  occ. eigenvalues --   -0.72029  -0.69483  -0.67101  -0.64752  -0.59499
  Beta  occ. eigenvalues --   -0.56300  -0.55688  -0.54681  -0.52003  -0.51233
  Beta  occ. eigenvalues --   -0.50528  -0.46015  -0.45586  -0.44786  -0.40486
  Beta  occ. eigenvalues --   -0.40077  -0.38996  -0.37932  -0.37261  -0.36040
  Beta  occ. eigenvalues --   -0.35895  -0.34948  -0.33608  -0.33562  -0.32369
  Beta  occ. eigenvalues --   -0.31619  -0.31297  -0.29718  -0.28904  -0.28140
  Beta  occ. eigenvalues --   -0.26899  -0.26108  -0.25796  -0.24863  -0.24182
  Beta  occ. eigenvalues --   -0.22418  -0.21803  -0.21078  -0.20611  -0.19502
  Beta  occ. eigenvalues --   -0.19171  -0.17421  -0.16262  -0.15470  -0.10892
  Beta virt. eigenvalues --    0.06558   0.07081   0.07459   0.07732   0.07882
  Beta virt. eigenvalues --    0.08296   0.08865   0.09258   0.09668   0.10082
  Beta virt. eigenvalues --    0.10511   0.11174   0.11256   0.11985   0.12181

 Mulliken charges and spin densities:
               1          2
     1  C    0.287712  -0.708671
     2  C    0.046569  -0.303962
     3  N   -0.074425   0.047985
     4  C   -0.157534  -0.065260
     5  N   -0.235075   0.053068
     6  C    0.416882  -0.199639
     7  C   -0.029338  -0.015378
     8  C   -0.319661   0.009329
     9  N   -0.165011   0.053096
    10  N   -0.210773  -0.000561
    11  C   -0.413127   0.151786
    12  N   -0.041584  -0.034597
    13  O   -0.011026   0.012730
    14  C    0.088494  -0.322570
    15  C    0.770449  -1.304533
    16  C   -1.459039   2.231001
    17  C    0.891405  -1.374028
    18  C   -0.791966   0.602467
    19  C    0.731644  -1.317982
    20  H    0.137040   0.036882
    21  H   -0.170830   0.310907
    22  H    0.004146   0.137961
    23  H    0.095168   0.091711
    24  H   -0.804983   0.980850
    25  H    0.132578   0.145002
    26  H    0.146971   0.016469
    27  H    0.294957   0.005428
    28  H    0.282771  -0.113896
    29  H   -0.269475   0.459545
    30  H   -0.215489   0.345859
    31  H    0.083133   0.100507
    32  H   -0.065310   0.212427
    33  H    0.551133  -0.479815
    34  H   -0.387476   0.562218
    35  H   -0.213695   0.369438
    36  H    0.104648   0.005801
    37  H   -0.086611   0.213213
    38  H    0.056730   0.085213
 Sum of Mulliken charges =  -1.00000   1.00000

 Dipole moment (field-independent basis, Debye):
    X=              3.6819    Y=             -0.7719    Z=              2.1132  Tot=              4.3149
 Quadrupole moment (field-independent basis, Debye-Ang):
   XX=           -192.5814   YY=           -173.8732   ZZ=           -141.1113
   XY=              4.8154   XZ=             -6.2349   YZ=              3.9187

 Summary of Natural Population Analysis:

                                       Natural Population
                Natural  -----------------------------------------------
    Atom  No    Charge         Core      Valence    Rydberg      Total
 -----------------------------------------------------------------------
      C    1   -0.29301      0.99966     2.28804    0.00531     3.29301
      C    2   -0.09044      0.99963     2.08003    0.01078     3.09044
      N    3   -0.30304      0.99966     2.79223    0.01115     3.80304
      C    4    0.31784      0.99962     1.66412    0.01842     2.68216
      N    5   -0.29551      0.99964     2.78581    0.01006     3.79551
      C    6    0.20093      0.99950     1.78560    0.01397     2.79907
      C    7   -0.14122      0.99943     2.13426    0.00753     3.14122
      C    8    0.01455      0.99963     1.97016    0.01566     2.98545
      N    9   -0.13737      0.99974     2.62528    0.01235     3.63737
      N   10   -0.19247      0.99965     2.68060    0.01222     3.69247
      C   11    0.34700      0.99944     1.63870    0.01486     2.65300
      N   12   -0.31444      0.99962     2.80752    0.00730     3.81444
      O   13   -0.26738      0.99985     3.25910    0.00843     4.26738
      C   14   -0.01339      0.99955     2.00206    0.01178     3.01339
      C   15   -0.20073      0.99959     2.19186    0.00928     3.20073
      C   16   -0.11180      0.99960     2.10220    0.01001     3.11180
      C   17   -0.18761      0.99962     2.17934    0.00865     3.18761
      C   18   -0.18994      0.99965     2.18240    0.00789     3.18994
      C   19   -0.18510      0.99963     2.17763    0.00784     3.18510
      H   20    0.10066      0.00000     0.39808    0.00127     0.39934
      H   21    0.10032      0.00000     0.39864    0.00103     0.39968
      H   22    0.09556      0.00000     0.40331    0.00113     0.40444
      H   23    0.10447      0.00000     0.39367    0.00186     0.39553
      H   24    0.09417      0.00000     0.40411    0.00172     0.40583
      H   25    0.19053      0.00000     0.30654    0.00293     0.30947
      H   26    0.09803      0.00000     0.40051    0.00146     0.40197
      H   27    0.19491      0.00000     0.30228    0.00282     0.30509
      H   28    0.09987      0.00000     0.39837    0.00176     0.40013
      H   29    0.08995      0.00000     0.40886    0.00119     0.41005
      H   30    0.10041      0.00000     0.39768    0.00191     0.39959
      H   31    0.10145      0.00000     0.39738    0.00117     0.39855
      H   32    0.10122      0.00000     0.39643    0.00235     0.39878
      H   33    0.09886      0.00000     0.39966    0.00148     0.40114
      H   34    0.09462      0.00000     0.40372    0.00166     0.40538
      H   35    0.09488      0.00000     0.40405    0.00108     0.40512
      H   36    0.09424      0.00000     0.40450    0.00126     0.40576
      H   37    0.09510      0.00000     0.40363    0.00128     0.40490
      H   38    0.09387      0.00000     0.40539    0.00074     0.40613
 =======================================================================
   * Total *   -0.00000     18.99271    50.77374    0.23355    70.00000

 Normal termination of Gaussian 16 at Sat Dec 12 11:33:34 2020.
