 Gaussian 16, Revision A.03,

 -----------------------------------------------------------
 # opt freq B3LYP/6-31G(d) empiricaldispersion=gd3bj scf=xqc
 -----------------------------------------------------------

 -------------------------------
 CID_81337069_JID_10360_neutraal
 -------------------------------
 Symbolic Z-matrix:
 Charge =  0 Multiplicity = 1

 SCF Done:  E(RB3LYP) =  -1296.25105043     A.U. after   15 cycles
 SCF Done:  E(RB3LYP) =  -1296.25469702     A.U. after   13 cycles
 SCF Done:  E(RB3LYP) =  -1296.25057582     A.U. after   14 cycles
 SCF Done:  E(RB3LYP) =  -1296.25490989     A.U. after   12 cycles
 SCF Done:  E(RB3LYP) =  -1296.25769090     A.U. after   10 cycles
 SCF Done:  E(RB3LYP) =  -1296.25836572     A.U. after   13 cycles
 SCF Done:  E(RB3LYP) =  -1296.25848304     A.U. after   13 cycles
 SCF Done:  E(RB3LYP) =  -1296.25820581     A.U. after   12 cycles
 SCF Done:  E(RB3LYP) =  -1296.25891843     A.U. after   12 cycles
 SCF Done:  E(RB3LYP) =  -1296.25862649     A.U. after   13 cycles
 SCF Done:  E(RB3LYP) =  -1296.25935748     A.U. after    8 cycles
 SCF Done:  E(RB3LYP) =  -1296.25935798     A.U. after    8 cycles
 SCF Done:  E(RB3LYP) =  -1296.25935823     A.U. after    8 cycles
 SCF Done:  E(RB3LYP) =  -1296.25935829     A.U. after    7 cycles
 SCF Done:  E(RB3LYP) =  -1296.25935833     A.U. after    6 cycles
 Optimization completed.
    -- Stationary point found.
 Normal termination of Gaussian 16 at Mon Dec 14 17:59:32 2020.

 --------------------------------------------------------------------
 #N Geom=AllCheck Guess=TCheck SCRF=Check GenChk RB3LYP/6-31G(d) Freq
 --------------------------------------------------------------------

 Structure from the checkpoint file:  "JID_10360.chk"
 -------------------------------
 CID_81337069_JID_10360_neutraal
 -------------------------------
 Charge =  0 Multiplicity = 1

 SCF Done:  E(RB3LYP) =  -1296.25935833     A.U. after    1 cycles

  Exact polarizability: 214.882   8.255 161.640  -4.573  -5.368 150.507
 Approx polarizability: 297.189  14.980 233.021  -7.171 -15.928 266.096

                      1                      2                      3
                      A                      A                      A
 Frequencies --     32.0500                38.1807                47.3903
 Red. masses --      6.1009                 3.9421                 8.6340
 Frc consts  --      0.0037                 0.0034                 0.0114
 IR Inten    --      0.5976                 0.6942                 0.0912

                      4                      5                      6
                      A                      A                      A
 Frequencies --     56.0210                67.2338                74.1500
 Red. masses --      5.6476                 4.1437                 4.4114
 Frc consts  --      0.0104                 0.0110                 0.0143
 IR Inten    --      3.6189                12.7058                 1.2687

                      7                      8                      9
                      A                      A                      A
 Frequencies --     87.2198                99.2043               125.9250
 Red. masses --      5.3550                 4.7290                 6.5544
 Frc consts  --      0.0240                 0.0274                 0.0612
 IR Inten    --      1.3632                 7.5107                 1.1418

                     10                     11                     12
                      A                      A                      A
 Frequencies --    138.7593               151.1079               173.8181
 Red. masses --      4.1287                 4.1343                 3.0583
 Frc consts  --      0.0468                 0.0556                 0.0544
 IR Inten    --      0.9426                 2.0863                 0.9461

                     13                     14                     15
                      A                      A                      A
 Frequencies --    195.0037               209.6652               230.0434
 Red. masses --      3.3709                 1.5091                 2.7437
 Frc consts  --      0.0755                 0.0391                 0.0855
 IR Inten    --      0.6680                 0.1369                 1.8511

                     16                     17                     18
                      A                      A                      A
 Frequencies --    268.0891               272.6919               281.6068
 Red. masses --      1.3118                 2.9158                 2.4273
 Frc consts  --      0.0555                 0.1277                 0.1134
 IR Inten    --      3.2378                 7.8826                 1.3783

                     19                     20                     21
                      A                      A                      A
 Frequencies --    295.0413               309.6303               347.9355
 Red. masses --      2.2418                 1.5604                 2.1262
 Frc consts  --      0.1150                 0.0881                 0.1517
 IR Inten    --      1.2394                 0.9749                 0.1120

                     22                     23                     24
                      A                      A                      A
 Frequencies --    350.9854               373.6087               389.3960
 Red. masses --      2.2545                 2.9398                 2.4362
 Frc consts  --      0.1636                 0.2418                 0.2176
 IR Inten    --      3.4150                 2.0502                 2.8075

                     25                     26                     27
                      A                      A                      A
 Frequencies --    408.1230               430.4481               434.2425
 Red. masses --      1.4625                 2.5451                 2.2534
 Frc consts  --      0.1435                 0.2778                 0.2503
 IR Inten    --    237.8209                13.9374                37.6237

                     28                     29                     30
                      A                      A                      A
 Frequencies --    462.9230               476.3881               484.1577
 Red. masses --      2.7011                 2.8704                 4.0079
 Frc consts  --      0.3410                 0.3838                 0.5535
 IR Inten    --      8.1261                 2.5259                 6.2750

                     31                     32                     33
                      A                      A                      A
 Frequencies --    492.7860               534.8893               541.5795
 Red. masses --      1.6022                 2.8862                 3.5395
 Frc consts  --      0.2292                 0.4865                 0.6117
 IR Inten    --     39.9009                 6.5090                35.6853

                     34                     35                     36
                      A                      A                      A
 Frequencies --    611.1357               612.8697               619.6458
 Red. masses --      2.8245                 2.2123                 2.6029
 Frc consts  --      0.6215                 0.4896                 0.5888
 IR Inten    --     37.7227                36.1768                16.0016

                     37                     38                     39
                      A                      A                      A
 Frequencies --    630.1778               675.6924               688.6086
 Red. masses --      2.1965                 2.2413                 4.3769
 Frc consts  --      0.5139                 0.6029                 1.2228
 IR Inten    --     24.6898                59.0717                10.5864

                     40                     41                     42
                      A                      A                      A
 Frequencies --    696.4513               714.2221               790.6920
 Red. masses --      5.1047                 4.3144                 2.7491
 Frc consts  --      1.4588                 1.2967                 1.0126
 IR Inten    --      7.4671                 5.9231                10.4283

                     43                     44                     45
                      A                      A                      A
 Frequencies --    802.6916               839.5719               841.0320
 Red. masses --      5.3592                 2.1627                 1.5378
 Frc consts  --      2.0345                 0.8982                 0.6409
 IR Inten    --     22.9476                 1.5550                10.5025

                     46                     47                     48
                      A                      A                      A
 Frequencies --    853.6530               893.5148               903.2385
 Red. masses --      2.2367                 3.6098                 2.7298
 Frc consts  --      0.9603                 1.6980                 1.3122
 IR Inten    --     22.1856                 2.0450                 5.1519

                     49                     50                     51
                      A                      A                      A
 Frequencies --    940.3844               948.0821               949.2174
 Red. masses --      1.8069                 1.7808                 1.7661
 Frc consts  --      0.9414                 0.9431                 0.9376
 IR Inten    --      0.7012                 5.3150                 2.9551

                     52                     53                     54
                      A                      A                      A
 Frequencies --    966.4952               976.8386              1011.5539
 Red. masses --      3.6737                 1.2005                 1.8633
 Frc consts  --      2.0219                 0.6749                 1.1233
 IR Inten    --     10.3784                 0.1610                 5.8391

                     55                     56                     57
                      A                      A                      A
 Frequencies --   1056.3441              1061.6131              1064.6223
 Red. masses --      1.7659                 1.4655                 1.5287
 Frc consts  --      1.1610                 0.9731                 1.0209
 IR Inten    --      6.8948                 0.2596                 3.1287

                     58                     59                     60
                      A                      A                      A
 Frequencies --   1101.9027              1125.7989              1134.5196
 Red. masses --      2.2752                 1.3553                 2.1635
 Frc consts  --      1.6276                 1.0121                 1.6407
 IR Inten    --      5.5268               148.0211                 1.6962

                     61                     62                     63
                      A                      A                      A
 Frequencies --   1163.2450              1191.5941              1217.7800
 Red. masses --      2.7991                 1.9138                 1.3281
 Frc consts  --      2.2316                 1.6011                 1.1604
 IR Inten    --      1.6115                 5.5843                 6.1894

                     64                     65                     66
                      A                      A                      A
 Frequencies --   1225.2739              1237.2175              1241.7467
 Red. masses --      1.6055                 2.7640                 2.6888
 Frc consts  --      1.4201                 2.4928                 2.4427
 IR Inten    --      0.9687                 6.0438                 3.9111

                     67                     68                     69
                      A                      A                      A
 Frequencies --   1244.3943              1279.3703              1282.2815
 Red. masses --      1.5371                 1.2678                 2.8637
 Frc consts  --      1.4024                 1.2227                 2.7742
 IR Inten    --    142.4308                20.8652                49.7768

                     70                     71                     72
                      A                      A                      A
 Frequencies --   1303.2163              1326.9119              1331.2244
 Red. masses --      1.8824                 2.4185                 1.7431
 Frc consts  --      1.8836                 2.5089                 1.8200
 IR Inten    --     20.2817                25.7314                40.6440

                     73                     74                     75
                      A                      A                      A
 Frequencies --   1381.1640              1397.8834              1400.1043
 Red. masses --      1.7016                 1.9936                 2.1952
 Frc consts  --      1.9125                 2.2953                 2.5353
 IR Inten    --     18.4012                15.6893                70.8449

                     76                     77                     78
                      A                      A                      A
 Frequencies --   1409.3879              1419.4369              1426.9551
 Red. masses --      3.3449                 1.4737                 1.3665
 Frc consts  --      3.9146                 1.7494                 1.6394
 IR Inten    --     19.4614                 5.0840                 5.2433

                     79                     80                     81
                      A                      A                      A
 Frequencies --   1430.4819              1437.4200              1448.0684
 Red. masses --      1.2763                 1.9630                 4.5274
 Frc consts  --      1.5387                 2.3896                 5.5934
 IR Inten    --     11.7935                59.9363                32.8138

                     82                     83                     84
                      A                      A                      A
 Frequencies --   1460.3406              1494.8636              1503.7108
 Red. masses --      1.2567                 1.0829                 1.0980
 Frc consts  --      1.5790                 1.4258                 1.4628
 IR Inten    --      4.6281                14.7239                 6.8289

                     85                     86                     87
                      A                      A                      A
 Frequencies --   1510.5808              1512.7768              1514.7830
 Red. masses --      1.0620                 1.1136                 1.0478
 Frc consts  --      1.4277                 1.5015                 1.4165
 IR Inten    --      2.9822                 8.1950                 0.2043

                     88                     89                     90
                      A                      A                      A
 Frequencies --   1523.0333              1528.3958              1534.6949
 Red. masses --      1.0578                 1.0654                 1.0698
 Frc consts  --      1.4457                 1.4663                 1.4845
 IR Inten    --      0.0250                 0.7554                 5.4828

                     91                     92                     93
                      A                      A                      A
 Frequencies --   1547.5614              1551.5846              1576.5435
 Red. masses --      1.0853                 1.1309                 3.7364
 Frc consts  --      1.5314                 1.6041                 5.4716
 IR Inten    --     16.2340                 6.5556                12.3621

                     94                     95                     96
                      A                      A                      A
 Frequencies --   1653.3524              1788.4354              1834.5091
 Red. masses --      1.2368                 8.0871                 9.5896
 Frc consts  --      1.9920                15.2402                19.0148
 IR Inten    --     81.3126               229.2156               209.7585

                     97                     98                     99
                      A                      A                      A
 Frequencies --   3049.2618              3051.5624              3053.2934
 Red. masses --      1.0650                 1.0376                 1.0366
 Frc consts  --      5.8341                 5.6925                 5.6939
 IR Inten    --     20.7975                21.5406                17.4857

                    100                    101                    102
                      A                      A                      A
 Frequencies --   3060.3547              3072.5900              3095.0481
 Red. masses --      1.0377                 1.0641                 1.0941
 Frc consts  --      5.7262                 5.9189                 6.1751
 IR Inten    --     29.9624                12.2846                21.0030

                    103                    104                    105
                      A                      A                      A
 Frequencies --   3109.4837              3114.4229              3121.0207
 Red. masses --      1.0572                 1.1025                 1.1002
 Frc consts  --      6.0226                 6.3007                 6.3142
 IR Inten    --      5.0444                16.7679                11.0170

                    106                    107                    108
                      A                      A                      A
 Frequencies --   3121.0907              3126.7091              3131.4949
 Red. masses --      1.1011                 1.1020                 1.1023
 Frc consts  --      6.3197                 6.3473                 6.3686
 IR Inten    --     14.3545                66.2639                31.5114

                    109                    110                    111
                      A                      A                      A
 Frequencies --   3138.1412              3150.4495              3161.9439
 Red. masses --      1.1006                 1.0926                 1.0747
 Frc consts  --      6.3858                 6.3892                 6.3303
 IR Inten    --     24.8166                12.5916                28.1718

                    112                    113                    114
                      A                      A                      A
 Frequencies --   3173.7375              3228.1954              3272.2344
 Red. masses --      1.1102                 1.0947                 1.0958
 Frc consts  --      6.5886                 6.7215                 6.9133
 IR Inten    --      1.4875                 2.2033                10.7150

                    115                    116                    117
                      A                      A                      A
 Frequencies --   3575.4151              3688.8572              3694.6628
 Red. masses --      1.0459                 1.0639                 1.1028
 Frc consts  --      7.8779                 8.5300                 8.8695
 IR Inten    --     29.9475                49.7754                24.0702

 - Thermochemistry -
 -------------------
 Temperature   298.150 Kelvin.  Pressure   1.00000 Atm.
 Atom     1 has atomic number  6 and mass  12.00000

 Molecular mass:   299.13036 amu.
 Principal axes and moments of inertia in atomic units:
                           1         2         3
     Eigenvalues --  4488.105706880.530629025.90061
           X            0.99987   0.01288  -0.00955
           Y           -0.01284   0.99991   0.00428
           Z            0.00960  -0.00416   0.99995
 This molecule is an asymmetric top.
 Rotational symmetry number  1.
 Warning -- assumption of classical behavior for rotation
           may cause significant error
 Rotational temperatures (Kelvin)      0.01930     0.01259     0.00960
 Rotational constants (GHZ):           0.40212     0.26230     0.19995
 Zero-point vibrational energy     902649.2 (Joules/Mol)
                                  215.73833 (Kcal/Mol)
 Warning -- explicit consideration of  36 degrees of freedom as
           vibrations may cause significant error
 Vibrational temperatures:     46.11    54.93    68.18    80.60    96.73
          (Kelvin)            106.69   125.49   142.73   181.18   199.64
                              217.41   250.09   280.57   301.66   330.98
                              385.72   392.34   405.17   424.50   445.49
                              500.60   504.99   537.54   560.25   587.20
                              619.32   624.78   666.04   685.42   696.59
                              709.01   769.59   779.21   879.29   881.78
                              891.53   906.69   972.17   990.75  1002.04
                             1027.61  1137.63  1154.89  1207.96  1210.06
                             1228.22  1285.57  1299.56  1353.00  1364.08
                             1365.71  1390.57  1405.45  1455.40  1519.84
                             1527.42  1531.75  1585.39  1619.77  1632.32
                             1673.65  1714.44  1752.11  1762.90  1780.08
                             1786.60  1790.41  1840.73  1844.92  1875.04
                             1909.13  1915.34  1987.19  2011.24  2014.44
                             2027.79  2042.25  2053.07  2058.14  2068.13
                             2083.45  2101.10  2150.78  2163.50  2173.39
                             2176.55  2179.43  2191.31  2199.02  2208.08
                             2226.60  2232.38  2268.29  2378.81  2573.16
                             2639.45  4387.21  4390.52  4393.01  4403.17
                             4420.77  4453.08  4473.85  4480.96  4490.45
                             4490.55  4498.64  4505.52  4515.09  4532.79
                             4549.33  4566.30  4644.65  4708.02  5144.22
                             5307.44  5315.80

 Zero-point correction=                           0.343801 (Hartree/Particle)
 Thermal correction to Energy=                    0.365348
 Thermal correction to Enthalpy=                  0.366292
 Thermal correction to Gibbs Free Energy=         0.292916
 Sum of electronic and zero-point Energies=          -1295.915557
 Sum of electronic and thermal Energies=             -1295.894010
 Sum of electronic and thermal Enthalpies=           -1295.893066
 Sum of electronic and thermal Free Energies=        -1295.966442

                     E (Thermal)             CV                S
                      KCal/Mol        Cal/Mol-Kelvin    Cal/Mol-Kelvin
 Total                  229.259             80.811            154.433
 Electronic               0.000              0.000              0.000
 Translational            0.889              2.981             42.984
 Rotational               0.889              2.981             33.988
 Vibrational            227.482             74.849             77.461
 Vibration     1          0.594              1.983              5.698
 Vibration     2          0.594              1.982              5.351
 Vibration     3          0.595              1.979              4.923
 Vibration     4          0.596              1.975              4.593
 Vibration     5          0.598              1.970              4.233
 Vibration     6          0.599              1.966              4.040
 Vibration     7          0.601              1.958              3.721
 Vibration     8          0.604              1.950              3.470
 Vibration     9          0.611              1.927              3.007
 Vibration    10          0.614              1.915              2.821
 Vibration    11          0.619              1.901              2.658
 Vibration    12          0.627              1.875              2.394
 Vibration    13          0.636              1.847              2.180
 Vibration    14          0.642              1.826              2.047
 Vibration    15          0.652              1.795              1.879
 Vibration    16          0.673              1.732              1.608
 Vibration    17          0.676              1.724              1.579
 Vibration    18          0.681              1.708              1.524
 Vibration    19          0.689              1.683              1.445
 Vibration    20          0.699              1.655              1.364
 Vibration    21          0.726              1.579              1.176
 Vibration    22          0.728              1.573              1.162
 Vibration    23          0.745              1.526              1.065
 Vibration    24          0.757              1.493              1.002
 Vibration    25          0.773              1.453              0.933
 Vibration    26          0.792              1.404              0.857
 Vibration    27          0.795              1.396              0.845
 Vibration    28          0.821              1.332              0.758
 Vibration    29          0.833              1.302              0.720
 Vibration    30          0.840              1.285              0.699
 Vibration    31          0.848              1.266              0.676
 Vibration    32          0.890              1.173              0.576
 Vibration    33          0.897              1.158              0.562
 Vibration    34          0.970              1.008              0.431
 Vibration    35          0.972              1.005              0.428
 Vibration    36          0.980              0.990              0.417

 Optimization completed.
    -- Stationary point found.
 Normal termination of Gaussian 16 at Mon Dec 14 18:25:03 2020.

 ----------------------------------------------------------------------
 # B3LYP/6-311++G(d,p) empiricaldispersion=gd3bj scf=xqc pop=npa geom=c
 heck
 ----------------------------------------------------------------------

 ---------------------------------------
 CID_81337069_JID_10360_Energie_neutraal
 ---------------------------------------
 Structure from the checkpoint file:  "JID_10360.chk"
 Charge =  0 Multiplicity = 1

 SCF Done:  E(RB3LYP) =  -1296.55534152     A.U. after   16 cycles
 Normal termination of Gaussian 16 at Mon Dec 14 18:37:47 2020.

 ----------------------------------------------------------------------
 # B3LYP/6-311++G(d,p) empiricaldispersion=gd3bj scf=xqc pop=npa geom=c
 heck
 ----------------------------------------------------------------------

 -------------------------------------
 CID_81337069_JID_10360_Energie_kation
 -------------------------------------
 Structure from the checkpoint file:  "JID_10360.chk"
 Charge =  1 Multiplicity = 2

 SCF Done:  E(UB3LYP) =  -1296.27360895     A.U. after   25 cycles
 Normal termination of Gaussian 16 at Mon Dec 14 19:06:41 2020.
 Gaussian 16:  ES64L-G16RevA.03 25-Dec-2016

 ----------------------------------------------------------------------
 # B3LYP/6-311++G(d,p) empiricaldispersion=gd3bj scf=xqc pop=npa geom=c
 heck
 ----------------------------------------------------------------------

 ------------------------------------
 CID_81337069_JID_10360_Energie_anion
 ------------------------------------
 Structure from the checkpoint file:  "JID_10360.chk"
 Charge = -1 Multiplicity = 2

                         Standard orientation:
 ---------------------------------------------------------------------
 Center     Atomic      Atomic             Coordinates (Angstroms)
 Number     Number       Type             X           Y           Z
 ---------------------------------------------------------------------
      1          6           0       -3.112219   -2.120017    0.473862
      2          6           0       -3.185603   -0.602950    0.197744
      3          6           0       -4.454196   -0.350735   -0.643347
      4          6           0       -3.337696    0.172343    1.527949
      5          6           0       -1.992600   -0.067066   -0.574709
      6          6           0       -1.997734    0.763205   -1.679607
      7          7           0       -0.740369    1.208487   -1.984116
      8          6           0        0.052708    0.646567   -1.089551
      9          7           0       -0.649854   -0.164050   -0.213538
     10          6           0       -0.070417   -0.924591    0.894946
     11          6           0        0.361536   -2.354524    0.543637
     12          6           0        1.559991   -2.476507   -0.396355
     13          6           0        2.850248   -1.922049    0.201434
     14          8           0        2.928150   -1.477009    1.341544
     15          7           0        3.948519   -2.027202   -0.610274
     16         16           0        1.797601    0.890251   -1.122536
     17          6           0        2.170691    1.723957    0.494870
     18          6           0        1.027992    2.605406    0.927836
     19          8           0        0.113171    2.246764    1.638000
     20          8           0        1.112934    3.844191    0.399442
     21          1           0       -4.065511   -2.461414    0.892986
     22          1           0       -2.332899   -2.382932    1.191891
     23          1           0       -2.930676   -2.678155   -0.451102
     24          1           0       -5.330972   -0.727345   -0.106264
     25          1           0       -4.607529    0.717007   -0.826704
     26          1           0       -4.399548   -0.862353   -1.610081
     27          1           0       -2.471016    0.055492    2.184280
     28          1           0       -3.455699    1.242591    1.332285
     29          1           0       -4.222224   -0.182106    2.070684
     30          1           0       -2.849764    1.082755   -2.261508
     31          1           0        0.775596   -0.370373    1.288035
     32          1           0       -0.809739   -0.955107    1.693153
     33          1           0        0.608261   -2.848195    1.490206
     34          1           0       -0.481283   -2.895624    0.103934
     35          1           0        1.727200   -3.534828   -0.637312
     36          1           0        1.360943   -1.972319   -1.348808
     37          1           0        3.825501   -2.129711   -1.607898
     38          1           0        4.776582   -1.531429   -0.307509
     39          1           0        2.377436    0.971344    1.256700
     40          1           0        3.066744    2.316817    0.299804
     41          1           0        0.298667    4.311417    0.665144
 ---------------------------------------------------------------------

 SCF Done:  E(UB3LYP) =  -1296.54887340     A.U. after   33 cycles
 SCF Done:  E(UB3LYP) =  -1296.54887340     a.u. after    1 cycles

 The electronic state is 2-A.
 Alpha  occ. eigenvalues --  -88.74923 -19.07453 -19.00906 -18.99417 -14.27185
 Alpha  occ. eigenvalues --  -14.22741 -14.19429 -10.19776 -10.17780 -10.14299
 Alpha  occ. eigenvalues --  -10.11451 -10.11291 -10.10738 -10.10649 -10.08194
 Alpha  occ. eigenvalues --  -10.08121 -10.08041 -10.07880 -10.07755 -10.07653
 Alpha  occ. eigenvalues --   -7.83544  -5.79966  -5.79586  -5.78850  -1.01283
 Alpha  occ. eigenvalues --   -0.94239  -0.92162  -0.91756  -0.80376  -0.79200
 Alpha  occ. eigenvalues --   -0.74404  -0.70851  -0.69805  -0.64545  -0.62418
 Alpha  occ. eigenvalues --   -0.60703  -0.60589  -0.58068  -0.54160  -0.51789
 Alpha  occ. eigenvalues --   -0.50753  -0.47710  -0.47157  -0.44889  -0.42444
 Alpha  occ. eigenvalues --   -0.41382  -0.40067  -0.39284  -0.38567  -0.38334
 Alpha  occ. eigenvalues --   -0.37000  -0.36493  -0.36294  -0.35419  -0.34304
 Alpha  occ. eigenvalues --   -0.33403  -0.32983  -0.32584  -0.31199  -0.30746
 Alpha  occ. eigenvalues --   -0.30518  -0.30239  -0.29494  -0.28790  -0.28466
 Alpha  occ. eigenvalues --   -0.27248  -0.26404  -0.26167  -0.25698  -0.25278
 Alpha  occ. eigenvalues --   -0.24626  -0.24078  -0.22712  -0.18404  -0.17958
 Alpha  occ. eigenvalues --   -0.17537  -0.17420  -0.16210  -0.15075  -0.11714
 Alpha  occ. eigenvalues --    0.04034
 Alpha virt. eigenvalues --    0.05363   0.06285   0.07065   0.07534   0.07688
 Alpha virt. eigenvalues --    0.08599   0.08779   0.09246   0.09657   0.10112
 Alpha virt. eigenvalues --    0.10612   0.10711   0.10969   0.11511   0.12051

  Beta  occ. eigenvalues --  -88.74883 -19.07417 -19.00763 -18.99406 -14.27167
  Beta  occ. eigenvalues --  -14.22669 -14.19413 -10.19601 -10.17773 -10.14303
  Beta  occ. eigenvalues --  -10.11450 -10.11291 -10.10735 -10.10603 -10.08195
  Beta  occ. eigenvalues --  -10.08112 -10.08007 -10.07868 -10.07736 -10.07648
  Beta  occ. eigenvalues --   -7.83498  -5.79898  -5.79543  -5.78817  -1.01110
  Beta  occ. eigenvalues --   -0.94215  -0.92006  -0.91683  -0.80281  -0.79176
  Beta  occ. eigenvalues --   -0.74389  -0.70673  -0.69757  -0.64450  -0.62353
  Beta  occ. eigenvalues --   -0.60672  -0.60569  -0.57899  -0.54109  -0.51716
  Beta  occ. eigenvalues --   -0.50696  -0.47619  -0.47089  -0.44851  -0.42372
  Beta  occ. eigenvalues --   -0.41296  -0.39873  -0.39179  -0.38516  -0.38263
  Beta  occ. eigenvalues --   -0.36738  -0.36455  -0.36261  -0.35215  -0.34235
  Beta  occ. eigenvalues --   -0.33326  -0.32941  -0.32496  -0.31136  -0.30719
  Beta  occ. eigenvalues --   -0.30476  -0.30134  -0.29430  -0.28745  -0.28399
  Beta  occ. eigenvalues --   -0.27194  -0.26382  -0.26135  -0.25655  -0.25247
  Beta  occ. eigenvalues --   -0.24605  -0.23885  -0.22178  -0.18270  -0.17884
  Beta  occ. eigenvalues --   -0.17508  -0.17357  -0.16177  -0.14991  -0.11641
  Beta virt. eigenvalues --    0.05734   0.06894   0.07078   0.07467   0.07992
  Beta virt. eigenvalues --    0.08017   0.08765   0.09174   0.09622   0.09944
  Beta virt. eigenvalues --    0.10534   0.10695   0.10755   0.11173   0.11766

 Mulliken charges and spin densities:
               1          2
     1  C    0.146941  -0.804262
     2  C   -0.926580   1.652750
     3  C   -0.309665  -0.318882
     4  C   -0.428613  -0.132252
     5  C    0.374068  -0.719636
     6  C    0.123764  -0.160498
     7  N    0.145370  -0.012635
     8  C   -0.822086   0.141893
     9  N    0.511125   0.065518
    10  C   -0.066609  -0.414504
    11  C   -0.379107  -0.043118
    12  C    0.307172  -0.200448
    13  C    0.571802  -1.101581
    14  O   -0.286705   0.009537
    15  N   -0.308773   0.186007
    16  S    1.241302  -0.955515
    17  C   -1.089744   0.398126
    18  C    0.015278   0.046148
    19  O   -0.292797   0.046186
    20  O   -0.102195   0.004710
    21  H   -0.132140   0.288213
    22  H    0.052181   0.072385
    23  H   -0.027491   0.208314
    24  H   -0.130973   0.278645
    25  H    0.102341   0.025302
    26  H    0.081497   0.068460
    27  H    0.084670   0.050541
    28  H    0.137979   0.016129
    29  H    0.051684   0.099249
    30  H    0.101032   0.050097
    31  H    0.297850  -0.081904
    32  H    0.165179  -0.061957
    33  H    0.117765   0.074635
    34  H    0.156181  -0.035383
    35  H   -0.437765   0.665807
    36  H   -0.256486   0.507167
    37  H   -0.350260   0.613961
    38  H   -0.110145   0.383113
    39  H    0.201278   0.026680
    40  H    0.194065   0.061157
    41  H    0.277612   0.001844
 Sum of Mulliken charges =  -1.00000   1.00000

 Dipole moment (field-independent basis, Debye):
    X=             -4.7232    Y=              3.5730    Z=              3.7271  Tot=              6.9976
 Quadrupole moment (field-independent basis, Debye-Ang):
   XX=           -198.0937   YY=           -168.7957   ZZ=           -170.3081
   XY=              7.5164   XZ=              9.9019   YZ=             -2.2812

 Summary of Natural Population Analysis:

                                       Natural Population
                Natural  -----------------------------------------------
    Atom  No    Charge         Core      Valence    Rydberg      Total
 -----------------------------------------------------------------------
      C    1   -0.28247      0.99963     2.27555    0.00729     3.28247
      C    2   -0.06070      0.99956     2.05200    0.00914     3.06070
      C    3   -0.28055      0.99965     2.27373    0.00717     3.28055
      C    4   -0.27851      0.99963     2.27200    0.00688     3.27851
      C    5    0.07340      0.99947     1.91276    0.01437     2.92660
      C    6   -0.03653      0.99950     2.02385    0.01318     3.03653
      N    7   -0.24831      0.99968     2.73839    0.01024     3.74831
      C    8    0.09584      0.99953     1.88105    0.02359     2.90416
      N    9   -0.21096      0.99957     2.69811    0.01328     3.71096
      C   10   -0.08910      0.99958     2.07868    0.01083     3.08910
      C   11   -0.19268      0.99962     2.18476    0.00831     3.19268
      C   12   -0.23990      0.99957     2.23095    0.00938     3.23990
      C   13    0.34596      0.99971     1.62998    0.02436     2.65404
      O   14   -0.33356      0.99987     3.32768    0.00601     4.33356
      N   15   -0.39993      0.99970     2.89143    0.00880     3.89993
      S   16    0.14250      4.99953     2.83715    0.02082     7.85750
      C   17   -0.28939      0.99953     2.28007    0.00979     3.28939
      C   18    0.41318      0.99971     1.56098    0.02613     2.58682
      O   19   -0.30065      0.99987     3.29386    0.00693     4.30065
      O   20   -0.34239      0.99987     3.33670    0.00582     4.34239
      H   21    0.09899      0.00000     0.40015    0.00085     0.40101
      H   22    0.09949      0.00000     0.39950    0.00101     0.40051
      H   23    0.10352      0.00000     0.39547    0.00101     0.39648
      H   24    0.09935      0.00000     0.39992    0.00073     0.40065
      H   25    0.10037      0.00000     0.39881    0.00082     0.39963
      H   26    0.10309      0.00000     0.39613    0.00078     0.39691
      H   27    0.10185      0.00000     0.39737    0.00079     0.39815
      H   28    0.10354      0.00000     0.39561    0.00084     0.39646
      H   29    0.09574      0.00000     0.40355    0.00070     0.40426
      H   30    0.09582      0.00000     0.40310    0.00107     0.40418
      H   31    0.11907      0.00000     0.37911    0.00181     0.38093
      H   32    0.09993      0.00000     0.39896    0.00111     0.40007
      H   33    0.10386      0.00000     0.39520    0.00094     0.39614
      H   34    0.10107      0.00000     0.39771    0.00122     0.39893
      H   35    0.11126      0.00000     0.38759    0.00114     0.38874
      H   36    0.11581      0.00000     0.38186    0.00233     0.38419
      H   37    0.19915      0.00000     0.28888    0.01197     0.30085
      H   38    0.19336      0.00000     0.30388    0.00276     0.30664
      H   39    0.11859      0.00000     0.38013    0.00129     0.38141
      H   40    0.11396      0.00000     0.38488    0.00116     0.38604
      H   41    0.23693      0.00000     0.26067    0.00240     0.26307
 =======================================================================
   * Total *   -0.00000     23.99277    55.72817    0.27906    80.00000

 Normal termination of Gaussian 16 at Mon Dec 14 19:44:53 2020.
