 Gaussian 16, Revision A.03,

 -----------------------------------------------------------
 # opt freq B3LYP/6-31G(d) empiricaldispersion=gd3bj scf=xqc
 -----------------------------------------------------------

 ------------------------------
 CID_10888225_JID_1597_neutraal
 ------------------------------
 Symbolic Z-matrix:
 Charge =  0 Multiplicity = 1

 SCF Done:  E(RB3LYP) =  -576.093000142     A.U. after   14 cycles
 SCF Done:  E(RB3LYP) =  -576.096020841     A.U. after   12 cycles
 SCF Done:  E(RB3LYP) =  -576.096042674     A.U. after   12 cycles
 SCF Done:  E(RB3LYP) =  -576.096509137     A.U. after   12 cycles
 SCF Done:  E(RB3LYP) =  -576.096624138     A.U. after   11 cycles
 SCF Done:  E(RB3LYP) =  -576.096654727     A.U. after   11 cycles
 SCF Done:  E(RB3LYP) =  -576.096706873     A.U. after   10 cycles
 SCF Done:  E(RB3LYP) =  -576.096720444     A.U. after    9 cycles
 SCF Done:  E(RB3LYP) =  -576.096725722     A.U. after    9 cycles
 SCF Done:  E(RB3LYP) =  -576.096727779     A.U. after    8 cycles
 SCF Done:  E(RB3LYP) =  -576.096738107     A.U. after    9 cycles
 SCF Done:  E(RB3LYP) =  -576.096743449     A.U. after    9 cycles
 SCF Done:  E(RB3LYP) =  -576.096747409     A.U. after    9 cycles
 SCF Done:  E(RB3LYP) =  -576.096749098     A.U. after    9 cycles
 SCF Done:  E(RB3LYP) =  -576.096749306     A.U. after    8 cycles
 SCF Done:  E(RB3LYP) =  -576.096749326     A.U. after    7 cycles
 Optimization completed.
    -- Stationary point found.

 1\1\GINC-NODE316\FOpt\RB3LYP\6-31G(d)\C7H14O4\VSC10255\08-Dec-2020\0\\
 # opt freq B3LYP/6-31G(d) empiricaldispersion=gd3bj scf=xqc\\CID_10888
 225_JID_1597_neutraal\\0,1\C,0.9091276831,-0.0951953532,0.0292002538\C
 ,0.2890931343,-0.884688161,1.1572347118\O,-0.9003558283,-0.9789472818,
 1.3720779115\O,1.2514059341,-1.4711081996,1.9046050466\C,0.8336987905,
 -2.2924891113,3.0227310563\C,0.9514113399,-1.528504467,4.3354985791\C,
 -0.1368109445,-0.4689866057,4.5023231918\O,-1.3533290271,-1.1597510313
 ,4.6262163635\C,-2.4915440852,-0.352309345,4.3501693169\O,0.0951002581

 Normal termination of Gaussian 16 at Tue Dec  8 20:28:40 2020.

 --------------------------------------------------------------------
 #N Geom=AllCheck Guess=TCheck SCRF=Check GenChk RB3LYP/6-31G(d) Freq
 --------------------------------------------------------------------

 Structure from the checkpoint file:  "JID_1597.chk"
 ------------------------------
 CID_10888225_JID_1597_neutraal
 ------------------------------
 Charge =  0 Multiplicity = 1

 SCF Done:  E(RB3LYP) =  -576.096749326     A.U. after    1 cycles

  Exact polarizability:  96.854   2.215  87.682   3.969   0.440  73.128
 Approx polarizability: 113.353   0.537 127.401   6.045  -2.932 107.227

                      1                      2                      3
                      A                      A                      A
 Frequencies --     36.1425                50.5008                70.5870
 Red. masses --      3.0905                 2.1018                 1.6241
 Frc consts  --      0.0024                 0.0032                 0.0048
 IR Inten    --      2.0889                 1.2974                 0.2502

                      4                      5                      6
                      A                      A                      A
 Frequencies --     82.3304               104.9870               114.7077
 Red. masses --      5.4927                 2.4160                 2.1920
 Frc consts  --      0.0219                 0.0157                 0.0170
 IR Inten    --      1.1898                 3.5571                 1.9888

                      7                      8                      9
                      A                      A                      A
 Frequencies --    137.6053               163.3523               175.1813
 Red. masses --      3.0529                 1.2367                 1.4535
 Frc consts  --      0.0341                 0.0194                 0.0263
 IR Inten    --      3.3370                 0.8866                 0.5423

                     10                     11                     12
                      A                      A                      A
 Frequencies --    221.9729               261.5629               305.0909
 Red. masses --      2.7176                 3.5242                 2.6913
 Frc consts  --      0.0789                 0.1421                 0.1476
 IR Inten    --      9.2822                10.2011                 5.1625

                     13                     14                     15
                      A                      A                      A
 Frequencies --    329.7477               374.0587               422.7898
 Red. masses --      2.6688                 2.7786                 3.3441
 Frc consts  --      0.1710                 0.2291                 0.3522
 IR Inten    --      5.5666                 3.8919                 9.6806

                     16                     17                     18
                      A                      A                      A
 Frequencies --    512.0182               523.0313               604.7323
 Red. masses --      3.1912                 2.8833                 2.9135
 Frc consts  --      0.4929                 0.4647                 0.6278
 IR Inten    --     12.6169                 0.7744                 9.8275

                     19                     20                     21
                      A                      A                      A
 Frequencies --    632.5582               649.2378               813.1848
 Red. masses --      3.7481                 4.2829                 2.1189
 Frc consts  --      0.8836                 1.0637                 0.8256
 IR Inten    --      4.6259                 4.7707                 1.5088

                     22                     23                     24
                      A                      A                      A
 Frequencies --    835.8417               940.3349               957.6956
 Red. masses --      3.1504                 3.0630                 3.1927
 Frc consts  --      1.2968                 1.5957                 1.7253
 IR Inten    --     14.4269                28.2203                23.9535

                     25                     26                     27
                      A                      A                      A
 Frequencies --    980.2594              1028.0412              1075.8391
 Red. masses --      3.1465                 1.9225                 1.7720
 Frc consts  --      1.7814                 1.1971                 1.2084
 IR Inten    --      4.5141                20.9097                 7.0628

                     28                     29                     30
                      A                      A                      A
 Frequencies --   1076.8034              1093.6255              1126.0011
 Red. masses --      2.9347                 4.1364                 3.3395
 Frc consts  --      2.0049                 2.9148                 2.4946
 IR Inten    --     91.7078                97.0101                79.9173

                     31                     32                     33
                      A                      A                      A
 Frequencies --   1133.4666              1158.2178              1187.6791
 Red. masses --      2.5110                 4.3442                 1.2916
 Frc consts  --      1.9007                 3.4335                 1.0734
 IR Inten    --    109.2482               163.6390                 2.4080

                     34                     35                     36
                      A                      A                      A
 Frequencies --   1194.2713              1219.7153              1229.0947
 Red. masses --      1.2937                 1.3825                 1.5134
 Frc consts  --      1.0872                 1.2118                 1.3470
 IR Inten    --      3.5180                19.6062                23.9730

                     37                     38                     39
                      A                      A                      A
 Frequencies --   1270.9992              1288.4525              1318.7684
 Red. masses --      1.9694                 1.8608                 1.3428
 Frc consts  --      1.8745                 1.8200                 1.3759
 IR Inten    --    181.0111               134.4087                27.9892

                     40                     41                     42
                      A                      A                      A
 Frequencies --   1380.3201              1406.7836              1418.0243
 Red. masses --      1.2763                 1.2477                 1.2474
 Frc consts  --      1.4327                 1.4548                 1.4778
 IR Inten    --     29.4113                15.3243                28.0286

                     43                     44                     45
                      A                      A                      A
 Frequencies --   1433.7175              1451.3455              1487.1762
 Red. masses --      1.4125                 1.3776                 1.1461
 Frc consts  --      1.7106                 1.7097                 1.4934
 IR Inten    --     28.5843                15.9130                 0.5141

                     46                     47                     48
                      A                      A                      A
 Frequencies --   1494.1825              1500.3892              1503.7504
 Red. masses --      1.1056                 1.0518                 1.1697
 Frc consts  --      1.4543                 1.3950                 1.5584
 IR Inten    --      3.1688                14.2993                 1.5072

                     49                     50                     51
                      A                      A                      A
 Frequencies --   1505.4837              1517.0100              1520.7821
 Red. masses --      1.0466                 1.0992                 1.0500
 Frc consts  --      1.3976                 1.4905                 1.4308
 IR Inten    --      7.9462                10.1067                 1.5834

                     52                     53                     54
                      A                      A                      A
 Frequencies --   1525.7780              1538.2655              1544.2227
 Red. masses --      1.0612                 1.0493                 1.0499
 Frc consts  --      1.4555                 1.4629                 1.4751
 IR Inten    --      3.0533                 5.8384                 4.5911

                     55                     56                     57
                      A                      A                      A
 Frequencies --   1825.6128              3023.7620              3035.6504
 Red. masses --     10.3483                 1.0407                 1.0324
 Frc consts  --     20.3206                 5.6063                 5.6053
 IR Inten    --    218.9378                52.6199                43.8958

                     58                     59                     60
                      A                      A                      A
 Frequencies --   3065.2906              3072.6431              3073.6161
 Red. masses --      1.0641                 1.0383                 1.0789
 Frc consts  --      5.8907                 5.7758                 6.0053
 IR Inten    --      6.2446                 6.5479                41.8739

                     61                     62                     63
                      A                      A                      A
 Frequencies --   3092.9794              3100.6239              3101.5346
 Red. masses --      1.0962                 1.0647                 1.1046
 Frc consts  --      6.1784                 6.0310                 6.2605
 IR Inten    --     38.6549                37.5836                29.5347

                     64                     65                     66
                      A                      A                      A
 Frequencies --   3116.8143              3135.3611              3142.9887
 Red. masses --      1.1018                 1.1005                 1.1027
 Frc consts  --      6.3064                 6.3742                 6.4178
 IR Inten    --     24.4274                 6.0836                30.9672

                     67                     68                     69
                      A                      A                      A
 Frequencies --   3147.1265              3168.2790              3184.5822
 Red. masses --      1.1023                 1.1062                 1.1034
 Frc consts  --      6.4326                 6.5421                 6.5933
 IR Inten    --     29.4390                 6.3602                 7.4281

 - Thermochemistry -
 -------------------
 Temperature   298.150 Kelvin.  Pressure   1.00000 Atm.
 Atom     1 has atomic number  6 and mass  12.00000

 Molecular mass:   162.08921 amu.
 Principal axes and moments of inertia in atomic units:
                           1         2         3
     Eigenvalues --  1007.866422817.761113199.18225
           X            0.99991  -0.00034   0.01360
           Y           -0.00003   0.99962   0.02758
           Z           -0.01361  -0.02758   0.99953
 This molecule is an asymmetric top.
 Rotational symmetry number  1.
 Warning -- assumption of classical behavior for rotation
           may cause significant error
 Rotational temperatures (Kelvin)      0.08594     0.03074     0.02707
 Rotational constants (GHZ):           1.79066     0.64049     0.56413
 Zero-point vibrational energy     563528.3 (Joules/Mol)
                                  134.68651 (Kcal/Mol)
 Warning -- explicit consideration of  18 degrees of freedom as
           vibrations may cause significant error
 Vibrational temperatures:     52.00    72.66   101.56   118.46   151.05
          (Kelvin)            165.04   197.98   235.03   252.05   319.37
                              376.33   438.96   474.43   538.19   608.30
                              736.68   752.53   870.07   910.11   934.11
                             1169.99  1202.59  1352.93  1377.91  1410.37
                             1479.12  1547.89  1549.28  1573.48  1620.06
                             1630.81  1666.42  1708.81  1718.29  1754.90
                             1768.39  1828.68  1853.80  1897.41  1985.97
                             2024.05  2040.22  2062.80  2088.16  2139.71
                             2149.80  2158.73  2163.56  2166.06  2182.64
                             2188.07  2195.25  2213.22  2221.79  2626.65
                             4350.52  4367.62  4410.27  4420.85  4422.25
                             4450.11  4461.11  4462.42  4484.40  4511.09
                             4522.06  4528.01  4558.45  4581.90

 Zero-point correction=                           0.214637 (Hartree/Particle)
 Thermal correction to Energy=                    0.227957
 Thermal correction to Enthalpy=                  0.228901
 Thermal correction to Gibbs Free Energy=         0.173560
 Sum of electronic and zero-point Energies=           -575.882113
 Sum of electronic and thermal Energies=              -575.868793
 Sum of electronic and thermal Enthalpies=            -575.867849
 Sum of electronic and thermal Free Energies=         -575.923190

                     E (Thermal)             CV                S
                      KCal/Mol        Cal/Mol-Kelvin    Cal/Mol-Kelvin
 Total                  143.045             45.494            116.475
 Electronic               0.000              0.000              0.000
 Translational            0.889              2.981             41.158
 Rotational               0.889              2.981             30.586
 Vibrational            141.267             39.532             44.731
 Vibration     1          0.594              1.982              5.460
 Vibration     2          0.595              1.977              4.798
 Vibration     3          0.598              1.968              4.137
 Vibration     4          0.600              1.961              3.835
 Vibration     5          0.605              1.945              3.360
 Vibration     6          0.608              1.937              3.188
 Vibration     7          0.614              1.916              2.837
 Vibration     8          0.623              1.887              2.511
 Vibration     9          0.627              1.873              2.379
 Vibration    10          0.648              1.808              1.943
 Vibration    11          0.669              1.743              1.651
 Vibration    12          0.696              1.664              1.389
 Vibration    13          0.713              1.616              1.261
 Vibration    14          0.745              1.525              1.063
 Vibration    15          0.785              1.421              0.883
 Vibration    16          0.867              1.223              0.629
 Vibration    17          0.878              1.199              0.603
 Vibration    18          0.963              1.022              0.442

 Optimization completed.
    -- Stationary point found.

 1\1\GINC-NODE316\Freq\RB3LYP\6-31G(d)\C7H14O4\VSC10255\08-Dec-2020\0\\
 #N Geom=AllCheck Guess=TCheck SCRF=Check GenChk RB3LYP/6-31G(d) Freq\\
 CID_10888225_JID_1597_neutraal\\0,1\C,0.9091276831,-0.0951953532,0.029
 2002538\C,0.2890931343,-0.884688161,1.1572347118\O,-0.9003558283,-0.97
 89472818,1.3720779115\O,1.2514059341,-1.4711081996,1.9046050466\C,0.83
 36987905,-2.2924891113,3.0227310563\C,0.9514113399,-1.528504467,4.3354
 985791\C,-0.1368109445,-0.4689866057,4.5023231918\O,-1.3533290271,-1.1
 597510313,4.6262163635\C,-2.4915440852,-0.352309345,4.3501693169\O,0.0

 Normal termination of Gaussian 16 at Tue Dec  8 20:33:37 2020.

 ----------------------------------------------------------------------
 # B3LYP/6-311++G(d,p) empiricaldispersion=gd3bj scf=xqc pop=npa geom=c
 heck
 ----------------------------------------------------------------------

 --------------------------------------
 CID_10888225_JID_1597_Energie_neutraal
 --------------------------------------
 Structure from the checkpoint file:  "JID_1597.chk"
 Charge =  0 Multiplicity = 1

 SCF Done:  E(RB3LYP) =  -576.273072908     A.U. after   13 cycles
 Normal termination of Gaussian 16 at Tue Dec  8 20:35:49 2020.

 ----------------------------------------------------------------------
 # B3LYP/6-311++G(d,p) empiricaldispersion=gd3bj scf=xqc pop=npa geom=c
 heck
 ----------------------------------------------------------------------

 ------------------------------------
 CID_10888225_JID_1597_Energie_kation
 ------------------------------------
 Structure from the checkpoint file:  "JID_1597.chk"
 Charge =  1 Multiplicity = 2

 SCF Done:  E(UB3LYP) =  -575.929417226     A.U. after   23 cycles
 Normal termination of Gaussian 16 at Tue Dec  8 20:42:00 2020.
 Gaussian 16:  ES64L-G16RevA.03 25-Dec-2016

 -----------------------------------
 CID_10888225_JID_1597_Energie_anion
 -----------------------------------
 Structure from the checkpoint file:  "JID_1597.chk"
 Charge = -1 Multiplicity = 2

                         Standard orientation:
 ---------------------------------------------------------------------
 Center     Atomic      Atomic             Coordinates (Angstroms)
 Number     Number       Type             X           Y           Z
 ---------------------------------------------------------------------
      1          6           0        3.487123    0.055254    1.083731
      2          6           0        2.340059    0.183393    0.110064
      3          8           0        1.892083    1.229816   -0.307246
      4          8           0        1.873369   -1.039437   -0.229616
      5          6           0        0.781436   -1.107384   -1.179573
      6          6           0       -0.548050   -1.326088   -0.468571
      7          6           0       -1.044679   -0.074752    0.254031
      8          8           0       -1.349608    0.868370   -0.740937
      9          6           0       -1.400446    2.204579   -0.255492
     10          8           0       -2.134066   -0.316155    1.124970
     11          6           0       -3.311941   -0.808044    0.500042
     12          1           0        3.861737    1.047192    1.337242
     13          1           0        4.288127   -0.547934    0.644876
     14          1           0        3.150465   -0.459141    1.989770
     15          1           0        0.758841   -0.190580   -1.770058
     16          1           0        1.023524   -1.960028   -1.818316
     17          1           0       -1.288977   -1.617909   -1.222024
     18          1           0       -0.456229   -2.146096    0.251734
     19          1           0       -0.270816    0.317445    0.923887
     20          1           0       -2.135072    2.305413    0.552867
     21          1           0       -0.411279    2.518937    0.100227
     22          1           0       -1.698643    2.833379   -1.097604
     23          1           0       -3.574172   -0.213376   -0.382379
     24          1           0       -3.212453   -1.862307    0.205389
     25          1           0       -4.110295   -0.727485    1.241633
 ---------------------------------------------------------------------

 SCF Done:  E(UB3LYP) =  -576.255803134     A.U. after   31 cycles

 The electronic state is 2-A.
 Alpha  occ. eigenvalues --  -19.06670 -19.03254 -19.02785 -19.01421 -10.20629
 Alpha  occ. eigenvalues --  -10.16753 -10.12505 -10.11399 -10.10732 -10.07715
 Alpha  occ. eigenvalues --  -10.07310  -1.00681  -0.97384  -0.92334  -0.91202
 Alpha  occ. eigenvalues --   -0.69991  -0.65588  -0.61820  -0.59304  -0.55701
 Alpha  occ. eigenvalues --   -0.49225  -0.46130  -0.42040  -0.41552  -0.40218
 Alpha  occ. eigenvalues --   -0.38961  -0.37905  -0.36631  -0.34648  -0.33135
 Alpha  occ. eigenvalues --   -0.32889  -0.31988  -0.31254  -0.29982  -0.29428
 Alpha  occ. eigenvalues --   -0.27568  -0.26999  -0.26121  -0.24523  -0.21045
 Alpha  occ. eigenvalues --   -0.20579  -0.18576  -0.18041  -0.17187   0.04673
 Alpha virt. eigenvalues --    0.06415   0.07436   0.08137   0.08903   0.09532
 Alpha virt. eigenvalues --    0.10094   0.10233   0.11158   0.11313   0.12087
 Alpha virt. eigenvalues --    0.12350   0.12647   0.13746   0.14061   0.15373

  Beta  occ. eigenvalues --  -19.06662 -19.03249 -19.02777 -19.01412 -10.20624
  Beta  occ. eigenvalues --  -10.16750 -10.12485 -10.11390 -10.10693 -10.07659
  Beta  occ. eigenvalues --  -10.07290  -1.00665  -0.97371  -0.92317  -0.91187
  Beta  occ. eigenvalues --   -0.69958  -0.65540  -0.61768  -0.59263  -0.55651
  Beta  occ. eigenvalues --   -0.49179  -0.46088  -0.42014  -0.41510  -0.40185
  Beta  occ. eigenvalues --   -0.38933  -0.37872  -0.36594  -0.34617  -0.33104
  Beta  occ. eigenvalues --   -0.32857  -0.31943  -0.31210  -0.29939  -0.29402
  Beta  occ. eigenvalues --   -0.27524  -0.26967  -0.26090  -0.24499  -0.21024
  Beta  occ. eigenvalues --   -0.20553  -0.18558  -0.18027  -0.17167
  Beta virt. eigenvalues --    0.06952   0.07587   0.08069   0.08719   0.09376
  Beta virt. eigenvalues --    0.10052   0.10664   0.10756   0.11394   0.11807
  Beta virt. eigenvalues --    0.12521   0.12845   0.12997   0.13885   0.14454

 Mulliken charges and spin densities:
               1          2
     1  C    2.307523  -2.811424
     2  C   -1.384080   1.431669
     3  O   -0.256957  -0.008082
     4  O   -0.002612   0.035056
     5  C    0.204386  -0.718981
     6  C    0.868585  -0.836688
     7  C   -1.169076   0.508916
     8  O   -0.074495   0.018959
     9  C   -0.030071  -0.205668
    10  O   -0.117871   0.051218
    11  C    1.001926  -1.229248
    12  H   -0.097250   0.257871
    13  H   -0.595285   0.777322
    14  H   -0.459704   0.634853
    15  H    0.268476  -0.053649
    16  H   -0.883977   1.094409
    17  H    0.100054   0.063540
    18  H   -0.112050   0.333833
    19  H    0.301952  -0.087106
    20  H    0.054091   0.082752
    21  H    0.112216   0.055164
    22  H   -0.016601   0.144264
    23  H   -0.170197   0.329591
    24  H   -0.497336   0.638213
    25  H   -0.351646   0.493217
 Sum of Mulliken charges =  -1.00000   1.00000

 Dipole moment (field-independent basis, Debye):
    X=             -1.6208    Y=              4.5790    Z=             -0.7652  Tot=              4.9173
 Quadrupole moment (field-independent basis, Debye-Ang):
   XX=           -145.1062   YY=           -107.1548   ZZ=           -100.4808
   XY=             -2.9256   XZ=             -3.1117   YZ=             -1.7591

 Summary of Natural Population Analysis:

                                       Natural Population
                Natural  -----------------------------------------------
    Atom  No    Charge         Core      Valence    Rydberg      Total
 -----------------------------------------------------------------------
      C    1   -0.33196      0.99962     2.32675    0.00560     3.33196
      C    2    0.40918      0.99970     1.56604    0.02507     2.59082
      O    3   -0.31223      0.99987     3.30613    0.00623     4.31223
      O    4   -0.28521      0.99986     3.27446    0.01089     4.28521
      C    5   -0.01605      0.99954     2.00432    0.01219     3.01605
      C    6   -0.22162      0.99959     2.21207    0.00996     3.22162
      C    7    0.22053      0.99956     1.75996    0.01995     2.77947
      O    8   -0.30374      0.99987     3.29521    0.00865     4.30374
      C    9   -0.10158      0.99961     2.09412    0.00785     3.10158
      O   10   -0.30462      0.99989     3.29494    0.00979     4.30462
      C   11   -0.10615      0.99960     2.09699    0.00956     3.10615
      H   12    0.10857      0.00000     0.39038    0.00105     0.39143
      H   13    0.11630      0.00000     0.38148    0.00222     0.38370
      H   14    0.11599      0.00000     0.38202    0.00198     0.38401
      H   15    0.10263      0.00000     0.39560    0.00176     0.39737
      H   16    0.09529      0.00000     0.40275    0.00196     0.40471
      H   17    0.10853      0.00000     0.38939    0.00208     0.39147
      H   18    0.10820      0.00000     0.39035    0.00145     0.39180
      H   19    0.07990      0.00000     0.41738    0.00272     0.42010
      H   20    0.08226      0.00000     0.41626    0.00148     0.41774
      H   21    0.08991      0.00000     0.40872    0.00137     0.41009
      H   22    0.08703      0.00000     0.41201    0.00096     0.41297
      H   23    0.08646      0.00000     0.41200    0.00154     0.41354
      H   24    0.08236      0.00000     0.41579    0.00185     0.41764
      H   25    0.09000      0.00000     0.40873    0.00126     0.41000
 =======================================================================
   * Total *    0.00000     10.99670    32.85386    0.14943    44.00000

 Normal termination of Gaussian 16 at Tue Dec  8 20:49:54 2020.
