 Gaussian 16, Revision A.03,

 -----------------------------------------------------------
 # opt freq B3LYP/6-31G(d) empiricaldispersion=gd3bj scf=xqc
 -----------------------------------------------------------

 -------------------------------
 CID_142669464_JID_2666_neutraal
 -------------------------------
 Symbolic Z-matrix:
 Charge =  0 Multiplicity = 1

 SCF Done:  E(RB3LYP) =  -527.434164664     A.U. after   15 cycles
 SCF Done:  E(RB3LYP) =  -527.439692969     A.U. after   13 cycles
 SCF Done:  E(RB3LYP) =  -527.440278045     A.U. after   12 cycles
 SCF Done:  E(RB3LYP) =  -527.440402332     A.U. after   12 cycles
 SCF Done:  E(RB3LYP) =  -527.440461905     A.U. after   11 cycles
 SCF Done:  E(RB3LYP) =  -527.440484070     A.U. after   11 cycles
 SCF Done:  E(RB3LYP) =  -527.440489389     A.U. after   10 cycles
 SCF Done:  E(RB3LYP) =  -527.440490812     A.U. after    9 cycles
 SCF Done:  E(RB3LYP) =  -527.440490991     A.U. after    8 cycles
 Optimization completed.
    -- Stationary point found.
 Normal termination of Gaussian 16 at Wed Dec  9 17:47:35 2020.

 --------------------------------------------------------------------
 #N Geom=AllCheck Guess=TCheck SCRF=Check GenChk RB3LYP/6-31G(d) Freq
 --------------------------------------------------------------------

 Structure from the checkpoint file:  "JID_2666.chk"
 -------------------------------
 CID_142669464_JID_2666_neutraal
 -------------------------------
 Charge =  0 Multiplicity = 1

 SCF Done:  E(RB3LYP) =  -527.440490991     A.U. after    1 cycles

  Exact polarizability: 131.537   5.648 106.130  -1.526  -3.240  62.676
 Approx polarizability: 212.842   8.023 198.278  -1.042  -3.490 104.579

                      1                      2                      3
                      A                      A                      A
 Frequencies --     97.3571               111.2625               211.8501
 Red. masses --      5.2047                 5.0758                 7.5913
 Frc consts  --      0.0291                 0.0370                 0.2007
 IR Inten    --      0.8238                 0.3568                 1.8150

                      4                      5                      6
                      A                      A                      A
 Frequencies --    249.9211               275.5026               320.3849
 Red. masses --      3.6985                 5.1286                 4.0286
 Frc consts  --      0.1361                 0.2293                 0.2436
 IR Inten    --      0.3047                 8.2341                 1.1323

                      7                      8                      9
                      A                      A                      A
 Frequencies --    378.7458               441.1227               475.8394
 Red. masses --      3.3728                 3.9251                 3.9359
 Frc consts  --      0.2851                 0.4500                 0.5251
 IR Inten    --      5.5108                 2.3968                 4.4015

                     10                     11                     12
                      A                      A                      A
 Frequencies --    527.2081               577.1850               605.8088
 Red. masses --      5.5581                 5.2662                 6.3867
 Frc consts  --      0.9102                 1.0337                 1.3810
 IR Inten    --      9.0263                 6.9223                11.3559

                     13                     14                     15
                      A                      A                      A
 Frequencies --    666.5129               688.5516               759.7526
 Red. masses --      3.7032                 3.2425                 3.3022
 Frc consts  --      0.9693                 0.9057                 1.1231
 IR Inten    --     10.3848                17.8316                25.6083

                     16                     17                     18
                      A                      A                      A
 Frequencies --    806.2484               818.2822               855.8356
 Red. masses --      3.0729                 5.9338                 5.1547
 Frc consts  --      1.1769                 2.3409                 2.2245
 IR Inten    --     30.7246                16.0397                 4.3339

                     19                     20                     21
                      A                      A                      A
 Frequencies --    902.2934               917.9473               957.9932
 Red. masses --      4.2959                 1.7216                 1.6479
 Frc consts  --      2.0606                 0.8547                 0.8910
 IR Inten    --     45.2985                26.1880                14.1368

                     22                     23                     24
                      A                      A                      A
 Frequencies --    964.4399               972.9852               982.4819
 Red. masses --      1.7724                 1.5927                 2.2330
 Frc consts  --      0.9713                 0.8884                 1.2700
 IR Inten    --     17.9247                 2.7995                24.2459

                     25                     26                     27
                      A                      A                      A
 Frequencies --   1007.6112              1057.0579              1156.6907
 Red. masses --      1.4993                 2.2536                 4.7419
 Frc consts  --      0.8968                 1.4836                 3.7379
 IR Inten    --      0.2352                 4.2431                 9.5033

                     28                     29                     30
                      A                      A                      A
 Frequencies --   1214.4412              1249.4600              1256.9265
 Red. masses --      3.9013                 1.6488                 2.7396
 Frc consts  --      3.3901                 1.5166                 2.5501
 IR Inten    --     12.5224                 6.2528                 3.2369

                     31                     32                     33
                      A                      A                      A
 Frequencies --   1289.9662              1319.2630              1408.2080
 Red. masses --      2.1824                 2.3695                 1.2990
 Frc consts  --      2.1396                 2.4298                 1.5177
 IR Inten    --      0.8156                 0.2376                 7.3715

                     34                     35                     36
                      A                      A                      A
 Frequencies --   1430.7267              1444.3848              1450.7583
 Red. masses --      1.3089                 1.8276                 1.8783
 Frc consts  --      1.5786                 2.2465                 2.3292
 IR Inten    --     23.7012                38.7468                23.2440

                     37                     38                     39
                      A                      A                      A
 Frequencies --   1483.1638              1586.6021              1624.3324
 Red. masses --      2.1070                 6.7580                 5.5240
 Frc consts  --      2.7308                10.0232                 8.5873
 IR Inten    --     92.3250               112.2988               185.2201

                     40                     41                     42
                      A                      A                      A
 Frequencies --   1670.4907              1731.9766              1748.1762
 Red. masses --      6.6580                10.2784                10.3470
 Frc consts  --     10.9466                18.1661                18.6309
 IR Inten    --     51.5066                20.5786               172.4108

                     43                     44                     45
                      A                      A                      A
 Frequencies --   3108.7049              3121.6695              3165.3110
 Red. masses --      1.0871                 1.0874                 1.0908
 Frc consts  --      6.1896                 6.2436                 6.4390
 IR Inten    --     44.7168                25.3165                20.4950

                     46                     47                     48
                      A                      A                      A
 Frequencies --   3171.0887              3191.8291              3194.0816
 Red. masses --      1.0847                 1.0942                 1.0914
 Frc consts  --      6.4268                 6.5678                 6.5606
 IR Inten    --      5.8235                15.6658                28.4899

 - Thermochemistry -
 -------------------
 Temperature   298.150 Kelvin.  Pressure   1.00000 Atm.
 Atom     1 has atomic number  6 and mass  12.00000

 Molecular mass:   158.05925 amu.
 Principal axes and moments of inertia in atomic units:
                           1         2         3
     Eigenvalues --   964.039382013.546282612.05257
           X            0.99987   0.01439  -0.00758
           Y           -0.01451   0.99976  -0.01633
           Z            0.00735   0.01644   0.99984
 This molecule is an asymmetric top.
 Rotational symmetry number  1.
 Warning -- assumption of classical behavior for rotation
           may cause significant error
 Rotational temperatures (Kelvin)      0.08984     0.04302     0.03316
 Rotational constants (GHZ):           1.87206     0.89630     0.69093
 Zero-point vibrational energy     350795.5 (Joules/Mol)
                                   83.84214 (Kcal/Mol)
 Warning -- explicit consideration of  12 degrees of freedom as
           vibrations may cause significant error
 Vibrational temperatures:    140.08   160.08   304.81   359.58   396.39
          (Kelvin)            460.96   544.93   634.68   684.63   758.53
                              830.44   871.62   958.96   990.67  1093.11
                             1160.01  1177.33  1231.36  1298.20  1320.72
                             1378.34  1387.61  1399.91  1413.57  1449.73
                             1520.87  1664.22  1747.31  1797.69  1808.44
                             1855.97  1898.13  2026.10  2058.50  2078.15
                             2087.32  2133.94  2282.77  2337.05  2403.46
                             2491.93  2515.24  4472.73  4491.39  4554.18
                             4562.49  4592.33  4595.57

 Zero-point correction=                           0.133611 (Hartree/Particle)
 Thermal correction to Energy=                    0.142164
 Thermal correction to Enthalpy=                  0.143108
 Thermal correction to Gibbs Free Energy=         0.099764
 Sum of electronic and zero-point Energies=           -527.306880
 Sum of electronic and thermal Energies=              -527.298327
 Sum of electronic and thermal Enthalpies=            -527.297383
 Sum of electronic and thermal Free Energies=         -527.340727

                     E (Thermal)             CV                S
                      KCal/Mol        Cal/Mol-Kelvin    Cal/Mol-Kelvin
 Total                   89.209             33.613             91.225
 Electronic               0.000              0.000              0.000
 Translational            0.889              2.981             41.083
 Rotational               0.889              2.981             30.007
 Vibrational             87.432             27.651             20.136
 Vibration     1          0.603              1.951              3.507
 Vibration     2          0.607              1.940              3.247
 Vibration     3          0.643              1.823              2.028
 Vibration     4          0.663              1.763              1.731
 Vibration     5          0.677              1.719              1.561
 Vibration     6          0.706              1.635              1.308
 Vibration     7          0.749              1.515              1.044
 Vibration     8          0.801              1.380              0.823
 Vibration     9          0.832              1.304              0.721
 Vibration    10          0.882              1.190              0.593
 Vibration    11          0.934              1.081              0.491
 Vibration    12          0.964              1.019              0.440

 Optimization completed.
    -- Stationary point found.
 Normal termination of Gaussian 16 at Wed Dec  9 17:52:04 2020.

 ----------------------------------------------------------------------
 # B3LYP/6-311++G(d,p) empiricaldispersion=gd3bj scf=xqc pop=npa geom=c
 heck
 ----------------------------------------------------------------------

 ---------------------------------------
 CID_142669464_JID_2666_Energie_neutraal
 ---------------------------------------
 Structure from the checkpoint file:  "JID_2666.chk"
 Charge =  0 Multiplicity = 1

 SCF Done:  E(RB3LYP) =  -527.574884660     A.U. after   15 cycles
 Normal termination of Gaussian 16 at Wed Dec  9 17:53:49 2020.

 ----------------------------------------------------------------------
 # B3LYP/6-311++G(d,p) empiricaldispersion=gd3bj scf=xqc pop=npa geom=c
 heck
 ----------------------------------------------------------------------

 -------------------------------------
 CID_142669464_JID_2666_Energie_kation
 -------------------------------------
 Structure from the checkpoint file:  "JID_2666.chk"
 Charge =  1 Multiplicity = 2

 SCF Done:  E(UB3LYP) =  -527.247365129     A.U. after   30 cycles
 Normal termination of Gaussian 16 at Wed Dec  9 17:58:23 2020.
 Gaussian 16:  ES64L-G16RevA.03 25-Dec-2016

 ----------------------------------------------------------------------
 # B3LYP/6-311++G(d,p) empiricaldispersion=gd3bj scf=xqc pop=npa geom=c
 heck
 ----------------------------------------------------------------------

 ------------------------------------
 CID_142669464_JID_2666_Energie_anion
 ------------------------------------
 Structure from the checkpoint file:  "JID_2666.chk"
 Charge = -1 Multiplicity = 2

                         Standard orientation:
 ---------------------------------------------------------------------
 Center     Atomic      Atomic             Coordinates (Angstroms)
 Number     Number       Type             X           Y           Z
 ---------------------------------------------------------------------
      1          6           0       -2.248716   -0.699026    0.798536
      2          6           0       -2.210332    0.645757    0.860616
      3          7           0       -1.836213    1.524913   -0.153759
      4          6           0       -0.682259    1.548280   -0.698319
      5          6           0        0.489266    0.715539   -0.342627
      6          6           0        1.708508    1.306074   -0.006217
      7          7           0        2.775382    0.608769    0.396489
      8          6           0        2.600125   -0.717790    0.440681
      9          7           0        1.519257   -1.405699    0.072812
     10          6           0        0.459074   -0.692520   -0.329818
     11          7           0       -0.593148   -1.438198   -0.875176
     12          6           0       -1.758775   -1.469203   -0.356367
     13          1           0       -2.790276   -1.242564    1.569028
     14          1           0       -2.664994    1.154123    1.709281
     15          1           0       -0.532030    2.298258   -1.479595
     16          1           0        1.820267    2.389333   -0.044165
     17          1           0        3.443633   -1.304836    0.797733
     18          1           0       -2.474904   -2.145473   -0.833755
 ---------------------------------------------------------------------

 SCF Done:  E(UB3LYP) =  -527.601213679     A.U. after   24 cycles

 The electronic state is 2-A.
 Alpha  occ. eigenvalues --  -14.16886 -14.16760 -14.15400 -14.15236 -10.09078
 Alpha  occ. eigenvalues --  -10.08952 -10.08036 -10.06228 -10.05625 -10.05217
 Alpha  occ. eigenvalues --  -10.04000 -10.01815  -0.84678  -0.79222  -0.77471
 Alpha  occ. eigenvalues --   -0.73164  -0.65850  -0.61098  -0.55449  -0.51907
 Alpha  occ. eigenvalues --   -0.48772  -0.45424  -0.39896  -0.38406  -0.36196
 Alpha  occ. eigenvalues --   -0.34410  -0.32165  -0.31375  -0.30028  -0.28057
 Alpha  occ. eigenvalues --   -0.27127  -0.26221  -0.20245  -0.19746  -0.17269
 Alpha  occ. eigenvalues --   -0.16448  -0.15238  -0.13493  -0.11580  -0.10172
 Alpha  occ. eigenvalues --   -0.08239   0.03746
 Alpha virt. eigenvalues --    0.08749   0.09836   0.10277   0.10800   0.11242
 Alpha virt. eigenvalues --    0.11875   0.12554   0.12931   0.14064   0.15789
 Alpha virt. eigenvalues --    0.15953   0.16530   0.17286   0.17953   0.18555

  Beta  occ. eigenvalues --  -14.16824 -14.16813 -14.15158 -14.14981 -10.08823
  Beta  occ. eigenvalues --  -10.08811 -10.08048 -10.06021 -10.05299 -10.05041
  Beta  occ. eigenvalues --  -10.03945 -10.01723  -0.84460  -0.78706  -0.76892
  Beta  occ. eigenvalues --   -0.72978  -0.65419  -0.60767  -0.54731  -0.51689
  Beta  occ. eigenvalues --   -0.48332  -0.45017  -0.39515  -0.38192  -0.35864
  Beta  occ. eigenvalues --   -0.34096  -0.31896  -0.30936  -0.29594  -0.27890
  Beta  occ. eigenvalues --   -0.26825  -0.25768  -0.19386  -0.18772  -0.16748
  Beta  occ. eigenvalues --   -0.15503  -0.14475  -0.12850  -0.11143  -0.09594
  Beta  occ. eigenvalues --   -0.07731
  Beta virt. eigenvalues --    0.09106   0.09672   0.09989   0.10279   0.10818
  Beta virt. eigenvalues --    0.11339   0.12574   0.12922   0.13093   0.15240
  Beta virt. eigenvalues --    0.15956   0.16039   0.16694   0.17656   0.17960

 Mulliken charges and spin densities:
               1          2
     1  C    0.068415   0.075396
     2  C   -0.440053   0.106136
     3  N   -0.047045   0.098002
     4  C   -0.828205   0.227840
     5  C    0.770879   0.039596
     6  C   -0.281087  -0.007851
     7  N   -0.168265   0.027008
     8  C   -0.053445   0.103180
     9  N   -0.109351  -0.034678
    10  C   -0.431524   0.122020
    11  N    0.032758   0.084899
    12  C   -0.369005   0.191658
    13  H    0.125727  -0.000697
    14  H    0.119445  -0.007748
    15  H    0.147507  -0.016687
    16  H    0.155736   0.005511
    17  H    0.155997  -0.005778
    18  H    0.151514  -0.007807
 Sum of Mulliken charges =  -1.00000   1.00000

 Dipole moment (field-independent basis, Debye):
    X=             -0.1358    Y=              0.9042    Z=              0.8026  Tot=              1.2167
 Quadrupole moment (field-independent basis, Debye-Ang):
   XX=            -97.6433   YY=            -87.2051   ZZ=            -76.6184
   XY=              4.1098   XZ=             -3.4434   YZ=             -2.5217

 Summary of Natural Population Analysis:

                                       Natural Population
                Natural  -----------------------------------------------
    Atom  No    Charge         Core      Valence    Rydberg      Total
 -----------------------------------------------------------------------
      C    1   -0.16238      0.99952     2.15292    0.00994     3.16238
      C    2    0.04001      0.99950     1.94673    0.01376     2.95999
      N    3   -0.20562      0.99966     2.69207    0.01389     3.70562
      C    4    0.11973      0.99960     1.86433    0.01635     2.88027
      C    5   -0.08985      0.99944     2.08126    0.00915     3.08985
      C    6    0.04152      0.99956     1.94401    0.01491     2.95848
      N    7   -0.26410      0.99972     2.75191    0.01247     3.76410
      C    8    0.15791      0.99967     1.82254    0.01987     2.84209
      N    9   -0.26324      0.99967     2.75313    0.01044     3.76324
      C   10    0.24978      0.99945     1.73311    0.01767     2.75022
      N   11   -0.20290      0.99963     2.68705    0.01622     3.70290
      C   12    0.10357      0.99961     1.88174    0.01509     2.89643
      H   13    0.09350      0.00000     0.40515    0.00135     0.40650
      H   14    0.08234      0.00000     0.41630    0.00136     0.41766
      H   15    0.07288      0.00000     0.42561    0.00151     0.42712
      H   16    0.08355      0.00000     0.41477    0.00168     0.41645
      H   17    0.07189      0.00000     0.42678    0.00132     0.42811
      H   18    0.07141      0.00000     0.42690    0.00168     0.42859
 =======================================================================
   * Total *    0.00000     11.99503    28.82632    0.17865    41.00000

 Normal termination of Gaussian 16 at Wed Dec  9 18:01:18 2020.
