 Gaussian 16, Revision A.03,

 -----------------------------------------------------------
 # opt freq B3LYP/6-31G(d) empiricaldispersion=gd3bj scf=xqc
 -----------------------------------------------------------

 -------------------------------
 CID_116810694_JID_8101_neutraal
 -------------------------------
 Symbolic Z-matrix:
 Charge =  0 Multiplicity = 1

 SCF Done:  E(RB3LYP) =  -807.907808179     A.U. after   13 cycles
 SCF Done:  E(RB3LYP) =  -807.913821303     A.U. after   12 cycles
 SCF Done:  E(RB3LYP) =  -807.915442623     A.U. after   11 cycles
 SCF Done:  E(RB3LYP) =  -807.916773741     A.U. after   12 cycles
 SCF Done:  E(RB3LYP) =  -807.917718161     A.U. after   13 cycles
 SCF Done:  E(RB3LYP) =  -807.918858846     A.U. after   12 cycles
 SCF Done:  E(RB3LYP) =  -807.919877903     A.U. after   11 cycles
 SCF Done:  E(RB3LYP) =  -807.920143529     A.U. after   12 cycles
 SCF Done:  E(RB3LYP) =  -807.920422168     A.U. after   12 cycles
 SCF Done:  E(RB3LYP) =  -807.920579718     A.U. after   11 cycles
 SCF Done:  E(RB3LYP) =  -807.920688870     A.U. after    9 cycles
 SCF Done:  E(RB3LYP) =  -807.920689710     A.U. after    7 cycles
 SCF Done:  E(RB3LYP) =  -807.920690075     A.U. after    7 cycles
 SCF Done:  E(RB3LYP) =  -807.920690127     A.U. after    7 cycles
 SCF Done:  E(RB3LYP) =  -807.920690156     A.U. after    7 cycles
 Optimization completed.
    -- Stationary point found.
 Normal termination of Gaussian 16 at Fri Dec 11 18:53:50 2020.

 --------------------------------------------------------------------
 #N Geom=AllCheck Guess=TCheck SCRF=Check GenChk RB3LYP/6-31G(d) Freq
 --------------------------------------------------------------------

 Structure from the checkpoint file:  "JID_8101.chk"
 -------------------------------
 CID_116810694_JID_8101_neutraal
 -------------------------------
 Charge =  0 Multiplicity = 1

 SCF Done:  E(RB3LYP) =  -807.920690156     A.U. after    1 cycles

  Exact polarizability: 185.430  -8.856 186.522 -14.786  -3.555 134.729
 Approx polarizability: 252.381 -12.433 279.051 -34.468 -10.034 193.704

                      1                      2                      3
                      A                      A                      A
 Frequencies --     18.8297                34.4067                53.8406
 Red. masses --      3.1185                 3.3472                 3.8658
 Frc consts  --      0.0007                 0.0023                 0.0066
 IR Inten    --      0.1486                 0.0326                 1.5424

                      4                      5                      6
                      A                      A                      A
 Frequencies --     55.3054                59.6022                86.7655
 Red. masses --      3.0006                 2.8558                 2.8518
 Frc consts  --      0.0054                 0.0060                 0.0126
 IR Inten    --      2.2641                 0.8236                 0.4072

                      7                      8                      9
                      A                      A                      A
 Frequencies --     94.7895               123.2652               131.6761
 Red. masses --      3.6530                 2.5662                 3.3485
 Frc consts  --      0.0193                 0.0230                 0.0342
 IR Inten    --      0.2118                 3.6438                 1.9527

                     10                     11                     12
                      A                      A                      A
 Frequencies --    177.3591               191.5020               195.8786
 Red. masses --      2.4618                 2.4881                 1.7792
 Frc consts  --      0.0456                 0.0538                 0.0402
 IR Inten    --      0.1803                 0.2444                 1.5974

                     13                     14                     15
                      A                      A                      A
 Frequencies --    202.4328               230.0054               252.2883
 Red. masses --      1.8111                 2.6827                 1.2453
 Frc consts  --      0.0437                 0.0836                 0.0467
 IR Inten    --      0.0610                 1.9604                 1.8240

                     16                     17                     18
                      A                      A                      A
 Frequencies --    261.1585               266.7627               272.1881
 Red. masses --      1.3843                 1.0845                 1.5455
 Frc consts  --      0.0556                 0.0455                 0.0675
 IR Inten    --      0.6267                 0.2631                 1.2347

                     19                     20                     21
                      A                      A                      A
 Frequencies --    276.5608               300.0479               323.6928
 Red. masses --      2.4443                 1.5255                 3.2208
 Frc consts  --      0.1101                 0.0809                 0.1988
 IR Inten    --      1.0110                 0.0172                 2.6363

                     22                     23                     24
                      A                      A                      A
 Frequencies --    354.7042               376.7649               395.0696
 Red. masses --      4.1378                 4.5838                 2.5028
 Frc consts  --      0.3067                 0.3834                 0.2302
 IR Inten    --      2.1969                 0.6880                 7.9355

                     25                     26                     27
                      A                      A                      A
 Frequencies --    419.9242               434.0469               451.0894
 Red. masses --      2.7291                 2.5866                 2.8159
 Frc consts  --      0.2835                 0.2871                 0.3376
 IR Inten    --      0.4407                 0.9187                 0.6328

                     28                     29                     30
                      A                      A                      A
 Frequencies --    509.1912               544.8177               568.4790
 Red. masses --      4.6634                 4.5999                 4.5234
 Frc consts  --      0.7124                 0.8045                 0.8613
 IR Inten    --      2.3922                 5.0805                 2.6977

                     31                     32                     33
                      A                      A                      A
 Frequencies --    605.0624               625.9960               634.4863
 Red. masses --      3.5559                 4.5946                 3.8165
 Frc consts  --      0.7670                 1.0608                 0.9052
 IR Inten    --     21.0717                 0.3324                 6.3999

                     34                     35                     36
                      A                      A                      A
 Frequencies --    717.9561               737.0149               765.8077
 Red. masses --      4.2660                 1.6460                 1.6672
 Frc consts  --      1.2956                 0.5268                 0.5761
 IR Inten    --     12.8298                13.1391                12.0021

                     37                     38                     39
                      A                      A                      A
 Frequencies --    778.7820               802.8863               839.2595
 Red. masses --      3.0442                 2.1121                 1.4410
 Frc consts  --      1.0878                 0.8022                 0.5980
 IR Inten    --     42.3148                14.1105                 0.0926

                     40                     41                     42
                      A                      A                      A
 Frequencies --    845.9362               887.6503               933.6768
 Red. masses --      2.7847                 2.6635                 4.7463
 Frc consts  --      1.1741                 1.2365                 2.4378
 IR Inten    --     67.8501                65.1414                 1.0084

                     43                     44                     45
                      A                      A                      A
 Frequencies --    942.3100               953.5606              1032.6052
 Red. masses --      1.2379                 1.4994                 2.8486
 Frc consts  --      0.6476                 0.8033                 1.7896
 IR Inten    --      0.1271                18.6298                22.2505

                     46                     47                     48
                      A                      A                      A
 Frequencies --   1063.4945              1071.2547              1082.7508
 Red. masses --      1.9317                 2.5497                 2.2074
 Frc consts  --      1.2873                 1.7240                 1.5247
 IR Inten    --      9.5640                34.2784                12.4876

                     49                     50                     51
                      A                      A                      A
 Frequencies --   1083.8312              1091.7030              1126.2296
 Red. masses --      1.8444                 7.6512                 2.4558
 Frc consts  --      1.2765                 5.3726                 1.8353
 IR Inten    --     11.2797                19.3105                 5.7550

                     52                     53                     54
                      A                      A                      A
 Frequencies --   1134.6090              1147.0905              1153.5912
 Red. masses --      1.2859                 1.4762                 3.0192
 Frc consts  --      0.9753                 1.1445                 2.3673
 IR Inten    --     10.9606                17.4310               127.6287

                     55                     56                     57
                      A                      A                      A
 Frequencies --   1158.0866              1177.7267              1186.1692
 Red. masses --      3.2658                 1.5173                 1.2718
 Frc consts  --      2.5806                 1.2399                 1.0543
 IR Inten    --    120.0077                42.0809                 1.5613

                     58                     59                     60
                      A                      A                      A
 Frequencies --   1186.4920              1195.4901              1198.7362
 Red. masses --      1.2724                 2.2487                 1.4764
 Frc consts  --      1.0553                 1.8936                 1.2500
 IR Inten    --      0.6379                35.1310                13.3263

                     61                     62                     63
                      A                      A                      A
 Frequencies --   1208.7793              1225.0902              1226.1864
 Red. masses --      1.4440                 1.3387                 1.3846
 Frc consts  --      1.2431                 1.1838                 1.2265
 IR Inten    --     22.6736                 1.8770                 6.2169

                     64                     65                     66
                      A                      A                      A
 Frequencies --   1248.9720              1277.9127              1303.8367
 Red. masses --      2.2856                 1.8582                 1.5702
 Frc consts  --      2.1006                 1.7879                 1.5727
 IR Inten    --     77.1815               144.1776                61.6435

                     67                     68                     69
                      A                      A                      A
 Frequencies --   1323.0485              1325.4804              1329.0706
 Red. masses --      3.9090                 1.5059                 2.4857
 Frc consts  --      4.0315                 1.5588                 2.5870
 IR Inten    --     13.9914                 0.3219                15.7188

                     70                     71                     72
                      A                      A                      A
 Frequencies --   1352.5731              1380.8607              1391.7130
 Red. masses --      2.8658                 1.3879                 1.3113
 Frc consts  --      3.0890                 1.5592                 1.4964
 IR Inten    --      6.9650                17.7321                 0.5901

                     73                     74                     75
                      A                      A                      A
 Frequencies --   1408.7885              1417.9457              1466.9370
 Red. masses --      1.5862                 1.4276                 1.1558
 Frc consts  --      1.8548                 1.6911                 1.4654
 IR Inten    --     45.3764                22.9981                 0.6379

                     76                     77                     78
                      A                      A                      A
 Frequencies --   1480.2988              1490.4795              1491.0765
 Red. masses --      1.1814                 1.2941                 1.1431
 Frc consts  --      1.5253                 1.6938                 1.4974
 IR Inten    --      8.4922                68.4608                 1.0148

                     79                     80                     81
                      A                      A                      A
 Frequencies --   1500.8744              1506.9188              1510.3173
 Red. masses --      1.3767                 1.0515                 1.1323
 Frc consts  --      1.8272                 1.4068                 1.5218
 IR Inten    --      1.0656                 8.3202                12.6385

                     82                     83                     84
                      A                      A                      A
 Frequencies --   1516.7600              1518.8919              1520.6865
 Red. masses --      1.2746                 1.5397                 1.0548
 Frc consts  --      1.7276                 2.0928                 1.4371
 IR Inten    --      8.2646                 2.5422                 4.5388

                     85                     86                     87
                      A                      A                      A
 Frequencies --   1521.4512              1521.5874              1524.2449
 Red. masses --      1.0610                 1.0975                 1.2856
 Frc consts  --      1.4471                 1.4970                 1.7599
 IR Inten    --      5.8349                13.2268                42.4052

                     88                     89                     90
                      A                      A                      A
 Frequencies --   1528.4801              1534.8858              1537.2384
 Red. masses --      1.3774                 1.0887                 1.0597
 Frc consts  --      1.8959                 1.5112                 1.4754
 IR Inten    --     65.6914                10.3560                 9.6504

                     91                     92                     93
                      A                      A                      A
 Frequencies --   1538.5246              1541.3147              1550.9727
 Red. masses --      1.1190                 1.1549                 1.0534
 Frc consts  --      1.5606                 1.6165                 1.4930
 IR Inten    --      2.2368                 0.6118                10.6488

                     94                     95                     96
                      A                      A                      A
 Frequencies --   1552.5153              1647.0377              1654.1081
 Red. masses --      1.0755                 6.1080                 6.4078
 Frc consts  --      1.5273                 9.7625                10.3296
 IR Inten    --      8.5375                36.7236               103.8116

                     97                     98                     99
                      A                      A                      A
 Frequencies --   2934.2957              2943.9405              2970.2007
 Red. masses --      1.0609                 1.0626                 1.0576
 Frc consts  --      5.3817                 5.4262                 5.4975
 IR Inten    --     39.1813               114.2131                77.8453

                    100                    101                    102
                      A                      A                      A
 Frequencies --   3025.8963              3029.6285              3030.6161
 Red. masses --      1.0346                 1.0691                 1.0342
 Frc consts  --      5.5811                 5.7818                 5.5966
 IR Inten    --     64.8257                35.6052                53.6118

                    103                    104                    105
                      A                      A                      A
 Frequencies --   3058.5580              3061.1637              3063.9607
 Red. masses --      1.0614                 1.0708                 1.0697
 Frc consts  --      5.8499                 5.9122                 5.9167
 IR Inten    --     29.4306                26.3869                82.5022

                    106                    107                    108
                      A                      A                      A
 Frequencies --   3070.4887              3084.8825              3087.0435
 Red. masses --      1.0754                 1.1066                 1.0878
 Frc consts  --      5.9736                 6.2048                 6.1078
 IR Inten    --     51.1483                41.2238                 4.4104

                    109                    110                    111
                      A                      A                      A
 Frequencies --   3091.6399              3100.9902              3107.7736
 Red. masses --      1.1068                 1.0907                 1.1029
 Frc consts  --      6.2329                 6.1795                 6.2760
 IR Inten    --     36.4896                13.4994                14.6543

                    112                    113                    114
                      A                      A                      A
 Frequencies --   3112.2718              3113.5896              3116.9027
 Red. masses --      1.1025                 1.1029                 1.1004
 Frc consts  --      6.2922                 6.2993                 6.2984
 IR Inten    --     45.1583                26.3949                57.7332

                    115                    116                    117
                      A                      A                      A
 Frequencies --   3156.7375              3158.1156              3193.8913
 Red. masses --      1.0999                 1.1005                 1.0885
 Frc consts  --      6.4574                 6.4671                 6.5422
 IR Inten    --     24.2156                21.2000                12.0127

                    118                    119                    120
                      A                      A                      A
 Frequencies --   3234.5418              3238.3610              3522.4327
 Red. masses --      1.0899                 1.0929                 1.0726
 Frc consts  --      6.7186                 6.7525                 7.8413
 IR Inten    --     15.6866                 8.7538                 4.9775

 - Thermochemistry -
 -------------------
 Temperature   298.150 Kelvin.  Pressure   1.00000 Atm.
 Atom     1 has atomic number  6 and mass  12.00000

 Molecular mass:   252.18378 amu.
 Principal axes and moments of inertia in atomic units:
                           1         2         3
     Eigenvalues --  3622.295146622.761167961.37348
           X            0.99990  -0.00879   0.01067
           Y            0.00876   0.99996   0.00315
           Z           -0.01070  -0.00305   0.99994
 This molecule is an asymmetric top.
 Rotational symmetry number  1.
 Warning -- assumption of classical behavior for rotation
           may cause significant error
 Rotational temperatures (Kelvin)      0.02391     0.01308     0.01088
 Rotational constants (GHZ):           0.49823     0.27251     0.22669
 Zero-point vibrational energy     977387.8 (Joules/Mol)
                                  233.60128 (Kcal/Mol)
 Warning -- explicit consideration of  31 degrees of freedom as
           vibrations may cause significant error
 Vibrational temperatures:     27.09    49.50    77.46    79.57    85.75
          (Kelvin)            124.84   136.38   177.35   189.45   255.18
                              275.53   281.83   291.26   330.93   362.99
                              375.75   383.81   391.62   397.91   431.70
                              465.72   510.34   542.08   568.42   604.18
                              624.50   649.02   732.61   783.87   817.91
                              870.55   900.67   912.88  1032.98  1060.40
                             1101.83  1120.49  1155.17  1207.51  1217.11
                             1277.13  1343.35  1355.77  1371.96  1485.69
                             1530.13  1541.30  1557.84  1559.39  1570.72
                             1620.39  1632.45  1650.41  1659.76  1666.23
                             1694.49  1706.63  1707.10  1720.04  1724.71
                             1739.16  1762.63  1764.21  1796.99  1838.63
                             1875.93  1903.57  1907.07  1912.24  1946.05
                             1986.75  2002.36  2026.93  2040.11  2110.60
                             2129.82  2144.47  2145.33  2159.42  2168.12
                             2173.01  2182.28  2185.35  2187.93  2189.03
                             2189.22  2193.05  2199.14  2208.36  2211.74
                             2213.59  2217.61  2231.50  2233.72  2369.72
                             2379.89  4221.80  4235.67  4273.46  4353.59
                             4358.96  4360.38  4400.58  4404.33  4408.36
                             4417.75  4438.46  4441.57  4448.18  4461.63
                             4471.39  4477.86  4479.76  4484.53  4541.84
                             4543.82  4595.30  4653.78  4659.28  5067.99

 Zero-point correction=                           0.372267 (Hartree/Particle)
 Thermal correction to Energy=                    0.392415
 Thermal correction to Enthalpy=                  0.393359
 Thermal correction to Gibbs Free Energy=         0.322469
 Sum of electronic and zero-point Energies=           -807.548423
 Sum of electronic and thermal Energies=              -807.528275
 Sum of electronic and thermal Enthalpies=            -807.527331
 Sum of electronic and thermal Free Energies=         -807.598221

                     E (Thermal)             CV                S
                      KCal/Mol        Cal/Mol-Kelvin    Cal/Mol-Kelvin
 Total                  246.244             74.231            149.200
 Electronic               0.000              0.000              0.000
 Translational            0.889              2.981             42.475
 Rotational               0.889              2.981             33.612
 Vibrational            244.467             68.269             73.113
 Vibration     1          0.593              1.986              6.754
 Vibration     2          0.594              1.983              5.558
 Vibration     3          0.596              1.976              4.671
 Vibration     4          0.596              1.975              4.618
 Vibration     5          0.597              1.974              4.470
 Vibration     6          0.601              1.958              3.732
 Vibration     7          0.603              1.953              3.559
 Vibration     8          0.610              1.930              3.049
 Vibration     9          0.612              1.922              2.921
 Vibration    10          0.628              1.870              2.356
 Vibration    11          0.634              1.852              2.213
 Vibration    12          0.636              1.846              2.171
 Vibration    13          0.639              1.836              2.111
 Vibration    14          0.652              1.795              1.879
 Vibration    15          0.664              1.759              1.715
 Vibration    16          0.669              1.744              1.654
 Vibration    17          0.672              1.734              1.617
 Vibration    18          0.675              1.725              1.582
 Vibration    19          0.678              1.717              1.555
 Vibration    20          0.693              1.674              1.417
 Vibration    21          0.708              1.628              1.291
 Vibration    22          0.731              1.566              1.145
 Vibration    23          0.747              1.520              1.052
 Vibration    24          0.762              1.481              0.981
 Vibration    25          0.783              1.427              0.892
 Vibration    26          0.795              1.396              0.846
 Vibration    27          0.810              1.358              0.792
 Vibration    28          0.864              1.230              0.636
 Vibration    29          0.900              1.151              0.555
 Vibration    30          0.924              1.099              0.507
 Vibration    31          0.964              1.021              0.441

 Optimization completed.
    -- Stationary point found.
 Normal termination of Gaussian 16 at Fri Dec 11 19:15:55 2020.

 ----------------------------------------------------------------------
 # B3LYP/6-311++G(d,p) empiricaldispersion=gd3bj scf=xqc pop=npa geom=c
 heck
 ----------------------------------------------------------------------

 ---------------------------------------
 CID_116810694_JID_8101_Energie_neutraal
 ---------------------------------------
 Structure from the checkpoint file:  "JID_8101.chk"
 Charge =  0 Multiplicity = 1

 SCF Done:  E(RB3LYP) =  -808.147643220     A.U. after   14 cycles
 Normal termination of Gaussian 16 at Fri Dec 11 19:25:53 2020.

 ----------------------------------------------------------------------
 # B3LYP/6-311++G(d,p) empiricaldispersion=gd3bj scf=xqc pop=npa geom=c
 heck
 ----------------------------------------------------------------------

 -------------------------------------
 CID_116810694_JID_8101_Energie_kation
 -------------------------------------
 Structure from the checkpoint file:  "JID_8101.chk"
 Charge =  1 Multiplicity = 2

 SCF Done:  E(UB3LYP) =  -807.886248423     A.U. after   33 cycles
 SCF Done:  E(UB3LYP) =  -807.886788152     a.u. after    5 cycles
 Normal termination of Gaussian 16 at Fri Dec 11 21:32:49 2020.
 Gaussian 16:  ES64L-G16RevA.03 25-Dec-2016

 ----------------------------------------------------------------------
 # B3LYP/6-311++G(d,p) empiricaldispersion=gd3bj scf=xqc pop=npa geom=c
 heck
 ----------------------------------------------------------------------

 ------------------------------------
 CID_116810694_JID_8101_Energie_anion
 ------------------------------------
 Structure from the checkpoint file:  "JID_8101.chk"
 Charge = -1 Multiplicity = 2

                         Standard orientation:
 ---------------------------------------------------------------------
 Center     Atomic      Atomic             Coordinates (Angstroms)
 Number     Number       Type             X           Y           Z
 ---------------------------------------------------------------------
      1          6           0        0.515225    0.177473    3.023545
      2          7           0       -0.499407    0.407573    2.002698
      3          6           0       -0.267702   -0.350669    0.767389
      4          6           0       -1.478526   -0.215033   -0.172946
      5          6           0       -2.757882   -0.796649    0.453412
      6          7           0       -3.996050   -0.631889   -0.307238
      7          6           0       -3.984386   -1.293622   -1.599426
      8          6           0       -4.440643    0.746590   -0.405415
      9          6           0        1.039503   -0.010160    0.048509
     10          6           0        1.362348    1.306289   -0.323681
     11          6           0        2.564581    1.616827   -0.969298
     12          6           0        3.462738    0.591330   -1.252481
     13          6           0        3.181675   -0.725929   -0.904562
     14          6           0        1.972595   -1.016303   -0.258142
     15          8           0        1.613893   -2.285875    0.109885
     16          6           0        2.523407   -3.342048   -0.138655
     17          8           0        0.422692    2.259186   -0.009010
     18          6           0        0.669505    3.603054   -0.385795
     19          1           0        1.547243    0.409283    2.705363
     20          1           0        0.491781   -0.876389    3.325346
     21          1           0        0.283797    0.783498    3.906033
     22          1           0       -0.515684    1.396044    1.763972
     23          1           0       -0.197590   -1.400575    1.066057
     24          1           0       -1.619357    0.842222   -0.422868
     25          1           0       -1.243799   -0.733092   -1.110372
     26          1           0       -2.612627   -1.873372    0.620039
     27          1           0       -2.899771   -0.341711    1.438432
     28          1           0       -4.996934   -1.290304   -2.020822
     29          1           0       -3.312751   -0.824544   -2.344254
     30          1           0       -3.671942   -2.336519   -1.474119
     31          1           0       -4.467727    1.194252    0.594033
     32          1           0       -3.803678    1.385638   -1.047728
     33          1           0       -5.455919    0.773924   -0.819301
     34          1           0        2.803209    2.634763   -1.249755
     35          1           0        4.397627    0.823888   -1.754289
     36          1           0        3.893806   -1.507604   -1.136625
     37          1           0        3.477011   -3.184625    0.382135
     38          1           0        2.045335   -4.244123    0.247273
     39          1           0        2.716339   -3.464899   -1.212459
     40          1           0       -0.203258    4.169711   -0.056831
     41          1           0        1.567590    4.000663    0.104067
     42          1           0        0.778197    3.700696   -1.473273
 ---------------------------------------------------------------------

 SCF Done:  E(UB3LYP) =  -808.136285713     A.U. after   31 cycles

 The electronic state is 2-A.
 Alpha  occ. eigenvalues --  -19.06476 -19.06291 -14.21515 -14.19713 -10.14391
 Alpha  occ. eigenvalues --  -10.14359 -10.13125 -10.12960 -10.10507 -10.10204
 Alpha  occ. eigenvalues --  -10.10000 -10.09311 -10.09139 -10.08479 -10.08043
 Alpha  occ. eigenvalues --  -10.07493 -10.07485 -10.06536  -0.98056  -0.97864
 Alpha  occ. eigenvalues --   -0.83404  -0.81175  -0.76034  -0.68951  -0.66503
 Alpha  occ. eigenvalues --   -0.66287  -0.62108  -0.61489  -0.61049  -0.59147
 Alpha  occ. eigenvalues --   -0.55896  -0.53474  -0.49924  -0.49354  -0.48137
 Alpha  occ. eigenvalues --   -0.45071  -0.41667  -0.39999  -0.39844  -0.39012
 Alpha  occ. eigenvalues --   -0.38872  -0.38350  -0.37747  -0.37313  -0.36031
 Alpha  occ. eigenvalues --   -0.35682  -0.35265  -0.33921  -0.32570  -0.31926
 Alpha  occ. eigenvalues --   -0.30952  -0.30612  -0.29587  -0.29104  -0.28657
 Alpha  occ. eigenvalues --   -0.28147  -0.27828  -0.27287  -0.26610  -0.25558
 Alpha  occ. eigenvalues --   -0.25404  -0.24860  -0.24246  -0.22477  -0.21773
 Alpha  occ. eigenvalues --   -0.14341  -0.13310  -0.12963  -0.12064   0.03862
 Alpha virt. eigenvalues --    0.05358   0.06056   0.07006   0.07608   0.07691
 Alpha virt. eigenvalues --    0.07977   0.08617   0.08918   0.09109   0.09646
 Alpha virt. eigenvalues --    0.09942   0.10164   0.10355   0.10544   0.11419

  Beta  occ. eigenvalues --  -19.06468 -19.06284 -14.21513 -14.19710 -10.14391
  Beta  occ. eigenvalues --  -10.14360 -10.13081 -10.12907 -10.10505 -10.10197
  Beta  occ. eigenvalues --  -10.09989 -10.09309 -10.09133 -10.08468 -10.08043
  Beta  occ. eigenvalues --  -10.07480 -10.07471 -10.06533  -0.98039  -0.97847
  Beta  occ. eigenvalues --   -0.83399  -0.81170  -0.76020  -0.68938  -0.66473
  Beta  occ. eigenvalues --   -0.66269  -0.62092  -0.61438  -0.61014  -0.59107
  Beta  occ. eigenvalues --   -0.55880  -0.53455  -0.49888  -0.49320  -0.48121
  Beta  occ. eigenvalues --   -0.45029  -0.41644  -0.39972  -0.39817  -0.39004
  Beta  occ. eigenvalues --   -0.38860  -0.38324  -0.37717  -0.37290  -0.36009
  Beta  occ. eigenvalues --   -0.35655  -0.35239  -0.33907  -0.32553  -0.31895
  Beta  occ. eigenvalues --   -0.30936  -0.30583  -0.29575  -0.29088  -0.28633
  Beta  occ. eigenvalues --   -0.28136  -0.27816  -0.27273  -0.26600  -0.25531
  Beta  occ. eigenvalues --   -0.25372  -0.24843  -0.24237  -0.22456  -0.21753
  Beta  occ. eigenvalues --   -0.14333  -0.13299  -0.12955  -0.12056
  Beta virt. eigenvalues --    0.05782   0.06357   0.06629   0.07309   0.07883
  Beta virt. eigenvalues --    0.08013   0.08137   0.08850   0.09155   0.09375
  Beta virt. eigenvalues --    0.09916   0.10252   0.10474   0.10615   0.10822

 Mulliken charges and spin densities:
               1          2
     1  C   -0.107548  -0.203141
     2  N    0.033820  -0.017405
     3  C   -0.675413   0.140262
     4  C   -0.653227  -0.024637
     5  C   -0.639703  -0.211829
     6  N    0.128731   0.036943
     7  C   -0.161460  -0.196068
     8  C   -0.071138  -0.251273
     9  C    0.653823   0.120892
    10  C   -0.180738   0.354945
    11  C   -0.276779   0.006270
    12  C    0.731997  -1.053386
    13  C    0.085217  -0.301761
    14  C   -0.598315   0.309415
    15  O   -0.146331   0.039420
    16  C    0.890433  -1.177591
    17  O   -0.158968   0.023091
    18  C    1.120495  -1.393240
    19  H    0.117139   0.010064
    20  H    0.066159   0.066956
    21  H    0.058523   0.079079
    22  H    0.247355   0.008376
    23  H    0.287276  -0.017209
    24  H    0.402411  -0.271049
    25  H    0.126585   0.046237
    26  H    0.137726   0.021344
    27  H    0.181076   0.024752
    28  H    0.075148   0.055271
    29  H    0.027521   0.087793
    30  H    0.056954   0.079138
    31  H    0.044905   0.085412
    32  H   -0.037820   0.158305
    33  H    0.048013   0.090692
    34  H   -0.111280   0.275805
    35  H   -0.594935   0.773289
    36  H   -0.097716   0.257395
    37  H   -0.253157   0.411233
    38  H   -0.317436   0.481995
    39  H   -0.283548   0.433869
    40  H   -0.511173   0.683790
    41  H   -0.359519   0.511927
    42  H   -0.285104   0.444630
 Sum of Mulliken charges =  -1.00000   1.00000

 Dipole moment (field-independent basis, Debye):
    X=             -4.5272    Y=             -1.7699    Z=              1.8725  Tot=              5.2090
 Quadrupole moment (field-independent basis, Debye-Ang):
   XX=           -186.9395   YY=           -187.6353   ZZ=           -147.4981
   XY=              5.5298   XZ=              8.2017   YZ=              3.3485

 Summary of Natural Population Analysis:

                                       Natural Population
                Natural  -----------------------------------------------
    Atom  No    Charge         Core      Valence    Rydberg      Total
 -----------------------------------------------------------------------
      C    1   -0.17885      0.99966     2.17227    0.00691     3.17885
      N    2   -0.34320      0.99974     2.83263    0.01083     3.84320
      C    3   -0.01707      0.99956     2.00306    0.01444     3.01707
      C    4   -0.20358      0.99960     2.19441    0.00957     3.20358
      C    5   -0.08152      0.99961     2.07177    0.01014     3.08152
      N    6   -0.27809      0.99974     2.76542    0.01293     3.77809
      C    7   -0.17697      0.99965     2.17038    0.00694     3.17697
      C    8   -0.17641      0.99965     2.16975    0.00701     3.17641
      C    9   -0.06285      0.99943     2.05123    0.01219     3.06285
      C   10    0.17081      0.99934     1.81686    0.01299     2.82919
      C   11   -0.15342      0.99952     2.14478    0.00912     3.15342
      C   12   -0.08232      0.99958     2.07271    0.01003     3.08232
      C   13   -0.15445      0.99952     2.14575    0.00918     3.15445
      C   14    0.17068      0.99935     1.81699    0.01299     2.82932
      O   15   -0.27647      0.99986     3.26729    0.00933     4.27647
      C   16   -0.09961      0.99960     2.09097    0.00904     3.09961
      O   17   -0.28304      0.99986     3.27305    0.01013     4.28304
      C   18   -0.09976      0.99960     2.09087    0.00929     3.09976
      H   19    0.08300      0.00000     0.41558    0.00142     0.41700
      H   20    0.08972      0.00000     0.40919    0.00108     0.41028
      H   21    0.09099      0.00000     0.40817    0.00084     0.40901
      H   22    0.17962      0.00000     0.31708    0.00330     0.32038
      H   23    0.10477      0.00000     0.39277    0.00246     0.39523
      H   24    0.10187      0.00000     0.39605    0.00208     0.39813
      H   25    0.09898      0.00000     0.39981    0.00121     0.40102
      H   26    0.08962      0.00000     0.40907    0.00131     0.41038
      H   27    0.10249      0.00000     0.39589    0.00161     0.39751
      H   28    0.09071      0.00000     0.40824    0.00104     0.40929
      H   29    0.08057      0.00000     0.41788    0.00156     0.41943
      H   30    0.09459      0.00000     0.40436    0.00105     0.40541
      H   31    0.09564      0.00000     0.40313    0.00123     0.40436
      H   32    0.08103      0.00000     0.41725    0.00173     0.41897
      H   33    0.09048      0.00000     0.40846    0.00106     0.40952
      H   34    0.10823      0.00000     0.39016    0.00161     0.39177
      H   35    0.10147      0.00000     0.39734    0.00119     0.39853
      H   36    0.10744      0.00000     0.39089    0.00167     0.39256
      H   37    0.08578      0.00000     0.41256    0.00167     0.41422
      H   38    0.09395      0.00000     0.40490    0.00115     0.40605
      H   39    0.08602      0.00000     0.41222    0.00176     0.41398
      H   40    0.09551      0.00000     0.40300    0.00150     0.40449
      H   41    0.08643      0.00000     0.41168    0.00190     0.41357
      H   42    0.08720      0.00000     0.41097    0.00183     0.41280
 =======================================================================
   * Total *    0.00000     17.99286    50.78682    0.22032    69.00000

 Normal termination of Gaussian 16 at Fri Dec 11 22:04:11 2020.
