 Gaussian 16, Revision A.03,

 -----------------------------------------------------------
 # opt freq B3LYP/6-31G(d) empiricaldispersion=gd3bj scf=xqc
 -----------------------------------------------------------

 ------------------------------
 CID_84066934_JID_4247_neutraal
 ------------------------------
 Symbolic Z-matrix:
 Charge =  0 Multiplicity = 1

 SCF Done:  E(RB3LYP) =  -617.225211131     A.U. after   14 cycles
 SCF Done:  E(RB3LYP) =  -617.227918012     A.U. after   11 cycles
 SCF Done:  E(RB3LYP) =  -617.220831311     A.U. after   12 cycles
 SCF Done:  E(RB3LYP) =  -617.227239009     A.U. after   12 cycles
 SCF Done:  E(RB3LYP) =  -617.228910659     A.U. after    9 cycles
 SCF Done:  E(RB3LYP) =  -617.229351782     A.U. after   11 cycles
 SCF Done:  E(RB3LYP) =  -617.229444486     A.U. after   10 cycles
 SCF Done:  E(RB3LYP) =  -617.229580359     A.U. after   10 cycles
 SCF Done:  E(RB3LYP) =  -617.229587146     A.U. after    9 cycles
 SCF Done:  E(RB3LYP) =  -617.229592034     A.U. after    9 cycles
 SCF Done:  E(RB3LYP) =  -617.229593616     A.U. after    8 cycles
 SCF Done:  E(RB3LYP) =  -617.229594203     A.U. after    7 cycles
 SCF Done:  E(RB3LYP) =  -617.229594463     A.U. after    7 cycles
 SCF Done:  E(RB3LYP) =  -617.229594527     A.U. after    7 cycles
 Optimization completed.
    -- Stationary point found.
 Normal termination of Gaussian 16 at Thu Dec 10 09:24:59 2020.

 --------------------------------------------------------------------
 #N Geom=AllCheck Guess=TCheck SCRF=Check GenChk RB3LYP/6-31G(d) Freq
 --------------------------------------------------------------------

 Structure from the checkpoint file:  "JID_4247.chk"
 ------------------------------
 CID_84066934_JID_4247_neutraal
 ------------------------------
 Charge =  0 Multiplicity = 1

 SCF Done:  E(RB3LYP) =  -617.229594527     A.U. after    1 cycles

  Exact polarizability: 143.300  -1.774 132.795  -5.232  -0.666 110.210
 Approx polarizability: 174.435  -3.409 200.529  -8.322  -4.535 170.718

                      1                      2                      3
                      A                      A                      A
 Frequencies --     42.4161                64.1698                84.9412
 Red. masses --      3.5125                 3.0831                 3.2347
 Frc consts  --      0.0037                 0.0075                 0.0138
 IR Inten    --      0.0970                 1.3492                 0.8754

                      4                      5                      6
                      A                      A                      A
 Frequencies --     89.8062               139.7717               182.2179
 Red. masses --      3.4928                 4.6138                 2.3656
 Frc consts  --      0.0166                 0.0531                 0.0463
 IR Inten    --      1.4275                 6.7609                 0.4395

                      7                      8                      9
                      A                      A                      A
 Frequencies --    201.1610               214.3954               226.2852
 Red. masses --      1.2639                 3.0083                 1.0651
 Frc consts  --      0.0301                 0.0815                 0.0321
 IR Inten    --      0.3398                 0.9982                 0.0215

                     10                     11                     12
                      A                      A                      A
 Frequencies --    252.2063               302.6620               327.6418
 Red. masses --      3.8632                 2.1579                 1.5294
 Frc consts  --      0.1448                 0.1165                 0.0967
 IR Inten    --      1.4857                 0.5273                 0.7813

                     13                     14                     15
                      A                      A                      A
 Frequencies --    345.1932               352.6283               371.9336
 Red. masses --      2.2613                 1.9508                 1.6588
 Frc consts  --      0.1588                 0.1429                 0.1352
 IR Inten    --      2.1554                 7.0090                 5.5455

                     16                     17                     18
                      A                      A                      A
 Frequencies --    382.3569               399.3097               436.3493
 Red. masses --      1.5158                 2.2337                 2.2748
 Frc consts  --      0.1306                 0.2098                 0.2552
 IR Inten    --     15.3170                 1.3110                 8.2693

                     19                     20                     21
                      A                      A                      A
 Frequencies --    461.5016               474.9426               482.0082
 Red. masses --      2.1358                 2.6359                 3.1398
 Frc consts  --      0.2680                 0.3503                 0.4298
 IR Inten    --      1.8850                 3.3202                 4.3127

                     22                     23                     24
                      A                      A                      A
 Frequencies --    503.8710               546.7191               589.5645
 Red. masses --      2.2843                 2.6942                 3.2158
 Frc consts  --      0.3417                 0.4745                 0.6586
 IR Inten    --      4.8704                 0.5003                 5.1646

                     25                     26                     27
                      A                      A                      A
 Frequencies --    596.1727               665.0301               733.4669
 Red. masses --      3.7700                 2.8524                 2.9288
 Frc consts  --      0.7895                 0.7433                 0.9283
 IR Inten    --     15.2490                 1.8755                 2.1358

                     28                     29                     30
                      A                      A                      A
 Frequencies --    825.9959               830.3064               874.7913
 Red. masses --      2.4341                 2.2103                 2.4000
 Frc consts  --      0.9785                 0.8978                 1.0821
 IR Inten    --      8.0649                 9.4856                11.6348

                     31                     32                     33
                      A                      A                      A
 Frequencies --    879.0278               914.8807               933.6134
 Red. masses --      1.6028                 1.9774                 1.9586
 Frc consts  --      0.7297                 0.9751                 1.0058
 IR Inten    --     11.3472                46.8823                65.6695

                     34                     35                     36
                      A                      A                      A
 Frequencies --    940.7448               947.0530               967.1953
 Red. masses --      1.3101                 1.5973                 2.6700
 Frc consts  --      0.6831                 0.8441                 1.4716
 IR Inten    --      7.0432                 3.1527                 1.7409

                     37                     38                     39
                      A                      A                      A
 Frequencies --    979.2123              1016.1554              1022.8432
 Red. masses --      1.4610                 1.7113                 2.2618
 Frc consts  --      0.8254                 1.0411                 1.3942
 IR Inten    --      3.8873                28.7553                55.0323

                     40                     41                     42
                      A                      A                      A
 Frequencies --   1033.3414              1062.7161              1082.9512
 Red. masses --      1.9189                 1.7024                 1.7552
 Frc consts  --      1.2072                 1.1328                 1.2128
 IR Inten    --      6.0023                 3.9707                 9.4530

                     43                     44                     45
                      A                      A                      A
 Frequencies --   1095.3894              1097.5304              1122.6710
 Red. masses --      1.2894                 2.4692                 1.8676
 Frc consts  --      0.9116                 1.7525                 1.3869
 IR Inten    --      4.3594                 5.3582                 5.5758

                     46                     47                     48
                      A                      A                      A
 Frequencies --   1152.3812              1167.6349              1174.2370
 Red. masses --      1.9068                 1.7493                 2.2619
 Frc consts  --      1.4919                 1.4052                 1.8376
 IR Inten    --      4.5063                17.2844                 2.6739

                     49                     50                     51
                      A                      A                      A
 Frequencies --   1211.8983              1217.9703              1255.2599
 Red. masses --      1.7568                 1.3293                 1.6104
 Frc consts  --      1.5202                 1.1618                 1.4950
 IR Inten    --      5.9382                 9.2101                 0.9701

                     52                     53                     54
                      A                      A                      A
 Frequencies --   1281.0273              1285.0969              1302.9461
 Red. masses --      1.7058                 1.4601                 1.8931
 Frc consts  --      1.6493                 1.4207                 1.8936
 IR Inten    --     33.3563                 3.3870                96.3638

                     55                     56                     57
                      A                      A                      A
 Frequencies --   1326.5255              1342.1126              1360.9476
 Red. masses --      1.2592                 1.4230                 1.4077
 Frc consts  --      1.3054                 1.5102                 1.5362
 IR Inten    --     22.4464                 2.6402                 2.7053

                     58                     59                     60
                      A                      A                      A
 Frequencies --   1375.6600              1392.5436              1398.4654
 Red. masses --      1.2769                 1.3925                 1.3649
 Frc consts  --      1.4237                 1.5909                 1.5728
 IR Inten    --      2.4894                 1.9671                 2.1756

                     61                     62                     63
                      A                      A                      A
 Frequencies --   1404.0484              1413.6734              1415.9830
 Red. masses --      1.4133                 1.4092                 1.2873
 Frc consts  --      1.6415                 1.6593                 1.5207
 IR Inten    --      0.6332                 7.1894                14.8587

                     64                     65                     66
                      A                      A                      A
 Frequencies --   1418.2471              1423.4255              1426.7449
 Red. masses --      1.2323                 1.3360                 1.2809
 Frc consts  --      1.4604                 1.5949                 1.5362
 IR Inten    --      6.6605                 7.3666                 3.0166

                     67                     68                     69
                      A                      A                      A
 Frequencies --   1446.5131              1492.5371              1503.6931
 Red. masses --      1.2408                 1.9978                 1.2158
 Frc consts  --      1.5296                 2.6222                 1.6197
 IR Inten    --      9.2016               175.6087                19.7216

                     70                     71                     72
                      A                      A                      A
 Frequencies --   1513.0784              1516.8559              1517.7182
 Red. masses --      1.0976                 1.0713                 1.0656
 Frc consts  --      1.4805                 1.4523                 1.4461
 IR Inten    --      1.0301                 4.8928                 7.8435

                     73                     74                     75
                      A                      A                      A
 Frequencies --   1519.1490              1524.6219              1529.4267
 Red. masses --      1.1031                 1.0723                 1.0540
 Frc consts  --      1.4999                 1.4685                 1.4526
 IR Inten    --     24.6444                 5.7970                 0.5774

                     76                     77                     78
                      A                      A                      A
 Frequencies --   1537.4277              1542.7967              1551.2702
 Red. masses --      1.1077                 1.0726                 1.0493
 Frc consts  --      1.5426                 1.5042                 1.4877
 IR Inten    --      5.9940                 1.5980                13.4875

                     79                     80                     81
                      A                      A                      A
 Frequencies --   1718.0369              1738.3252              2983.5864
 Red. masses --      1.1118                 7.5417                 1.0819
 Frc consts  --      1.9336                13.4270                 5.6743
 IR Inten    --     17.1978               293.2189                19.1204

                     82                     83                     84
                      A                      A                      A
 Frequencies --   3007.7973              3011.5722              3020.4371
 Red. masses --      1.0801                 1.0748                 1.0749
 Frc consts  --      5.7574                 5.7434                 5.7779
 IR Inten    --      8.7400                37.3359                10.3175

                     85                     86                     87
                      A                      A                      A
 Frequencies --   3029.9195              3032.7977              3037.0810
 Red. masses --      1.0777                 1.0786                 1.0434
 Frc consts  --      5.8291                 5.8452                 5.6702
 IR Inten    --     32.2737                79.9920                28.8777

                     88                     89                     90
                      A                      A                      A
 Frequencies --   3044.4572              3051.3048              3060.2974
 Red. masses --      1.0401                 1.0609                 1.0396
 Frc consts  --      5.6801                 5.8194                 5.7366
 IR Inten    --     35.1294                47.1441                 4.9879

                     91                     92                     93
                      A                      A                      A
 Frequencies --   3090.5089              3094.1902              3103.1380
 Red. masses --      1.1036                 1.0999                 1.1002
 Frc consts  --      6.2106                 6.2045                 6.2421
 IR Inten    --     58.8472                 8.9569                88.9682

                     94                     95                     96
                      A                      A                      A
 Frequencies --   3121.3410              3121.6635              3153.2983
 Red. masses --      1.1008                 1.1010                 1.0874
 Frc consts  --      6.3190                 6.3213                 6.3703
 IR Inten    --     37.0915                16.5372                16.6474

                     97                     98                     99
                      A                      A                      A
 Frequencies --   3161.7928              3162.5889              3180.1330
 Red. masses --      1.0974                 1.0895                 1.0997
 Frc consts  --      6.4635                 6.4206                 6.5527
 IR Inten    --      9.3227                20.8932                 5.9304

                    100                    101                    102
                      A                      A                      A
 Frequencies --   3185.1600              3454.6598              3541.9956
 Red. masses --      1.0890                 1.0499                 1.0931
 Frc consts  --      6.5096                 7.3828                 8.0801
 IR Inten    --      4.1327                35.6762                51.5134

 - Thermochemistry -
 -------------------
 Temperature   298.150 Kelvin.  Pressure   1.00000 Atm.
 Atom     1 has atomic number  6 and mass  12.00000

 Molecular mass:   198.17321 amu.
 Principal axes and moments of inertia in atomic units:
                           1         2         3
     Eigenvalues --  1693.891793887.774094763.08442
           X            0.99990   0.01258  -0.00602
           Y           -0.01253   0.99988   0.00903
           Z            0.00613  -0.00895   0.99994
 This molecule is an asymmetric top.
 Rotational symmetry number  1.
 Warning -- assumption of classical behavior for rotation
           may cause significant error
 Rotational temperatures (Kelvin)      0.05113     0.02228     0.01818
 Rotational constants (GHZ):           1.06544     0.46421     0.37890
 Zero-point vibrational energy     868148.8 (Joules/Mol)
                                  207.49254 (Kcal/Mol)
 Warning -- explicit consideration of  25 degrees of freedom as
           vibrations may cause significant error
 Vibrational temperatures:     61.03    92.33   122.21   129.21   201.10
          (Kelvin)            262.17   289.43   308.47   325.57   362.87
                              435.46   471.40   496.66   507.35   535.13
                              550.13   574.52   627.81   664.00   683.34
                              693.50   724.96   786.61   848.25   857.76
                              956.83  1055.30  1188.42  1194.63  1258.63
                             1264.73  1316.31  1343.26  1353.52  1362.60
                             1391.58  1408.87  1462.02  1471.64  1486.75
                             1529.01  1558.13  1576.02  1579.10  1615.27
                             1658.02  1679.97  1689.47  1743.65  1752.39
                             1806.04  1843.11  1848.97  1874.65  1908.57
                             1931.00  1958.10  1979.27  2003.56  2012.08
                             2020.11  2033.96  2037.28  2040.54  2047.99
                             2052.77  2081.21  2147.43  2163.48  2176.98
                             2182.42  2183.66  2185.72  2193.59  2200.50
                             2212.02  2219.74  2231.93  2471.87  2501.06
                             4292.72  4327.55  4332.98  4345.74  4359.38
                             4363.52  4369.68  4380.29  4390.15  4403.09
                             4446.55  4451.85  4464.72  4490.91  4491.38
                             4536.89  4549.11  4550.26  4575.50  4582.73
                             4970.48  5096.14

 Zero-point correction=                           0.330660 (Hartree/Particle)
 Thermal correction to Energy=                    0.345553
 Thermal correction to Enthalpy=                  0.346497
 Thermal correction to Gibbs Free Energy=         0.289549
 Sum of electronic and zero-point Energies=           -616.898934
 Sum of electronic and thermal Energies=              -616.884042
 Sum of electronic and thermal Enthalpies=            -616.883098
 Sum of electronic and thermal Free Energies=         -616.940045

                     E (Thermal)             CV                S
                      KCal/Mol        Cal/Mol-Kelvin    Cal/Mol-Kelvin
 Total                  216.838             58.593            119.856
 Electronic               0.000              0.000              0.000
 Translational            0.889              2.981             41.757
 Rotational               0.889              2.981             31.817
 Vibrational            215.060             52.631             46.282
 Vibration     1          0.595              1.980              5.143
 Vibration     2          0.597              1.971              4.325
 Vibration     3          0.601              1.960              3.773
 Vibration     4          0.602              1.956              3.664
 Vibration     5          0.615              1.914              2.807
 Vibration     6          0.630              1.864              2.306
 Vibration     7          0.638              1.838              2.122
 Vibration     8          0.644              1.819              2.006
 Vibration     9          0.650              1.801              1.908
 Vibration    10          0.664              1.759              1.715
 Vibration    11          0.694              1.669              1.402
 Vibration    12          0.711              1.620              1.272
 Vibration    13          0.724              1.585              1.188
 Vibration    14          0.729              1.570              1.154
 Vibration    15          0.744              1.530              1.072
 Vibration    16          0.752              1.508              1.030
 Vibration    17          0.765              1.472              0.965
 Vibration    18          0.797              1.391              0.838
 Vibration    19          0.819              1.335              0.762
 Vibration    20          0.832              1.306              0.724
 Vibration    21          0.838              1.290              0.705
 Vibration    22          0.859              1.241              0.649
 Vibration    23          0.902              1.147              0.551
 Vibration    24          0.947              1.054              0.468
 Vibration    25          0.954              1.040              0.456

                           ! Non-Optimized Parameters !
 Normal termination of Gaussian 16 at Thu Dec 10 09:37:04 2020.

 ----------------------------------------------------------------------
 # B3LYP/6-311++G(d,p) empiricaldispersion=gd3bj scf=xqc pop=npa geom=c
 heck
 ----------------------------------------------------------------------

 --------------------------------------
 CID_84066934_JID_4247_Energie_neutraal
 --------------------------------------
 Structure from the checkpoint file:  "JID_4247.chk"
 Charge =  0 Multiplicity = 1

 SCF Done:  E(RB3LYP) =  -617.409158888     A.U. after   14 cycles
 Normal termination of Gaussian 16 at Thu Dec 10 09:43:17 2020.

 ----------------------------------------------------------------------
 # B3LYP/6-311++G(d,p) empiricaldispersion=gd3bj scf=xqc pop=npa geom=c
 heck
 ----------------------------------------------------------------------

 ------------------------------------
 CID_84066934_JID_4247_Energie_kation
 ------------------------------------
 Structure from the checkpoint file:  "JID_4247.chk"
 Charge =  1 Multiplicity = 2

 SCF Done:  E(UB3LYP) =  -617.107698461     A.U. after   26 cycles
 Normal termination of Gaussian 16 at Thu Dec 10 09:59:45 2020.
 Gaussian 16:  ES64L-G16RevA.03 25-Dec-2016

 ----------------------------------------------------------------------
 # B3LYP/6-311++G(d,p) empiricaldispersion=gd3bj scf=xqc pop=npa geom=c
 heck
 ----------------------------------------------------------------------

 -----------------------------------
 CID_84066934_JID_4247_Energie_anion
 -----------------------------------
 Structure from the checkpoint file:  "JID_4247.chk"
 Charge = -1 Multiplicity = 2

                         Standard orientation:
 ---------------------------------------------------------------------
 Center     Atomic      Atomic             Coordinates (Angstroms)
 Number     Number       Type             X           Y           Z
 ---------------------------------------------------------------------
      1          6           0       -3.471859    0.917431   -0.059692
      2          6           0       -2.797444   -0.456006    0.041862
      3          6           0       -3.368431   -1.386590   -1.037113
      4          6           0       -1.241928   -0.478486   -0.001028
      5          6           0       -0.583057    0.623391    0.895931
      6          6           0       -0.460785    2.004340    0.205276
      7          6           0        0.652773    2.043730   -0.850906
      8          6           0        1.989970    1.589019   -0.259559
      9          7           0        1.835232    0.280664    0.365093
     10          6           0        0.817124    0.243855    1.417285
     11          6           0        2.471017   -0.864554   -0.026589
     12          8           0        2.206063   -1.961868    0.469472
     13          6           0        3.531572   -0.750767   -1.112257
     14          7           0       -0.854137   -1.857809    0.312271
     15          1           0       -3.245121    1.406542   -1.015265
     16          1           0       -3.186336    1.595458    0.750323
     17          1           0       -4.559994    0.793956   -0.011879
     18          1           0       -3.068768   -0.872351    1.026403
     19          1           0       -3.183394   -0.969587   -2.036387
     20          1           0       -2.896782   -2.369259   -0.984801
     21          1           0       -4.452973   -1.499378   -0.922357
     22          1           0       -0.930656   -0.301624   -1.040153
     23          1           0       -1.213531    0.740090    1.790273
     24          1           0       -1.402812    2.305145   -0.253981
     25          1           0       -0.236269    2.757637    0.974558
     26          1           0        0.401661    1.389151   -1.694777
     27          1           0        0.755298    3.059682   -1.251457
     28          1           0        2.765001    1.551897   -1.024127
     29          1           0        2.319034    2.306530    0.507731
     30          1           0        1.110716    0.970685    2.188690
     31          1           0        0.837692   -0.748278    1.862038
     32          1           0        3.097640   -0.433787   -2.067339
     33          1           0        4.319711   -0.038043   -0.847292
     34          1           0        3.970716   -1.740430   -1.238323
     35          1           0        0.150852   -2.008156    0.233616
     36          1           0       -1.101565   -2.073114    1.277924
 ---------------------------------------------------------------------

 SCF Done:  E(UB3LYP) =  -617.398325302     A.U. after   31 cycles

 The electronic state is 2-A.
 Alpha  occ. eigenvalues --  -18.98825 -14.24423 -14.18206 -10.17577 -10.10494
 Alpha  occ. eigenvalues --  -10.10029 -10.09942 -10.08048 -10.07729 -10.07695
 Alpha  occ. eigenvalues --  -10.06929 -10.06635 -10.06550 -10.05892  -0.94088
 Alpha  occ. eigenvalues --   -0.84440  -0.78791  -0.70570  -0.69133  -0.66900
 Alpha  occ. eigenvalues --   -0.64281  -0.58902  -0.57586  -0.57100  -0.52238
 Alpha  occ. eigenvalues --   -0.48843  -0.47275  -0.43475  -0.40371  -0.39095
 Alpha  occ. eigenvalues --   -0.37911  -0.36698  -0.35850  -0.35704  -0.34658
 Alpha  occ. eigenvalues --   -0.33986  -0.32627  -0.32237  -0.30798  -0.30649
 Alpha  occ. eigenvalues --   -0.30178  -0.29109  -0.28485  -0.28292  -0.26733
 Alpha  occ. eigenvalues --   -0.26350  -0.24789  -0.24015  -0.23756  -0.22803
 Alpha  occ. eigenvalues --   -0.22549  -0.21449  -0.16289  -0.14532  -0.13525
 Alpha  occ. eigenvalues --    0.04209
 Alpha virt. eigenvalues --    0.06276   0.07009   0.07503   0.08592   0.08710
 Alpha virt. eigenvalues --    0.09019   0.09916   0.10108   0.10625   0.11353
 Alpha virt. eigenvalues --    0.11399   0.11699   0.12176   0.12561   0.13108

  Beta  occ. eigenvalues --  -18.98808 -14.24430 -14.18201 -10.17562 -10.10459
  Beta  occ. eigenvalues --  -10.10013 -10.09938 -10.08041 -10.07723 -10.07661
  Beta  occ. eigenvalues --  -10.06903 -10.06615 -10.06530 -10.05886  -0.94059
  Beta  occ. eigenvalues --   -0.84427  -0.78781  -0.70537  -0.69112  -0.66858
  Beta  occ. eigenvalues --   -0.64231  -0.58873  -0.57540  -0.57066  -0.52185
  Beta  occ. eigenvalues --   -0.48807  -0.47242  -0.43410  -0.40320  -0.39072
  Beta  occ. eigenvalues --   -0.37877  -0.36665  -0.35817  -0.35674  -0.34619
  Beta  occ. eigenvalues --   -0.33963  -0.32592  -0.32200  -0.30761  -0.30617
  Beta  occ. eigenvalues --   -0.30145  -0.29088  -0.28451  -0.28262  -0.26676
  Beta  occ. eigenvalues --   -0.26326  -0.24745  -0.23991  -0.23718  -0.22782
  Beta  occ. eigenvalues --   -0.22513  -0.21421  -0.16266  -0.14503  -0.13515
  Beta virt. eigenvalues --    0.06396   0.07165   0.07566   0.08055   0.08913
  Beta virt. eigenvalues --    0.09183   0.09676   0.10277   0.10468   0.10981
  Beta virt. eigenvalues --    0.11559   0.11724   0.11947   0.12550   0.12928

 Mulliken charges and spin densities:
               1          2
     1  C    0.442747  -1.235516
     2  C   -0.638622   1.149409
     3  C   -0.386640  -0.242476
     4  C    0.539931  -1.414845
     5  C   -0.334274   1.327367
     6  C    0.546383  -1.048955
     7  C   -0.216548  -0.057734
     8  C    1.012350  -1.453286
     9  N   -0.000962   0.098282
    10  C    0.130085  -0.965751
    11  C   -0.637474   0.736850
    12  O   -0.347175   0.000956
    13  C    1.010553  -1.547910
    14  N   -0.312545  -0.006271
    15  H    0.057922   0.094283
    16  H   -0.168025   0.310664
    17  H   -0.054851   0.193781
    18  H   -0.038737   0.179290
    19  H   -0.030060   0.142704
    20  H    0.196405  -0.012565
    21  H    0.067754   0.057687
    22  H    0.402490  -0.189398
    23  H   -0.051182   0.292020
    24  H   -0.055183   0.176423
    25  H   -0.392776   0.568704
    26  H   -0.079019   0.213568
    27  H   -0.734287   0.922884
    28  H   -0.595642   0.781463
    29  H   -0.249251   0.429964
    30  H   -0.369266   0.563021
    31  H    0.165358   0.034755
    32  H   -0.229104   0.404179
    33  H   -0.276571   0.456977
    34  H    0.159337   0.013051
    35  H    0.257524   0.016488
    36  H    0.209355   0.009936
 Sum of Mulliken charges =  -1.00000   1.00000

 Dipole moment (field-independent basis, Debye):
    X=             -3.5686    Y=             -4.6738    Z=              0.5887  Tot=              5.9098
 Quadrupole moment (field-independent basis, Debye-Ang):
   XX=           -152.6224   YY=           -150.8004   ZZ=           -125.1817
   XY=             -5.2403   XZ=              4.4318   YZ=              0.5471

 Summary of Natural Population Analysis:

                                       Natural Population
                Natural  -----------------------------------------------
    Atom  No    Charge         Core      Valence    Rydberg      Total
 -----------------------------------------------------------------------
      C    1   -0.28711      0.99965     2.28161    0.00585     3.28711
      C    2   -0.10984      0.99960     2.09986    0.01039     3.10984
      C    3   -0.28505      0.99965     2.28058    0.00482     3.28505
      C    4   -0.00912      0.99956     1.99793    0.01163     3.00912
      C    5   -0.12247      0.99957     2.11024    0.01266     3.12247
      C    6   -0.19184      0.99960     2.18272    0.00952     3.19184
      C    7   -0.19321      0.99962     2.18454    0.00906     3.19321
      C    8   -0.08213      0.99960     2.07149    0.01105     3.08213
      N    9   -0.25725      0.99964     2.74540    0.01222     3.75725
      C   10   -0.08698      0.99958     2.07540    0.01201     3.08698
      C   11    0.34726      0.99964     1.63090    0.02219     2.65274
      O   12   -0.34144      0.99988     3.33612    0.00544     4.34144
      C   13   -0.33011      0.99963     2.32529    0.00519     3.33011
      N   14   -0.43132      0.99977     2.92281    0.00874     3.93132
      H   15    0.09679      0.00000     0.40221    0.00101     0.40321
      H   16    0.10187      0.00000     0.39715    0.00098     0.39813
      H   17    0.09786      0.00000     0.40136    0.00078     0.40214
      H   18    0.08766      0.00000     0.41064    0.00170     0.41234
      H   19    0.09351      0.00000     0.40567    0.00082     0.40649
      H   20    0.11206      0.00000     0.38693    0.00101     0.38794
      H   21    0.09288      0.00000     0.40637    0.00076     0.40712
      H   22    0.08832      0.00000     0.40966    0.00202     0.41168
      H   23    0.09942      0.00000     0.39883    0.00175     0.40058
      H   24    0.10403      0.00000     0.39428    0.00170     0.39597
      H   25    0.09956      0.00000     0.39849    0.00194     0.40044
      H   26    0.09350      0.00000     0.40474    0.00175     0.40650
      H   27    0.10652      0.00000     0.39121    0.00227     0.39348
      H   28    0.10665      0.00000     0.39072    0.00263     0.39335
      H   29    0.09536      0.00000     0.40188    0.00276     0.40464
      H   30    0.09774      0.00000     0.40102    0.00124     0.40226
      H   31    0.11444      0.00000     0.38421    0.00135     0.38556
      H   32    0.11116      0.00000     0.38763    0.00121     0.38884
      H   33    0.10983      0.00000     0.38908    0.00110     0.39017
      H   34    0.11145      0.00000     0.38775    0.00080     0.38855
      H   35    0.19300      0.00000     0.30500    0.00199     0.30700
      H   36    0.16699      0.00000     0.33124    0.00176     0.33301
 =======================================================================
   * Total *    0.00000     13.99498    40.83094    0.17409    55.00000

 Normal termination of Gaussian 16 at Thu Dec 10 10:20:02 2020.
