 Gaussian 16, Revision A.03,

 -----------------------------------------------------------
 # opt freq B3LYP/6-31G(d) empiricaldispersion=gd3bj scf=xqc
 -----------------------------------------------------------

 ------------------------------
 CID_80112218_JID_6093_neutraal
 ------------------------------
 Symbolic Z-matrix:
 Charge =  0 Multiplicity = 1

 SCF Done:  E(RB3LYP) =  -732.933757048     A.U. after   14 cycles
 SCF Done:  E(RB3LYP) =  -732.934112519     A.U. after   12 cycles
 SCF Done:  E(RB3LYP) =  -732.936271510     A.U. after   12 cycles
 SCF Done:  E(RB3LYP) =  -732.934321587     A.U. after   12 cycles
 SCF Done:  E(RB3LYP) =  -732.938221580     A.U. after   11 cycles
 SCF Done:  E(RB3LYP) =  -732.937991367     A.U. after   12 cycles
 SCF Done:  E(RB3LYP) =  -732.938506139     A.U. after   11 cycles
 SCF Done:  E(RB3LYP) =  -732.939183314     A.U. after   11 cycles
 SCF Done:  E(RB3LYP) =  -732.939094138     A.U. after   12 cycles
 SCF Done:  E(RB3LYP) =  -732.940138663     A.U. after   11 cycles
 SCF Done:  E(RB3LYP) =  -732.941043063     A.U. after    8 cycles
 SCF Done:  E(RB3LYP) =  -732.941043668     A.U. after    7 cycles
 SCF Done:  E(RB3LYP) =  -732.941044082     A.U. after    7 cycles
 SCF Done:  E(RB3LYP) =  -732.941044238     A.U. after    7 cycles
 SCF Done:  E(RB3LYP) =  -732.941044358     A.U. after    6 cycles
 SCF Done:  E(RB3LYP) =  -732.941044391     A.U. after    6 cycles
 Optimization completed.
    -- Stationary point found.
 Normal termination of Gaussian 16 at Thu Dec 10 21:24:22 2020.

 --------------------------------------------------------------------
 #N Geom=AllCheck Guess=TCheck SCRF=Check GenChk RB3LYP/6-31G(d) Freq
 --------------------------------------------------------------------

 Structure from the checkpoint file:  "JID_6093.chk"
 ------------------------------
 CID_80112218_JID_6093_neutraal
 ------------------------------
 Charge =  0 Multiplicity = 1

 SCF Done:  E(RB3LYP) =  -732.941044391     A.U. after    1 cycles

  Exact polarizability: 153.984   1.795 146.639  -0.423  -2.609 134.866
 Approx polarizability: 192.480   5.729 201.357  -5.341   0.422 212.482

                      1                      2                      3
                      A                      A                      A
 Frequencies --     33.3467                43.0226                60.1615
 Red. masses --      4.0529                 3.4643                 3.1552
 Frc consts  --      0.0027                 0.0038                 0.0067
 IR Inten    --      0.3943                 0.9721                 0.0184

                      4                      5                      6
                      A                      A                      A
 Frequencies --     66.1749                78.7669                82.7998
 Red. masses --      2.9171                 3.2528                 1.7315
 Frc consts  --      0.0075                 0.0119                 0.0070
 IR Inten    --      0.9468                 2.3928                 6.2996

                      7                      8                      9
                      A                      A                      A
 Frequencies --     98.9939               106.1048               144.9522
 Red. masses --      3.1264                 3.2320                 3.9761
 Frc consts  --      0.0181                 0.0214                 0.0492
 IR Inten    --      2.0359                 3.0130                 0.4431

                     10                     11                     12
                      A                      A                      A
 Frequencies --    161.4876               179.1887               192.6726
 Red. masses --      1.8010                 3.5292                 2.6323
 Frc consts  --      0.0277                 0.0668                 0.0576
 IR Inten    --      0.2509                 1.4393                 2.1709

                     13                     14                     15
                      A                      A                      A
 Frequencies --    213.4663               223.4305               234.3497
 Red. masses --      2.1093                 1.1942                 1.1820
 Frc consts  --      0.0566                 0.0351                 0.0382
 IR Inten    --      4.6750                 0.4460                 0.6623

                     16                     17                     18
                      A                      A                      A
 Frequencies --    243.0764               250.9944               281.1227
 Red. masses --      1.4628                 2.2801                 2.4954
 Frc consts  --      0.0509                 0.0846                 0.1162
 IR Inten    --      3.8258                 0.9565                 2.6464

                     19                     20                     21
                      A                      A                      A
 Frequencies --    311.3734               323.0969               337.0118
 Red. masses --      2.2155                 1.5742                 1.5136
 Frc consts  --      0.1266                 0.0968                 0.1013
 IR Inten    --      1.6539                24.5184                36.7981

                     22                     23                     24
                      A                      A                      A
 Frequencies --    353.9060               393.1741               417.9746
 Red. masses --      2.8266                 2.1848                 2.0792
 Frc consts  --      0.2086                 0.1990                 0.2140
 IR Inten    --      1.3377                 1.0510                 2.6385

                     25                     26                     27
                      A                      A                      A
 Frequencies --    424.6144               429.4059               461.9690
 Red. masses --      2.2931                 2.0550                 2.9656
 Frc consts  --      0.2436                 0.2232                 0.3729
 IR Inten    --      1.8812                 2.5597                 5.5896

                     28                     29                     30
                      A                      A                      A
 Frequencies --    510.4430               552.8269               564.3312
 Red. masses --      3.4695                 3.0422                 3.7515
 Frc consts  --      0.5326                 0.5478                 0.7039
 IR Inten    --     14.7635                 3.3292                39.4556

                     31                     32                     33
                      A                      A                      A
 Frequencies --    623.3250               672.0189               778.4858
 Red. masses --      3.2582                 3.1064                 3.6749
 Frc consts  --      0.7459                 0.8265                 1.3122
 IR Inten    --      5.5413                 0.8442                 0.6375

                     34                     35                     36
                      A                      A                      A
 Frequencies --    785.0432               801.5306               842.4729
 Red. masses --      1.4991                 2.1252                 2.4317
 Frc consts  --      0.5443                 0.8044                 1.0169
 IR Inten    --      5.0941                 2.2665                 6.3556

                     37                     38                     39
                      A                      A                      A
 Frequencies --    876.2309               887.2909               924.7043
 Red. masses --      1.8107                 2.0182                 1.7597
 Frc consts  --      0.8191                 0.9362                 0.8865
 IR Inten    --      0.6526                 3.8382                28.5151

                     40                     41                     42
                      A                      A                      A
 Frequencies --    939.9391               950.2435               957.9828
 Red. masses --      1.2582                 1.8516                 1.7312
 Frc consts  --      0.6550                 0.9851                 0.9361
 IR Inten    --     19.0466                11.6859                37.2418

                     43                     44                     45
                      A                      A                      A
 Frequencies --    976.7455               981.2314               992.9521
 Red. masses --      1.5248                 1.9979                 2.3221
 Frc consts  --      0.8571                 1.1333                 1.3489
 IR Inten    --      0.7077                40.5729                 8.2654

                     46                     47                     48
                      A                      A                      A
 Frequencies --   1034.9174              1057.4694              1061.9537
 Red. masses --      2.1121                 2.6483                 2.3220
 Frc consts  --      1.3328                 1.7448                 1.5429
 IR Inten    --      5.8297                18.1122                13.7541

                     49                     50                     51
                      A                      A                      A
 Frequencies --   1091.2602              1117.6371              1120.4420
 Red. masses --      1.9682                 1.8931                 1.8662
 Frc consts  --      1.3809                 1.3933                 1.3803
 IR Inten    --     22.7352                12.7844                12.7280

                     52                     53                     54
                      A                      A                      A
 Frequencies --   1146.0371              1152.5313              1163.2564
 Red. masses --      2.0738                 2.1242                 2.6198
 Frc consts  --      1.6048                 1.6625                 2.0886
 IR Inten    --      5.8326                53.8360                76.7664

                     55                     56                     57
                      A                      A                      A
 Frequencies --   1185.8629              1197.5567              1204.6015
 Red. masses --      1.2594                 2.1261                 1.7354
 Frc consts  --      1.0435                 1.7965                 1.4837
 IR Inten    --      2.8299                 1.5322                10.8625

                     58                     59                     60
                      A                      A                      A
 Frequencies --   1207.1434              1235.3902              1263.5304
 Red. masses --      1.6398                 1.5348                 2.2214
 Frc consts  --      1.4079                 1.3801                 2.0895
 IR Inten    --     43.3036                13.1968                25.9011

                     61                     62                     63
                      A                      A                      A
 Frequencies --   1277.6190              1299.2664              1312.1520
 Red. masses --      1.7051                 1.2049                 1.3299
 Frc consts  --      1.6399                 1.1984                 1.3491
 IR Inten    --     20.1688                 5.1372                 7.4402

                     64                     65                     66
                      A                      A                      A
 Frequencies --   1330.5448              1355.2729              1358.9232
 Red. masses --      1.1757                 1.3633                 1.2606
 Frc consts  --      1.2263                 1.4754                 1.3715
 IR Inten    --      3.9917                30.2049                 4.3182

                     67                     68                     69
                      A                      A                      A
 Frequencies --   1368.2773              1392.1665              1400.6987
 Red. masses --      1.4339                 1.2766                 1.2888
 Frc consts  --      1.5817                 1.4577                 1.4898
 IR Inten    --     17.4647                 4.5177                16.5860

                     70                     71                     72
                      A                      A                      A
 Frequencies --   1408.0738              1414.0266              1417.9676
 Red. masses --      1.2901                 1.3647                 1.3400
 Frc consts  --      1.5070                 1.6077                 1.5873
 IR Inten    --      0.4407                 5.9099                13.8363

                     73                     74                     75
                      A                      A                      A
 Frequencies --   1424.1402              1431.4667              1434.2277
 Red. masses --      1.2860                 1.2699                 1.2974
 Frc consts  --      1.5367                 1.5331                 1.5724
 IR Inten    --     22.4951                 3.4158                13.7331

                     76                     77                     78
                      A                      A                      A
 Frequencies --   1446.5716              1451.9191              1471.5233
 Red. masses --      1.3687                 1.2391                 1.9033
 Frc consts  --      1.6875                 1.5390                 2.4283
 IR Inten    --     13.7523                 3.6120                93.8775

                     79                     80                     81
                      A                      A                      A
 Frequencies --   1497.2082              1504.2757              1508.3217
 Red. masses --      1.1263                 1.0810                 1.0932
 Frc consts  --      1.4875                 1.4413                 1.4653
 IR Inten    --      2.5869                 8.2785                 0.6724

                     82                     83                     84
                      A                      A                      A
 Frequencies --   1512.7771              1515.3952              1519.4095
 Red. masses --      1.1133                 1.0950                 1.0468
 Frc consts  --      1.5011                 1.4815                 1.4239
 IR Inten    --      5.6882                11.8238                 5.6167

                     85                     86                     87
                      A                      A                      A
 Frequencies --   1522.4210              1526.9556              1527.1409
 Red. masses --      1.0837                 1.0631                 1.0843
 Frc consts  --      1.4800                 1.4604                 1.4899
 IR Inten    --      6.1485                 7.1972                 6.2605

                     88                     89                     90
                      A                      A                      A
 Frequencies --   1535.2697              1537.3783              1540.8030
 Red. masses --      1.0552                 1.0549                 1.0510
 Frc consts  --      1.4654                 1.4691                 1.4701
 IR Inten    --      0.8138                11.3245                 2.2685

                     91                     92                     93
                      A                      A                      A
 Frequencies --   1541.3839              1555.9924              1721.2856
 Red. masses --      1.0531                 1.0822                 5.8280
 Frc consts  --      1.4741                 1.5437                10.1736
 IR Inten    --     13.1625                 2.1088               216.7262

                     94                     95                     96
                      A                      A                      A
 Frequencies --   1729.3824              2996.2929              3004.3654
 Red. masses --      1.1540                 1.0700                 1.0745
 Frc consts  --      2.0335                 5.6598                 5.7145
 IR Inten    --      6.5045                74.2426                29.4143

                     97                     98                     99
                      A                      A                      A
 Frequencies --   3021.0738              3026.0042              3029.7375
 Red. masses --      1.0469                 1.0673                 1.0610
 Frc consts  --      5.6295                 5.7581                 5.7382
 IR Inten    --     42.9076                11.7181                71.6038

                    100                    101                    102
                      A                      A                      A
 Frequencies --   3037.4339              3041.1294              3047.7504
 Red. masses --      1.0390                 1.0658                 1.0511
 Frc consts  --      5.6480                 5.8074                 5.7525
 IR Inten    --     21.3177                14.4991                60.9147

                    103                    104                    105
                      A                      A                      A
 Frequencies --   3052.4912              3056.9084              3083.0037
 Red. masses --      1.0384                 1.0883                 1.0963
 Frc consts  --      5.7006                 5.9919                 6.1393
 IR Inten    --     21.8521                39.0035                35.6811

                    106                    107                    108
                      A                      A                      A
 Frequencies --   3084.2142              3090.0876              3091.1611
 Red. masses --      1.0948                 1.0694                 1.0879
 Frc consts  --      6.1359                 6.0161                 6.1249
 IR Inten    --     17.5371                35.9038                18.5583

                    109                    110                    111
                      A                      A                      A
 Frequencies --   3098.6353              3106.8905              3108.3956
 Red. masses --      1.1018                 1.1007                 1.0920
 Frc consts  --      6.2328                 6.2601                 6.2167
 IR Inten    --      0.6380                76.0967                31.6237

                    112                    113                    114
                      A                      A                      A
 Frequencies --   3111.8963              3114.9964              3133.7770
 Red. masses --      1.1011                 1.1023                 1.0966
 Frc consts  --      6.2824                 6.3016                 6.3449
 IR Inten    --     33.7791                36.7436                45.4727

                    115                    116                    117
                      A                      A                      A
 Frequencies --   3145.1462              3151.7552              3157.4216
 Red. masses --      1.0974                 1.1041                 1.1034
 Frc consts  --      6.3958                 6.4617                 6.4810
 IR Inten    --     12.4236                24.8715                16.9007

                    118                    119                    120
                      A                      A                      A
 Frequencies --   3225.8061              3462.0334              3545.6305
 Red. masses --      1.0846                 1.0507                 1.0917
 Frc consts  --      6.6499                 7.4197                 8.0863
 IR Inten    --      5.8928                68.3612                39.1179

 - Thermochemistry -
 -------------------
 Temperature   298.150 Kelvin.  Pressure   1.00000 Atm.
 Atom     1 has atomic number  6 and mass  12.00000

 Molecular mass:   230.19943 amu.
 Principal axes and moments of inertia in atomic units:
                           1         2         3
     Eigenvalues --  2837.094404646.769845486.80894
           X            0.99985   0.01218   0.01232
           Y           -0.01200   0.99982  -0.01448
           Z           -0.01250   0.01433   0.99982
 This molecule is an asymmetric top.
 Rotational symmetry number  1.
 Warning -- assumption of classical behavior for rotation
           may cause significant error
 Rotational temperatures (Kelvin)      0.03053     0.01864     0.01579
 Rotational constants (GHZ):           0.63612     0.38839     0.32892
 Zero-point vibrational energy    1009757.7 (Joules/Mol)
                                  241.33788 (Kcal/Mol)
 Warning -- explicit consideration of  30 degrees of freedom as
           vibrations may cause significant error
 Vibrational temperatures:     47.98    61.90    86.56    95.21   113.33
          (Kelvin)            119.13   142.43   152.66   208.55   232.34
                              257.81   277.21   307.13   321.47   337.18
                              349.73   361.13   404.47   448.00   464.86
                              484.88   509.19   565.69   601.37   610.93
                              617.82   664.67   734.41   795.39   811.95
                              896.83   966.89  1120.07  1129.50  1153.22
                             1212.13  1260.70  1276.61  1330.44  1352.36
                             1367.19  1378.32  1405.32  1411.77  1428.64
                             1489.02  1521.46  1527.91  1570.08  1608.03
                             1612.07  1648.89  1658.24  1673.67  1706.19
                             1723.02  1733.15  1736.81  1777.45  1817.94
                             1838.21  1869.35  1887.89  1914.36  1949.94
                             1955.19  1968.65  2003.02  2015.29  2025.90
                             2034.47  2040.14  2049.02  2059.56  2063.53
                             2081.29  2088.99  2117.19  2154.15  2164.32
                             2170.14  2176.55  2180.32  2186.09  2190.42
                             2196.95  2197.22  2208.91  2211.94  2216.87
                             2217.71  2238.73  2476.55  2488.20  4311.00
                             4322.61  4346.65  4353.75  4359.12  4370.19
                             4375.51  4385.03  4391.85  4398.21  4435.75
                             4437.50  4445.95  4447.49  4458.25  4470.12
                             4472.29  4477.32  4481.79  4508.81  4525.16
                             4534.67  4542.83  4641.22  4981.09  5101.37

 Zero-point correction=                           0.384596 (Hartree/Particle)
 Thermal correction to Energy=                    0.404285
 Thermal correction to Enthalpy=                  0.405229
 Thermal correction to Gibbs Free Energy=         0.336557
 Sum of electronic and zero-point Energies=           -732.556448
 Sum of electronic and thermal Energies=              -732.536760
 Sum of electronic and thermal Enthalpies=            -732.535815
 Sum of electronic and thermal Free Energies=         -732.604487

                     E (Thermal)             CV                S
                      KCal/Mol        Cal/Mol-Kelvin    Cal/Mol-Kelvin
 Total                  253.693             72.044            144.531
 Electronic               0.000              0.000              0.000
 Translational            0.889              2.981             42.203
 Rotational               0.889              2.981             32.647
 Vibrational            251.915             66.083             69.681
 Vibration     1          0.594              1.983              5.620
 Vibration     2          0.595              1.980              5.115
 Vibration     3          0.597              1.973              4.452
 Vibration     4          0.598              1.970              4.264
 Vibration     5          0.600              1.963              3.921
 Vibration     6          0.600              1.961              3.823
 Vibration     7          0.604              1.950              3.474
 Vibration     8          0.605              1.944              3.339
 Vibration     9          0.616              1.908              2.737
 Vibration    10          0.622              1.890              2.532
 Vibration    11          0.629              1.868              2.337
 Vibration    12          0.635              1.850              2.202
 Vibration    13          0.644              1.820              2.014
 Vibration    14          0.649              1.805              1.931
 Vibration    15          0.654              1.788              1.845
 Vibration    16          0.659              1.774              1.780
 Vibration    17          0.663              1.761              1.724
 Vibration    18          0.681              1.709              1.527
 Vibration    19          0.700              1.652              1.355
 Vibration    20          0.708              1.629              1.294
 Vibration    21          0.718              1.602              1.226
 Vibration    22          0.730              1.567              1.149
 Vibration    23          0.760              1.485              0.988
 Vibration    24          0.781              1.431              0.899
 Vibration    25          0.787              1.417              0.876
 Vibration    26          0.791              1.406              0.861
 Vibration    27          0.820              1.334              0.760
 Vibration    28          0.866              1.227              0.633
 Vibration    29          0.908              1.134              0.538
 Vibration    30          0.920              1.108              0.515

                           ! Non-Optimized Parameters !
 Normal termination of Gaussian 16 at Thu Dec 10 21:41:30 2020.

 ----------------------------------------------------------------------
 # B3LYP/6-311++G(d,p) empiricaldispersion=gd3bj scf=xqc pop=npa geom=c
 heck
 ----------------------------------------------------------------------

 --------------------------------------
 CID_80112218_JID_6093_Energie_neutraal
 --------------------------------------
 Structure from the checkpoint file:  "JID_6093.chk"
 Charge =  0 Multiplicity = 1

 SCF Done:  E(RB3LYP) =  -733.161067286     A.U. after   15 cycles
 Normal termination of Gaussian 16 at Thu Dec 10 21:50:39 2020.

 ----------------------------------------------------------------------
 # B3LYP/6-311++G(d,p) empiricaldispersion=gd3bj scf=xqc pop=npa geom=c
 heck
 ----------------------------------------------------------------------

 ------------------------------------
 CID_80112218_JID_6093_Energie_kation
 ------------------------------------
 Structure from the checkpoint file:  "JID_6093.chk"
 Charge =  1 Multiplicity = 2

 SCF Done:  E(UB3LYP) =  -732.861378522     A.U. after   26 cycles
 Normal termination of Gaussian 16 at Thu Dec 10 22:14:40 2020.
 Gaussian 16:  ES64L-G16RevA.03 25-Dec-2016

 ----------------------------------------------------------------------
 # B3LYP/6-311++G(d,p) empiricaldispersion=gd3bj scf=xqc pop=npa geom=c
 heck
 ----------------------------------------------------------------------

 -----------------------------------
 CID_80112218_JID_6093_Energie_anion
 -----------------------------------
 Structure from the checkpoint file:  "JID_6093.chk"
 Charge = -1 Multiplicity = 2

                         Standard orientation:
 ---------------------------------------------------------------------
 Center     Atomic      Atomic             Coordinates (Angstroms)
 Number     Number       Type             X           Y           Z
 ---------------------------------------------------------------------
      1          6           0       -0.034855    3.239211    0.014762
      2          6           0        1.107214    2.252200    0.259670
      3          7           0        0.678767    0.856579    0.091300
      4          6           0        0.816570    0.300383   -1.243565
      5          6           0        2.268015    0.069826   -1.685963
      6          8           0        2.989863   -0.817410   -0.847896
      7          6           0        3.693877   -0.193717    0.221294
      8          6           0       -0.013534    0.308829    1.151501
      9          8           0       -0.119234    0.958422    2.192110
     10          6           0       -0.772400   -1.035016    1.106195
     11          6           0       -2.264899   -0.728644    0.803218
     12          6           0       -2.640180   -0.038646   -0.526151
     13          6           0       -2.671309   -0.990697   -1.729595
     14          6           0       -4.008459    0.643324   -0.376673
     15          6           0       -0.212787   -2.288957    0.410356
     16          7           0        1.158280   -2.562221    0.840713
     17          1           0       -0.450245    3.126124   -0.993659
     18          1           0        0.318725    4.270967    0.120666
     19          1           0       -0.830855    3.069250    0.743906
     20          1           0        1.931260    2.439130   -0.434783
     21          1           0        1.488188    2.365631    1.275395
     22          1           0        0.281024   -0.641605   -1.292709
     23          1           0        0.342303    0.969157   -1.979275
     24          1           0        2.244774   -0.388454   -2.681981
     25          1           0        2.810528    1.021535   -1.776934
     26          1           0        4.351525    0.601282   -0.159224
     27          1           0        3.017142    0.222866    0.974170
     28          1           0        4.306120   -0.971789    0.682877
     29          1           0       -0.742702   -1.300294    2.166957
     30          1           0       -2.835040   -1.664742    0.892512
     31          1           0       -2.603056   -0.082392    1.620574
     32          1           0       -1.904046    0.751449   -0.726482
     33          1           0       -3.388071   -1.803785   -1.557208
     34          1           0       -2.983756   -0.460397   -2.637033
     35          1           0       -1.699870   -1.448794   -1.933710
     36          1           0       -3.993388    1.390572    0.424464
     37          1           0       -4.305764    1.145498   -1.304709
     38          1           0       -4.785610   -0.092724   -0.133048
     39          1           0       -0.847412   -3.116234    0.752080
     40          1           0       -0.340015   -2.266174   -0.682782
     41          1           0        1.381630   -3.538068    0.655363
     42          1           0        1.808735   -2.015177    0.276471
 ---------------------------------------------------------------------

 SCF Done:  E(UB3LYP) =  -733.150064746     A.U. after   31 cycles

 The electronic state is 2-A.
 Alpha  occ. eigenvalues --  -19.04349 -18.98538 -14.24729 -14.19286 -10.17359
 Alpha  occ. eigenvalues --  -10.12739 -10.12429 -10.11357 -10.10509 -10.10262
 Alpha  occ. eigenvalues --  -10.08716 -10.08253 -10.07753 -10.06778 -10.06460
 Alpha  occ. eigenvalues --  -10.06319  -0.95325  -0.94073  -0.83883  -0.78922
 Alpha  occ. eigenvalues --   -0.72361  -0.68082  -0.67095  -0.64913  -0.60145
 Alpha  occ. eigenvalues --   -0.59311  -0.57456  -0.55437  -0.53240  -0.51331
 Alpha  occ. eigenvalues --   -0.47346  -0.45079  -0.41749  -0.40355  -0.39817
 Alpha  occ. eigenvalues --   -0.39248  -0.37941  -0.37560  -0.36932  -0.36219
 Alpha  occ. eigenvalues --   -0.34556  -0.33956  -0.33572  -0.32050  -0.31832
 Alpha  occ. eigenvalues --   -0.31285  -0.30812  -0.29642  -0.29446  -0.28762
 Alpha  occ. eigenvalues --   -0.28389  -0.28146  -0.26709  -0.26094  -0.25527
 Alpha  occ. eigenvalues --   -0.24922  -0.23692  -0.23293  -0.22863  -0.21930
 Alpha  occ. eigenvalues --   -0.18794  -0.15821  -0.15001  -0.14318   0.04133
 Alpha virt. eigenvalues --    0.06190   0.06603   0.07313   0.07887   0.08309
 Alpha virt. eigenvalues --    0.08878   0.09348   0.09551   0.10233   0.10687
 Alpha virt. eigenvalues --    0.11058   0.11263   0.11605   0.12116   0.12449

  Beta  occ. eigenvalues --  -19.04340 -18.98533 -14.24731 -14.19278 -10.17357
  Beta  occ. eigenvalues --  -10.12701 -10.12414 -10.11334 -10.10491 -10.10249
  Beta  occ. eigenvalues --  -10.08715 -10.08247 -10.07748 -10.06762 -10.06435
  Beta  occ. eigenvalues --  -10.06291  -0.95309  -0.94066  -0.83871  -0.78907
  Beta  occ. eigenvalues --   -0.72346  -0.68044  -0.67072  -0.64881  -0.60110
  Beta  occ. eigenvalues --   -0.59264  -0.57429  -0.55390  -0.53172  -0.51293
  Beta  occ. eigenvalues --   -0.47308  -0.45050  -0.41708  -0.40332  -0.39785
  Beta  occ. eigenvalues --   -0.39227  -0.37915  -0.37533  -0.36898  -0.36189
  Beta  occ. eigenvalues --   -0.34529  -0.33933  -0.33547  -0.32023  -0.31805
  Beta  occ. eigenvalues --   -0.31242  -0.30775  -0.29623  -0.29418  -0.28736
  Beta  occ. eigenvalues --   -0.28355  -0.28119  -0.26683  -0.26072  -0.25509
  Beta  occ. eigenvalues --   -0.24897  -0.23663  -0.23257  -0.22842  -0.21914
  Beta  occ. eigenvalues --   -0.18762  -0.15812  -0.14987  -0.14296
  Beta virt. eigenvalues --    0.06279   0.06901   0.07028   0.08084   0.08195
  Beta virt. eigenvalues --    0.08600   0.09265   0.09765   0.09984   0.10405
  Beta virt. eigenvalues --    0.10784   0.11272   0.11738   0.11908   0.12348

 Mulliken charges and spin densities:
               1          2
     1  C    0.038108  -0.546497
     2  C   -0.048277  -0.025752
     3  N    0.054905   0.061049
     4  C   -0.804864   0.870115
     5  C    0.979502  -1.813087
     6  O   -0.137091   0.046580
     7  C    0.060234  -0.431038
     8  C   -0.784344  -0.008200
     9  O   -0.230626   0.008128
    10  C    0.904768  -0.006563
    11  C   -0.253185  -0.477036
    12  C   -0.341666   0.909723
    13  C    0.452912  -1.101710
    14  C   -0.504295  -0.111513
    15  C   -0.235477  -0.500673
    16  N   -0.448315   0.033816
    17  H   -0.128423   0.279003
    18  H   -0.399080   0.554375
    19  H    0.188149  -0.003565
    20  H   -0.062310   0.187217
    21  H    0.180833   0.004757
    22  H    1.346983  -1.227358
    23  H   -0.668482   0.875633
    24  H   -0.673026   0.877307
    25  H   -0.250438   0.405217
    26  H   -0.149313   0.278618
    27  H    0.126770   0.090383
    28  H    0.109155   0.051388
    29  H    0.253062   0.004248
    30  H    0.070908   0.086737
    31  H    0.187210  -0.003092
    32  H    0.747066  -0.578653
    33  H   -0.096931   0.240985
    34  H   -0.200616   0.347110
    35  H   -0.466814   0.578392
    36  H    0.060336   0.078089
    37  H   -0.087656   0.235546
    38  H   -0.038436   0.168654
    39  H   -0.011660   0.168858
    40  H   -0.192344   0.327399
    41  H    0.109101   0.130177
    42  H    0.343664  -0.064766
 Sum of Mulliken charges =  -1.00000   1.00000

 Dipole moment (field-independent basis, Debye):
    X=             -0.6487    Y=             -2.3358    Z=              4.8087  Tot=              5.3852
 Quadrupole moment (field-independent basis, Debye-Ang):
   XX=           -157.2774   YY=           -151.6719   ZZ=           -163.0807
   XY=             -3.5209   XZ=              1.8171   YZ=              2.0476

 Summary of Natural Population Analysis:

                                       Natural Population
                Natural  -----------------------------------------------
    Atom  No    Charge         Core      Valence    Rydberg      Total
 -----------------------------------------------------------------------
      C    1   -0.29109      0.99965     2.28640    0.00504     3.29109
      C    2   -0.08886      0.99961     2.07786    0.01139     3.08886
      N    3   -0.26443      0.99963     2.75130    0.01350     3.76443
      C    4   -0.10433      0.99957     2.09054    0.01422     3.10433
      C    5   -0.01124      0.99957     1.99779    0.01388     3.01124
      O    6   -0.30491      0.99989     3.29535    0.00967     4.30491
      C    7   -0.09982      0.99960     2.09151    0.00871     3.09982
      C    8    0.35807      0.99960     1.61909    0.02324     2.64193
      O    9   -0.33395      0.99988     3.32905    0.00502     4.33395
      C   10   -0.15093      0.99953     2.13958    0.01182     3.15093
      C   11   -0.18182      0.99959     2.17287    0.00936     3.18182
      C   12   -0.12432      0.99961     2.11612    0.00859     3.12432
      C   13   -0.28160      0.99964     2.27573    0.00623     3.28160
      C   14   -0.28012      0.99965     2.27472    0.00575     3.28012
      C   15   -0.08775      0.99960     2.07712    0.01103     3.08775
      N   16   -0.43186      0.99976     2.92227    0.00983     3.93186
      H   17    0.09874      0.00000     0.39995    0.00131     0.40126
      H   18    0.09967      0.00000     0.39951    0.00082     0.40033
      H   19    0.10494      0.00000     0.39405    0.00101     0.39506
      H   20    0.09563      0.00000     0.40270    0.00167     0.40437
      H   21    0.10740      0.00000     0.39140    0.00120     0.39260
      H   22    0.10479      0.00000     0.39237    0.00284     0.39521
      H   23    0.10127      0.00000     0.39603    0.00270     0.39873
      H   24    0.09696      0.00000     0.40083    0.00222     0.40304
      H   25    0.08393      0.00000     0.41341    0.00265     0.41607
      H   26    0.08171      0.00000     0.41725    0.00103     0.41829
      H   27    0.08777      0.00000     0.41099    0.00124     0.41223
      H   28    0.08931      0.00000     0.40987    0.00082     0.41069
      H   29    0.11474      0.00000     0.38349    0.00177     0.38526
      H   30    0.09598      0.00000     0.40301    0.00101     0.40402
      H   31    0.10493      0.00000     0.39400    0.00107     0.39507
      H   32    0.09631      0.00000     0.40052    0.00318     0.40369
      H   33    0.09471      0.00000     0.40420    0.00109     0.40529
      H   34    0.10117      0.00000     0.39765    0.00118     0.39883
      H   35    0.09729      0.00000     0.40110    0.00161     0.40271
      H   36    0.09835      0.00000     0.40093    0.00072     0.40165
      H   37    0.10010      0.00000     0.39917    0.00073     0.39990
      H   38    0.09434      0.00000     0.40487    0.00079     0.40566
      H   39    0.09158      0.00000     0.40736    0.00106     0.40842
      H   40    0.07896      0.00000     0.41919    0.00185     0.42104
      H   41    0.17224      0.00000     0.32628    0.00148     0.32776
      H   42    0.18614      0.00000     0.31087    0.00300     0.31386
 =======================================================================
   * Total *    0.00000     15.99438    47.79829    0.20733    64.00000

 Normal termination of Gaussian 16 at Thu Dec 10 22:40:13 2020.
