 Gaussian 16, Revision A.03,

 -----------------------------------------------------------
 # opt freq B3LYP/6-31G(d) empiricaldispersion=gd3bj scf=xqc
 -----------------------------------------------------------

 -------------------------------
 CID_142143401_JID_2928_neutraal
 -------------------------------
 Symbolic Z-matrix:
 Charge =  0 Multiplicity = 1

 SCF Done:  E(RB3LYP) =  -505.203460071     A.U. after   14 cycles
 SCF Done:  E(RB3LYP) =  -505.207317599     A.U. after   12 cycles
 SCF Done:  E(RB3LYP) =  -505.208501418     A.U. after   12 cycles
 SCF Done:  E(RB3LYP) =  -505.209146011     A.U. after   12 cycles
 SCF Done:  E(RB3LYP) =  -505.209366870     A.U. after   12 cycles
 SCF Done:  E(RB3LYP) =  -505.209682844     A.U. after   12 cycles
 SCF Done:  E(RB3LYP) =  -505.210212704     A.U. after   11 cycles
 SCF Done:  E(RB3LYP) =  -505.210035517     A.U. after   12 cycles
 SCF Done:  E(RB3LYP) =  -505.210359556     A.U. after   11 cycles
 SCF Done:  E(RB3LYP) =  -505.210366582     A.U. after    9 cycles
 SCF Done:  E(RB3LYP) =  -505.210369022     A.U. after    8 cycles
 SCF Done:  E(RB3LYP) =  -505.210369365     A.U. after    8 cycles
 SCF Done:  E(RB3LYP) =  -505.210369569     A.U. after    7 cycles
 SCF Done:  E(RB3LYP) =  -505.210369702     A.U. after    7 cycles
 SCF Done:  E(RB3LYP) =  -505.210369739     A.U. after    7 cycles
 Optimization completed.
    -- Stationary point found.
 Normal termination of Gaussian 16 at Wed Dec  9 18:21:09 2020.

 --------------------------------------------------------------------
 #N Geom=AllCheck Guess=TCheck SCRF=Check GenChk RB3LYP/6-31G(d) Freq
 --------------------------------------------------------------------

 Structure from the checkpoint file:  "JID_2928.chk"
 -------------------------------
 CID_142143401_JID_2928_neutraal
 -------------------------------
 Charge =  0 Multiplicity = 1

 SCF Done:  E(RB3LYP) =  -505.210369739     A.U. after    1 cycles

  Exact polarizability: 157.127   4.377 132.208  -9.892  -1.000  86.427
 Approx polarizability: 230.571  13.785 187.817 -24.402  -3.021 132.704

                      1                      2                      3
                      A                      A                      A
 Frequencies --     48.9413                77.9659               116.3089
 Red. masses --      2.8191                 3.4119                 1.8854
 Frc consts  --      0.0040                 0.0122                 0.0150
 IR Inten    --      0.2805                 0.2149                 0.3020

                      4                      5                      6
                      A                      A                      A
 Frequencies --    117.7376               130.1002               176.2991
 Red. masses --      2.5021                 1.3074                 3.1774
 Frc consts  --      0.0204                 0.0130                 0.0582
 IR Inten    --      2.5152                 0.2094                 1.5633

                      7                      8                      9
                      A                      A                      A
 Frequencies --    201.6780               222.9795               259.9250
 Red. masses --      2.7199                 1.6893                 1.9034
 Frc consts  --      0.0652                 0.0495                 0.0758
 IR Inten    --      2.7917                 1.0732                 0.4888

                     10                     11                     12
                      A                      A                      A
 Frequencies --    273.2508               280.4054               294.0343
 Red. masses --      1.9113                 1.1514                 2.4949
 Frc consts  --      0.0841                 0.0533                 0.1271
 IR Inten    --      0.4966                 0.2320                 1.7113

                     13                     14                     15
                      A                      A                      A
 Frequencies --    309.3863               334.3174               348.9334
 Red. masses --      2.7279                 2.0539                 1.1507
 Frc consts  --      0.1538                 0.1353                 0.0825
 IR Inten    --      4.6883                 2.6225                 0.0582

                     16                     17                     18
                      A                      A                      A
 Frequencies --    361.2030               388.0003               395.8343
 Red. masses --      3.1325                 2.6229                 2.2021
 Frc consts  --      0.2408                 0.2326                 0.2033
 IR Inten    --      2.3092                 1.0235                 0.4988

                     19                     20                     21
                      A                      A                      A
 Frequencies --    429.3291               486.5485               553.6383
 Red. masses --      2.4996                 2.2690                 2.5155
 Frc consts  --      0.2715                 0.3165                 0.4543
 IR Inten    --      0.6823                 6.2976                 1.4759

                     22                     23                     24
                      A                      A                      A
 Frequencies --    564.2902               619.6544               684.8254
 Red. masses --      3.0879                 2.0690                 2.5294
 Frc consts  --      0.5793                 0.4681                 0.6989
 IR Inten    --      1.0572                 2.0973                 3.5343

                     25                     26                     27
                      A                      A                      A
 Frequencies --    729.9857               790.8958               820.8316
 Red. masses --      2.4834                 3.4878                 2.8346
 Frc consts  --      0.7797                 1.2854                 1.1253
 IR Inten    --     11.8533                14.2967                 1.3546

                     28                     29                     30
                      A                      A                      A
 Frequencies --    927.6696               931.2498               939.2048
 Red. masses --      1.6295                 1.9576                 1.4017
 Frc consts  --      0.8262                 1.0002                 0.7285
 IR Inten    --     25.4453                10.6104                39.6607

                     31                     32                     33
                      A                      A                      A
 Frequencies --    945.2226               950.0448               974.2677
 Red. masses --      1.8276                 1.7193                 1.2051
 Frc consts  --      0.9621                 0.9143                 0.6739
 IR Inten    --      2.4944                 2.5661                 0.0230

                     34                     35                     36
                      A                      A                      A
 Frequencies --   1009.7172              1032.1622              1044.4492
 Red. masses --      2.2540                 1.1740                 1.0964
 Frc consts  --      1.3539                 0.7369                 0.7047
 IR Inten    --     16.5925                35.4740                 4.9922

                     37                     38                     39
                      A                      A                      A
 Frequencies --   1058.6315              1061.4582              1079.2536
 Red. masses --      1.5279                 1.3728                 1.5526
 Frc consts  --      1.0089                 0.9113                 1.0655
 IR Inten    --      1.6233                 1.2952                 2.9079

                     40                     41                     42
                      A                      A                      A
 Frequencies --   1088.6251              1182.3360              1189.5408
 Red. masses --      2.5791                 2.6835                 1.2574
 Frc consts  --      1.8008                 2.2102                 1.0483
 IR Inten    --     88.5966                24.8134                 5.4168

                     43                     44                     45
                      A                      A                      A
 Frequencies --   1216.1099              1242.8345              1253.7862
 Red. masses --      1.4959                 2.7024                 2.9716
 Frc consts  --      1.3034                 2.4594                 2.7522
 IR Inten    --      1.7032                 4.9953                40.9814

                     46                     47                     48
                      A                      A                      A
 Frequencies --   1267.6814              1306.8131              1339.3573
 Red. masses --      2.6138                 3.2463                 1.3623
 Frc consts  --      2.4748                 3.2664                 1.4398
 IR Inten    --     50.9098                63.4842                 1.3047

                     49                     50                     51
                      A                      A                      A
 Frequencies --   1350.7560              1417.2244              1423.5509
 Red. masses --      1.3229                 1.2182                 1.2202
 Frc consts  --      1.4221                 1.4416                 1.4569
 IR Inten    --      6.3163                 5.4531                 3.4706

                     52                     53                     54
                      A                      A                      A
 Frequencies --   1454.1608              1460.7093              1475.2217
 Red. masses --      1.2176                 1.2561                 1.2618
 Frc consts  --      1.5170                 1.5791                 1.6179
 IR Inten    --      4.7692                 4.0342                 3.1589

                     55                     56                     57
                      A                      A                      A
 Frequencies --   1495.9116              1509.2466              1515.4674
 Red. masses --      1.1807                 1.0495                 1.0509
 Frc consts  --      1.5567                 1.4085                 1.4220
 IR Inten    --      0.6375                 0.0597                 5.4098

                     58                     59                     60
                      A                      A                      A
 Frequencies --   1523.1503              1526.5186              1531.8989
 Red. masses --      1.0517                 1.0470                 1.0591
 Frc consts  --      1.4376                 1.4375                 1.4644
 IR Inten    --      1.1356                 0.9875                 5.9499

                     61                     62                     63
                      A                      A                      A
 Frequencies --   1539.4242              1547.2460              1560.1973
 Red. masses --      1.0504                 1.0517                 1.0565
 Frc consts  --      1.4666                 1.4834                 1.5152
 IR Inten    --      6.8007                 5.0713                 6.4623

                     64                     65                     66
                      A                      A                      A
 Frequencies --   1635.6821              1693.0633              1705.8099
 Red. masses --      7.2155                 4.1378                 4.5099
 Frc consts  --     11.3741                 6.9883                 7.7317
 IR Inten    --     38.7340                 9.2745                 1.2122

                     67                     68                     69
                      A                      A                      A
 Frequencies --   3042.6760              3045.3482              3046.5480
 Red. masses --      1.0385                 1.0382                 1.0360
 Frc consts  --      5.6647                 5.6732                 5.6655
 IR Inten    --     34.4220                 4.1577                70.0307

                     70                     71                     72
                      A                      A                      A
 Frequencies --   3053.1768              3103.1754              3105.2910
 Red. masses --      1.0405                 1.1018                 1.1007
 Frc consts  --      5.7147                 6.2512                 6.2532
 IR Inten    --     48.9828                 9.9671                18.7496

                     73                     74                     75
                      A                      A                      A
 Frequencies --   3112.4279              3120.1323              3125.6445
 Red. masses --      1.1009                 1.0988                 1.1021
 Frc consts  --      6.2837                 6.3026                 6.3440
 IR Inten    --     69.8338                33.5677                44.0816

                     76                     77                     78
                      A                      A                      A
 Frequencies --   3155.8035              3156.1784              3157.4066
 Red. masses --      1.1049                 1.0986                 1.0757
 Frc consts  --      6.4835                 6.4476                 6.3186
 IR Inten    --     19.5684                 9.1364                18.8991

                     79                     80                     81
                      A                      A                      A
 Frequencies --   3169.5830              3172.1153              3182.2599
 Red. masses --      1.0713                 1.0574                 1.0941
 Frc consts  --      6.3410                 6.2689                 6.5280
 IR Inten    --     12.2699                 4.8266                15.8938

                     82                     83                     84
                      A                      A                      A
 Frequencies --   3202.4058              3250.4714              3255.2808
 Red. masses --      1.0912                 1.1164                 1.1164
 Frc consts  --      6.5933                 6.9493                 6.9702
 IR Inten    --      3.3384                16.3519                12.7882

 - Thermochemistry -
 -------------------
 Temperature   298.150 Kelvin.  Pressure   1.00000 Atm.
 Atom     1 has atomic number  6 and mass  12.00000

 Molecular mass:   166.13577 amu.
 Principal axes and moments of inertia in atomic units:
                           1         2         3
     Eigenvalues --  1535.564212253.683313268.96219
           X            0.99999  -0.00424   0.00094
           Y            0.00423   0.99996   0.00780
           Z           -0.00097  -0.00780   0.99997
 This molecule is an asymmetric top.
 Rotational symmetry number  1.
 Warning -- assumption of classical behavior for rotation
           may cause significant error
 Rotational temperatures (Kelvin)      0.05641     0.03843     0.02650
 Rotational constants (GHZ):           1.17530     0.80080     0.55208
 Zero-point vibrational energy     699090.9 (Joules/Mol)
                                  167.08675 (Kcal/Mol)
 Warning -- explicit consideration of  23 degrees of freedom as
           vibrations may cause significant error
 Vibrational temperatures:     70.42   112.18   167.34   169.40   187.19
          (Kelvin)            253.66   290.17   320.82   373.97   393.15
                              403.44   423.05   445.14   481.01   502.04
                              519.69   558.25   569.52   617.71   700.03
                              796.56   811.89   891.54   985.31  1050.29
                             1137.92  1180.99  1334.71  1339.86  1351.31
                             1359.96  1366.90  1401.75  1452.76  1485.05
                             1502.73  1523.13  1527.20  1552.81  1566.29
                             1701.12  1711.48  1749.71  1788.16  1803.92
                             1823.91  1880.21  1927.04  1943.44  2039.07
                             2048.17  2092.21  2101.63  2122.52  2152.28
                             2171.47  2180.42  2191.47  2196.32  2204.06
                             2214.89  2226.14  2244.78  2353.38  2435.94
                             2454.28  4377.73  4381.58  4383.30  4392.84
                             4464.78  4467.82  4478.09  4489.17  4497.11
                             4540.50  4541.04  4542.80  4560.32  4563.97
                             4578.56  4607.55  4676.70  4683.62

 Zero-point correction=                           0.266270 (Hartree/Particle)
 Thermal correction to Energy=                    0.280507
 Thermal correction to Enthalpy=                  0.281452
 Thermal correction to Gibbs Free Energy=         0.226651
 Sum of electronic and zero-point Energies=           -504.944100
 Sum of electronic and thermal Energies=              -504.929862
 Sum of electronic and thermal Enthalpies=            -504.928918
 Sum of electronic and thermal Free Energies=         -504.983719

                     E (Thermal)             CV                S
                      KCal/Mol        Cal/Mol-Kelvin    Cal/Mol-Kelvin
 Total                  176.021             53.914            115.337
 Electronic               0.000              0.000              0.000
 Translational            0.889              2.981             41.231
 Rotational               0.889              2.981             30.804
 Vibrational            174.244             47.953             43.302
 Vibration     1          0.595              1.978              4.860
 Vibration     2          0.599              1.964              3.941
 Vibration     3          0.608              1.936              3.161
 Vibration     4          0.608              1.935              3.137
 Vibration     5          0.612              1.923              2.945
 Vibration     6          0.628              1.872              2.367
 Vibration     7          0.639              1.838              2.118
 Vibration     8          0.649              1.806              1.935
 Vibration     9          0.668              1.746              1.662
 Vibration    10          0.676              1.723              1.576
 Vibration    11          0.680              1.710              1.531
 Vibration    12          0.689              1.685              1.451
 Vibration    13          0.699              1.656              1.366
 Vibration    14          0.716              1.607              1.239
 Vibration    15          0.726              1.577              1.171
 Vibration    16          0.735              1.552              1.117
 Vibration    17          0.756              1.496              1.008
 Vibration    18          0.763              1.479              0.978
 Vibration    19          0.791              1.406              0.861
 Vibration    20          0.843              1.280              0.693
 Vibration    21          0.909              1.132              0.537
 Vibration    22          0.920              1.109              0.515
 Vibration    23          0.980              0.990              0.417

 Optimization completed.
    -- Stationary point found.
 Normal termination of Gaussian 16 at Wed Dec  9 18:29:36 2020.

 ----------------------------------------------------------------------
 # B3LYP/6-311++G(d,p) empiricaldispersion=gd3bj scf=xqc pop=npa geom=c
 heck
 ----------------------------------------------------------------------

 ---------------------------------------
 CID_142143401_JID_2928_Energie_neutraal
 ---------------------------------------
 Structure from the checkpoint file:  "JID_2928.chk"
 Charge =  0 Multiplicity = 1

 SCF Done:  E(RB3LYP) =  -505.352983507     A.U. after   14 cycles
 Normal termination of Gaussian 16 at Wed Dec  9 18:33:23 2020.

 ----------------------------------------------------------------------
 # B3LYP/6-311++G(d,p) empiricaldispersion=gd3bj scf=xqc pop=npa geom=c
 heck
 ----------------------------------------------------------------------

 -------------------------------------
 CID_142143401_JID_2928_Energie_kation
 -------------------------------------
 Structure from the checkpoint file:  "JID_2928.chk"
 Charge =  1 Multiplicity = 2

 SCF Done:  E(UB3LYP) =  -505.073114075     A.U. after   18 cycles
 Normal termination of Gaussian 16 at Wed Dec  9 18:40:10 2020.
 Gaussian 16:  ES64L-G16RevA.03 25-Dec-2016

 ----------------------------------------------------------------------
 # B3LYP/6-311++G(d,p) empiricaldispersion=gd3bj scf=xqc pop=npa geom=c
 heck
 ----------------------------------------------------------------------

 ------------------------------------
 CID_142143401_JID_2928_Energie_anion
 ------------------------------------
 Structure from the checkpoint file:  "JID_2928.chk"
 Charge = -1 Multiplicity = 2

                         Standard orientation:
 ---------------------------------------------------------------------
 Center     Atomic      Atomic             Coordinates (Angstroms)
 Number     Number       Type             X           Y           Z
 ---------------------------------------------------------------------
      1          6           0        1.602682   -1.677767   -0.778969
      2          6           0        1.621858   -0.377577    0.051106
      3          6           0        1.701751   -0.720047    1.555976
      4          6           0        2.908080    0.386163   -0.325353
      5          6           0        0.362085    0.486676   -0.180466
      6          6           0       -0.904224    0.010756   -0.029543
      7          6           0       -2.124653    0.794385   -0.258903
      8          6           0       -3.308864    0.533295    0.312103
      9          8           0       -1.095589   -1.281813    0.429096
     10          6           0       -1.793935   -2.165046   -0.451271
     11          6           0        0.570989    1.912996   -0.486799
     12          6           0       -0.009495    2.947053    0.136399
     13          1           0        2.566812   -2.191883   -0.684534
     14          1           0        1.440322   -1.461838   -1.841319
     15          1           0        0.825559   -2.361093   -0.438674
     16          1           0        2.599010   -1.317682    1.761012
     17          1           0        1.759597    0.195087    2.156099
     18          1           0        0.824184   -1.287097    1.872977
     19          1           0        2.956006    0.608463   -1.397850
     20          1           0        3.002472    1.327834    0.224572
     21          1           0        3.777109   -0.233966   -0.080188
     22          1           0       -2.030058    1.639287   -0.933961
     23          1           0       -4.183129    1.138991    0.094964
     24          1           0       -3.430359   -0.273440    1.028961
     25          1           0       -2.791008   -1.790342   -0.698218
     26          1           0       -1.226714   -2.315878   -1.377957
     27          1           0       -1.878936   -3.114989    0.080836
     28          1           0        1.296193    2.133587   -1.268362
     29          1           0        0.199979    3.971663   -0.158726
     30          1           0       -0.699971    2.802477    0.961925
 ---------------------------------------------------------------------

 SCF Done:  E(UB3LYP) =  -505.340413802     A.U. after   33 cycles
 SCF Done:  E(UB3LYP) =  -505.340413801     a.u. after    1 cycles

 The electronic state is 2-A.
 Alpha  occ. eigenvalues --  -19.00690 -10.09310 -10.07520 -10.06556 -10.04129
 Alpha  occ. eigenvalues --  -10.03931 -10.03623 -10.03172 -10.02791 -10.02721
 Alpha  occ. eigenvalues --  -10.02383 -10.01488  -0.91990  -0.70905  -0.66154
 Alpha  occ. eigenvalues --   -0.62875  -0.59844  -0.56692  -0.56272  -0.55137
 Alpha  occ. eigenvalues --   -0.48655  -0.44137  -0.42048  -0.40039  -0.36326
 Alpha  occ. eigenvalues --   -0.34666  -0.33519  -0.32996  -0.32017  -0.30809
 Alpha  occ. eigenvalues --   -0.30463  -0.29397  -0.28454  -0.26990  -0.25954
 Alpha  occ. eigenvalues --   -0.24679  -0.24195  -0.23489  -0.22489  -0.21603
 Alpha  occ. eigenvalues --   -0.20487  -0.19321  -0.16628  -0.15254  -0.13846
 Alpha  occ. eigenvalues --   -0.07909   0.05560
 Alpha virt. eigenvalues --    0.07528   0.08286   0.08703   0.09646   0.10012
 Alpha virt. eigenvalues --    0.10532   0.10893   0.11227   0.11914   0.12648
 Alpha virt. eigenvalues --    0.12923   0.13176   0.13788   0.14289   0.14511

  Beta  occ. eigenvalues --  -19.00681 -10.09284 -10.07386 -10.06567 -10.04114
  Beta  occ. eigenvalues --  -10.03950 -10.03605 -10.03136 -10.02653 -10.02585
  Beta  occ. eigenvalues --  -10.02191 -10.01284  -0.91905  -0.70720  -0.65918
  Beta  occ. eigenvalues --   -0.62577  -0.59654  -0.56650  -0.56214  -0.54872
  Beta  occ. eigenvalues --   -0.48216  -0.43910  -0.41839  -0.39919  -0.36230
  Beta  occ. eigenvalues --   -0.34563  -0.33386  -0.32818  -0.31947  -0.30744
  Beta  occ. eigenvalues --   -0.30398  -0.29274  -0.28305  -0.26925  -0.25895
  Beta  occ. eigenvalues --   -0.24638  -0.24065  -0.23338  -0.22301  -0.21506
  Beta  occ. eigenvalues --   -0.20399  -0.19177  -0.16157  -0.14637  -0.13291
  Beta  occ. eigenvalues --   -0.06699
  Beta virt. eigenvalues --    0.07588   0.08547   0.08895   0.09511   0.10043
  Beta virt. eigenvalues --    0.10230   0.10600   0.11042   0.11344   0.11946
  Beta virt. eigenvalues --    0.12643   0.13292   0.13418   0.13782   0.14346

 Mulliken charges and spin densities:
               1          2
     1  C   -0.181329  -0.547845
     2  C   -0.797137   1.703813
     3  C   -0.096127  -0.618085
     4  C   -0.231661  -0.380130
     5  C    1.129590  -0.659531
     6  C    0.089688  -0.564233
     7  C   -0.213404   0.585629
     8  C   -0.119526  -0.517598
     9  O   -0.090529  -0.003928
    10  C    0.204843  -0.518869
    11  C   -0.409860   0.440044
    12  C   -0.343070  -0.296857
    13  H    0.079321   0.046671
    14  H    0.060129   0.075211
    15  H   -0.032322   0.163330
    16  H   -0.178248   0.306049
    17  H    0.050525   0.063326
    18  H    0.105670   0.103720
    19  H   -0.016553   0.137546
    20  H    0.123375   0.028642
    21  H   -0.076410   0.199706
    22  H   -0.058626   0.238505
    23  H    0.043900   0.057232
    24  H    0.036427   0.067677
    25  H    0.150322  -0.006864
    26  H   -0.041846   0.166513
    27  H   -0.133536   0.261122
    28  H   -0.057368   0.252693
    29  H   -0.099720   0.186304
    30  H    0.103482   0.030207
 Sum of Mulliken charges =  -1.00000   1.00000

 Dipole moment (field-independent basis, Debye):
    X=              1.0779    Y=             -1.5666    Z=             -0.9719  Tot=              2.1356
 Quadrupole moment (field-independent basis, Debye-Ang):
   XX=           -116.2262   YY=           -112.8995   ZZ=            -98.6726
   XY=              4.7141   XZ=              0.6226   YZ=              4.0073

 Summary of Natural Population Analysis:

                                       Natural Population
                Natural  -----------------------------------------------
    Atom  No    Charge         Core      Valence    Rydberg      Total
 -----------------------------------------------------------------------
      C    1   -0.27809      0.99962     2.27260    0.00587     3.27809
      C    2   -0.05197      0.99957     2.04072    0.01167     3.05197
      C    3   -0.28178      0.99962     2.27484    0.00732     3.28178
      C    4   -0.28227      0.99964     2.27702    0.00560     3.28227
      C    5   -0.00948      0.99941     1.99586    0.01421     3.00948
      C    6    0.16609      0.99929     1.81910    0.01552     2.83391
      C    7   -0.11135      0.99953     2.10230    0.00952     3.11135
      C    8   -0.17061      0.99958     2.16268    0.00836     3.17061
      O    9   -0.29792      0.99986     3.28745    0.01060     4.29792
      C   10   -0.09802      0.99958     2.09099    0.00745     3.09802
      C   11   -0.10875      0.99955     2.09706    0.01213     3.10875
      C   12   -0.15490      0.99956     2.14795    0.00739     3.15490
      H   13    0.09058      0.00000     0.40848    0.00094     0.40942
      H   14    0.09637      0.00000     0.40241    0.00123     0.40363
      H   15    0.10436      0.00000     0.39394    0.00169     0.39564
      H   16    0.09065      0.00000     0.40836    0.00098     0.40935
      H   17    0.09815      0.00000     0.40110    0.00074     0.40185
      H   18    0.11001      0.00000     0.38863    0.00137     0.38999
      H   19    0.09633      0.00000     0.40272    0.00095     0.40367
      H   20    0.10323      0.00000     0.39595    0.00083     0.39677
      H   21    0.09494      0.00000     0.40418    0.00088     0.40506
      H   22    0.10030      0.00000     0.39777    0.00193     0.39970
      H   23    0.08544      0.00000     0.41355    0.00101     0.41456
      H   24    0.08668      0.00000     0.41184    0.00148     0.41332
      H   25    0.08876      0.00000     0.40969    0.00156     0.41124
      H   26    0.07931      0.00000     0.41917    0.00152     0.42069
      H   27    0.08446      0.00000     0.41416    0.00139     0.41554
      H   28    0.09232      0.00000     0.40624    0.00143     0.40768
      H   29    0.08504      0.00000     0.41394    0.00103     0.41496
      H   30    0.09215      0.00000     0.40662    0.00123     0.40785
 =======================================================================
   * Total *   -0.00000     11.99483    33.86733    0.13784    46.00000

 Normal termination of Gaussian 16 at Wed Dec  9 18:52:42 2020.
