 Gaussian 16, Revision A.03,

 -----------------------------------------------------------
 # opt freq B3LYP/6-31G(d) empiricaldispersion=gd3bj scf=xqc
 -----------------------------------------------------------

 -------------------------------
 CID_118116829_JID_2691_neutraal
 -------------------------------
 Symbolic Z-matrix:
 Charge =  0 Multiplicity = 1

 SCF Done:  E(RB3LYP) =  -507.697752652     A.U. after   13 cycles
 SCF Done:  E(RB3LYP) =  -507.700713020     A.U. after   10 cycles
 SCF Done:  E(RB3LYP) =  -507.700726588     A.U. after   10 cycles
 SCF Done:  E(RB3LYP) =  -507.701334727     A.U. after   10 cycles
 SCF Done:  E(RB3LYP) =  -507.701497649     A.U. after   10 cycles
 SCF Done:  E(RB3LYP) =  -507.701509171     A.U. after    9 cycles
 SCF Done:  E(RB3LYP) =  -507.701523593     A.U. after    9 cycles
 SCF Done:  E(RB3LYP) =  -507.701544099     A.U. after    8 cycles
 SCF Done:  E(RB3LYP) =  -507.701546007     A.U. after    7 cycles
 SCF Done:  E(RB3LYP) =  -507.701546571     A.U. after    7 cycles
 SCF Done:  E(RB3LYP) =  -507.701546672     A.U. after    6 cycles
 Optimization completed.
    -- Stationary point found.
 Normal termination of Gaussian 16 at Wed Dec  9 17:54:21 2020.

 --------------------------------------------------------------------
 #N Geom=AllCheck Guess=TCheck SCRF=Check GenChk RB3LYP/6-31G(d) Freq
 --------------------------------------------------------------------

 Structure from the checkpoint file:  "JID_2691.chk"
 -------------------------------
 CID_118116829_JID_2691_neutraal
 -------------------------------
 Charge =  0 Multiplicity = 1

 SCF Done:  E(RB3LYP) =  -507.701546672     A.U. after    1 cycles

  Exact polarizability: 126.919   0.695 118.866  -0.282   0.535 101.865
 Approx polarizability: 160.680  -2.163 157.403   0.322   1.625 160.095

                      1                      2                      3
                      A                      A                      A
 Frequencies --     61.1813                82.1828               107.2920
 Red. masses --      2.8411                 2.2749                 2.0128
 Frc consts  --      0.0063                 0.0091                 0.0137
 IR Inten    --      0.1880                 0.0844                 0.0797

                      4                      5                      6
                      A                      A                      A
 Frequencies --    132.1796               168.8198               201.9999
 Red. masses --      2.3159                 2.6269                 1.5948
 Frc consts  --      0.0238                 0.0441                 0.0383
 IR Inten    --      0.2450                 0.2238                 0.1411

                      7                      8                      9
                      A                      A                      A
 Frequencies --    219.4533               230.9613               251.7560
 Red. masses --      1.9285                 1.4842                 1.4335
 Frc consts  --      0.0547                 0.0466                 0.0535
 IR Inten    --      0.9826                 0.2092                 0.8748

                     10                     11                     12
                      A                      A                      A
 Frequencies --    265.8433               268.6840               314.3737
 Red. masses --      2.0371                 1.7331                 1.4790
 Frc consts  --      0.0848                 0.0737                 0.0861
 IR Inten    --      0.7339                 0.8959                47.6628

                     13                     14                     15
                      A                      A                      A
 Frequencies --    319.8937               331.8516               349.7749
 Red. masses --      1.7191                 2.2330                 2.2244
 Frc consts  --      0.1036                 0.1449                 0.1603
 IR Inten    --     44.2259                11.8491                 6.4716

                     16                     17                     18
                      A                      A                      A
 Frequencies --    393.0994               407.6621               452.0451
 Red. masses --      2.5169                 2.5982                 2.3994
 Frc consts  --      0.2292                 0.2544                 0.2889
 IR Inten    --      1.2444                 2.4410                 2.5147

                     19                     20                     21
                      A                      A                      A
 Frequencies --    484.6938               570.9300               600.7396
 Red. masses --      2.3564                 2.1853                 2.9644
 Frc consts  --      0.3262                 0.4197                 0.6303
 IR Inten    --      4.8035                 2.5364                 4.6514

                     22                     23                     24
                      A                      A                      A
 Frequencies --    632.3246               757.0392               792.4355
 Red. masses --      2.6357                 2.9146                 1.6181
 Frc consts  --      0.6209                 0.9841                 0.5987
 IR Inten    --      2.1347                 1.0850                 4.3631

                     25                     26                     27
                      A                      A                      A
 Frequencies --    801.5221               820.1214               859.8570
 Red. masses --      1.3013                 1.5239                 1.8588
 Frc consts  --      0.4926                 0.6039                 0.8097
 IR Inten    --      0.2364                 3.1768                 1.1878

                     28                     29                     30
                      A                      A                      A
 Frequencies --    867.2765               912.3938               938.1987
 Red. masses --      2.0032                 2.0345                 2.3903
 Frc consts  --      0.8878                 0.9979                 1.2397
 IR Inten    --      2.6234                 7.9801                 0.5693

                     31                     32                     33
                      A                      A                      A
 Frequencies --    965.0511               978.5867               989.4204
 Red. masses --      1.8162                 1.9211                 1.3043
 Frc consts  --      0.9966                 1.0839                 0.7523
 IR Inten    --      1.5873                19.1727                 1.7859

                     34                     35                     36
                      A                      A                      A
 Frequencies --   1006.0771              1016.9661              1035.7771
 Red. masses --      2.2152                 1.6839                 2.1185
 Frc consts  --      1.3211                 1.0261                 1.3391
 IR Inten    --     31.2793                 3.7163                 0.8024

                     37                     38                     39
                      A                      A                      A
 Frequencies --   1054.5544              1065.1594              1072.4902
 Red. masses --      2.5377                 1.6234                 2.0999
 Frc consts  --      1.6627                 1.0852                 1.4231
 IR Inten    --      1.0069                 1.7345                 1.1026

                     40                     41                     42
                      A                      A                      A
 Frequencies --   1102.6125              1117.6097              1135.5600
 Red. masses --      1.5697                 1.4423                 1.6747
 Frc consts  --      1.1244                 1.0614                 1.2723
 IR Inten    --      5.2931                 5.8666                16.5101

                     43                     44                     45
                      A                      A                      A
 Frequencies --   1148.6834              1184.6988              1202.2685
 Red. masses --      1.9177                 2.5442                 1.8014
 Frc consts  --      1.4908                 2.1039                 1.5341
 IR Inten    --     11.2409                10.5717                 0.1967

                     46                     47                     48
                      A                      A                      A
 Frequencies --   1224.0872              1237.1183              1282.0463
 Red. masses --      1.7636                 1.8340                 1.3732
 Frc consts  --      1.5569                 1.6538                 1.3298
 IR Inten    --      5.0337                 6.2196                16.0241

                     49                     50                     51
                      A                      A                      A
 Frequencies --   1298.3665              1306.7673              1318.0155
 Red. masses --      1.2168                 1.2786                 1.2653
 Frc consts  --      1.2085                 1.2864                 1.2950
 IR Inten    --      7.3372                 5.0192                 0.9832

                     52                     53                     54
                      A                      A                      A
 Frequencies --   1345.8000              1347.5023              1353.0965
 Red. masses --      1.3311                 1.4191                 1.3106
 Frc consts  --      1.4204                 1.5182                 1.4138
 IR Inten    --     14.1121                 2.3574                 0.6166

                     55                     56                     57
                      A                      A                      A
 Frequencies --   1374.1599              1375.6164              1392.0494
 Red. masses --      1.3928                 1.2838                 1.5263
 Frc consts  --      1.5496                 1.4313                 1.7426
 IR Inten    --      4.5703                 2.8889                 6.6014

                     58                     59                     60
                      A                      A                      A
 Frequencies --   1398.1960              1409.2615              1423.1910
 Red. masses --      1.4109                 1.4241                 1.4335
 Frc consts  --      1.6251                 1.6664                 1.7107
 IR Inten    --      4.4036                 1.1853                 8.6301

                     61                     62                     63
                      A                      A                      A
 Frequencies --   1438.8608              1440.7603              1443.9672
 Red. masses --      1.2660                 1.2356                 1.3143
 Frc consts  --      1.5443                 1.5112                 1.6146
 IR Inten    --      4.3745                10.0373                 2.1526

                     64                     65                     66
                      A                      A                      A
 Frequencies --   1506.1413              1512.7217              1519.0193
 Red. masses --      1.0858                 1.0758                 1.0785
 Frc consts  --      1.4513                 1.4505                 1.4663
 IR Inten    --      0.8638                 0.8443                 2.1799

                     67                     68                     69
                      A                      A                      A
 Frequencies --   1521.7600              1525.9965              1528.9498
 Red. masses --      1.0739                 1.0473                 1.0414
 Frc consts  --      1.4652                 1.4369                 1.4344
 IR Inten    --      3.7041                 1.2255                10.4512

                     70                     71                     72
                      A                      A                      A
 Frequencies --   1534.6511              1537.7988              1544.1678
 Red. masses --      1.0713                 1.0724                 1.0619
 Frc consts  --      1.4865                 1.4942                 1.4919
 IR Inten    --      4.6234                 7.9028                 9.2369

                     73                     74                     75
                      A                      A                      A
 Frequencies --   1547.5074              1551.2398              2976.8682
 Red. masses --      1.0685                 1.0521                 1.0826
 Frc consts  --      1.5076                 1.4917                 5.6525
 IR Inten    --      1.3510                 2.0342                34.3197

                     76                     77                     78
                      A                      A                      A
 Frequencies --   3002.6543              3033.3496              3039.4488
 Red. masses --      1.0689                 1.0759                 1.0623
 Frc consts  --      5.6779                 5.8325                 5.7823
 IR Inten    --     36.0244                16.0403                72.9476

                     79                     80                     81
                      A                      A                      A
 Frequencies --   3040.0276              3041.5284              3051.3794
 Red. masses --      1.0615                 1.0465                 1.0771
 Frc consts  --      5.7802                 5.7038                 5.9090
 IR Inten    --      5.4307                21.4149                42.7913

                     82                     83                     84
                      A                      A                      A
 Frequencies --   3060.5693              3062.7205              3066.2594
 Red. masses --      1.0803                 1.0464                 1.0432
 Frc consts  --      5.9621                 5.7833                 5.7787
 IR Inten    --     26.0410                47.5538                10.4594

                     85                     86                     87
                      A                      A                      A
 Frequencies --   3070.2746              3085.8123              3096.5017
 Red. masses --      1.0593                 1.0994                 1.0965
 Frc consts  --      5.8835                 6.1681                 6.1945
 IR Inten    --     32.9501                36.9209                36.3051

                     88                     89                     90
                      A                      A                      A
 Frequencies --   3096.9590              3111.1426              3115.3593
 Red. masses --      1.0974                 1.1018                 1.1011
 Frc consts  --      6.2013                 6.2833                 6.2963
 IR Inten    --     10.9133                80.5229                56.4559

                     91                     92                     93
                      A                      A                      A
 Frequencies --   3120.9916              3124.9930              3126.2457
 Red. masses --      1.0996                 1.0998                 1.0989
 Frc consts  --      6.3105                 6.3279                 6.3278
 IR Inten    --     14.7572                33.9291                30.4278

                     94                     95                     96
                      A                      A                      A
 Frequencies --   3142.1242              3162.7241              3725.9883
 Red. masses --      1.1020                 1.1002                 1.0660
 Frc consts  --      6.4102                 6.4839                 8.7191
 IR Inten    --     36.4271                12.9785                 5.8637

 - Thermochemistry -
 -------------------
 Temperature   298.150 Kelvin.  Pressure   1.00000 Atm.
 Atom     1 has atomic number  6 and mass  12.00000

 Molecular mass:   170.16707 amu.
 Principal axes and moments of inertia in atomic units:
                           1         2         3
     Eigenvalues --  1606.455142289.540903163.00346
           X            0.99998  -0.00550   0.00243
           Y            0.00553   0.99991  -0.01196
           Z           -0.00237   0.01198   0.99993
 This molecule is an asymmetric top.
 Rotational symmetry number  1.
 Warning -- assumption of classical behavior for rotation
           may cause significant error
 Rotational temperatures (Kelvin)      0.05392     0.03783     0.02738
 Rotational constants (GHZ):           1.12343     0.78825     0.57058
 Zero-point vibrational energy     832988.7 (Joules/Mol)
                                  199.08908 (Kcal/Mol)
 Warning -- explicit consideration of  21 degrees of freedom as
           vibrations may cause significant error
 Vibrational temperatures:     88.03   118.24   154.37   190.18   242.89
          (Kelvin)            290.63   315.74   332.30   362.22   382.49
                              386.58   452.31   460.26   477.46   503.25
                              565.58   586.53   650.39   697.37   821.44
                              864.33   909.77  1089.21  1140.14  1153.21
                             1179.97  1237.14  1247.82  1312.73  1349.86
                             1388.49  1407.97  1423.56  1447.52  1463.19
                             1490.25  1517.27  1532.53  1543.07  1586.41
                             1607.99  1633.82  1652.70  1704.52  1729.80
                             1761.19  1779.94  1844.58  1868.06  1880.15
                             1896.33  1936.31  1938.76  1946.80  1977.11
                             1979.21  2002.85  2011.69  2027.61  2047.65
                             2070.20  2072.93  2077.55  2167.00  2176.47
                             2185.53  2189.47  2195.57  2199.82  2208.02
                             2212.55  2221.71  2226.52  2231.89  4283.05
                             4320.15  4364.31  4373.09  4373.92  4376.08
                             4390.25  4403.48  4406.57  4411.66  4417.44
                             4439.80  4455.18  4455.83  4476.24  4482.31
                             4490.41  4496.17  4497.97  4520.82  4550.45
                             5360.87

 Zero-point correction=                           0.317269 (Hartree/Particle)
 Thermal correction to Energy=                    0.331031
 Thermal correction to Enthalpy=                  0.331975
 Thermal correction to Gibbs Free Energy=         0.278362
 Sum of electronic and zero-point Energies=           -507.384278
 Sum of electronic and thermal Energies=              -507.370516
 Sum of electronic and thermal Enthalpies=            -507.369572
 Sum of electronic and thermal Free Energies=         -507.423184

                     E (Thermal)             CV                S
                      KCal/Mol        Cal/Mol-Kelvin    Cal/Mol-Kelvin
 Total                  207.725             53.810            112.837
 Electronic               0.000              0.000              0.000
 Translational            0.889              2.981             41.303
 Rotational               0.889              2.981             30.832
 Vibrational            205.947             47.848             40.703
 Vibration     1          0.597              1.973              4.419
 Vibration     2          0.600              1.961              3.838
 Vibration     3          0.606              1.943              3.317
 Vibration     4          0.612              1.921              2.914
 Vibration     5          0.625              1.881              2.449
 Vibration     6          0.639              1.837              2.115
 Vibration     7          0.647              1.811              1.964
 Vibration     8          0.653              1.794              1.871
 Vibration     9          0.664              1.760              1.718
 Vibration    10          0.672              1.736              1.623
 Vibration    11          0.673              1.731              1.605
 Vibration    12          0.702              1.646              1.339
 Vibration    13          0.706              1.635              1.311
 Vibration    14          0.714              1.612              1.251
 Vibration    15          0.727              1.576              1.167
 Vibration    16          0.760              1.485              0.988
 Vibration    17          0.772              1.454              0.935
 Vibration    18          0.811              1.356              0.790
 Vibration    19          0.841              1.284              0.698
 Vibration    20          0.927              1.094              0.502
 Vibration    21          0.959              1.030              0.448

 Optimization completed.
    -- Stationary point found.
 Normal termination of Gaussian 16 at Wed Dec  9 18:04:35 2020.

 ----------------------------------------------------------------------
 # B3LYP/6-311++G(d,p) empiricaldispersion=gd3bj scf=xqc pop=npa geom=c
 heck
 ----------------------------------------------------------------------

 ---------------------------------------
 CID_118116829_JID_2691_Energie_neutraal
 ---------------------------------------
 Structure from the checkpoint file:  "JID_2691.chk"
 Charge =  0 Multiplicity = 1

 SCF Done:  E(RB3LYP) =  -507.850731982     A.U. after   13 cycles
 Normal termination of Gaussian 16 at Wed Dec  9 18:08:36 2020.

 ----------------------------------------------------------------------
 # B3LYP/6-311++G(d,p) empiricaldispersion=gd3bj scf=xqc pop=npa geom=c
 heck
 ----------------------------------------------------------------------

 -------------------------------------
 CID_118116829_JID_2691_Energie_kation
 -------------------------------------
 Structure from the checkpoint file:  "JID_2691.chk"
 Charge =  1 Multiplicity = 2

 SCF Done:  E(UB3LYP) =  -507.507501657     A.U. after   33 cycles
 SCF Done:  E(UB3LYP) =  -507.507501668     a.u. after    2 cycles
 Normal termination of Gaussian 16 at Wed Dec  9 18:28:43 2020.
 Gaussian 16:  ES64L-G16RevA.03 25-Dec-2016

 ----------------------------------------------------------------------
 # B3LYP/6-311++G(d,p) empiricaldispersion=gd3bj scf=xqc pop=npa geom=c
 heck
 ----------------------------------------------------------------------

 ------------------------------------
 CID_118116829_JID_2691_Energie_anion
 ------------------------------------
 Structure from the checkpoint file:  "JID_2691.chk"
 Charge = -1 Multiplicity = 2

                         Standard orientation:
 ---------------------------------------------------------------------
 Center     Atomic      Atomic             Coordinates (Angstroms)
 Number     Number       Type             X           Y           Z
 ---------------------------------------------------------------------
      1          6           0        3.651389    0.189367   -0.054578
      2          6           0        2.157385    0.512402   -0.159420
      3          6           0        1.261196   -0.720366   -0.379359
      4          6           0        1.367389   -1.732022    0.772287
      5          6           0       -0.192755   -0.344591   -0.789398
      6          6           0       -1.020855   -1.602848   -1.173836
      7          6           0       -1.940135   -1.866267    0.025326
      8          6           0       -2.369636   -0.451138    0.410706
      9          6           0       -1.103877    0.433859    0.235876
     10          6           0       -1.520645    1.834800   -0.253718
     11          6           0       -0.405051    2.874615   -0.346221
     12          8           0       -0.408317    0.545976    1.489355
     13          1           0        3.884958   -0.386887    0.846753
     14          1           0        4.246338    1.109112   -0.017099
     15          1           0        3.994348   -0.393208   -0.919468
     16          1           0        1.826413    1.045444    0.736450
     17          1           0        2.012005    1.198267   -1.004522
     18          1           0        1.657276   -1.226504   -1.275437
     19          1           0        1.002838   -1.301996    1.707073
     20          1           0        0.791929   -2.639226    0.562201
     21          1           0        2.407113   -2.044725    0.912860
     22          1           0       -0.084639    0.291018   -1.676705
     23          1           0       -0.383548   -2.455264   -1.431458
     24          1           0       -1.637851   -1.387565   -2.056005
     25          1           0       -1.379787   -2.324140    0.846939
     26          1           0       -2.783122   -2.523815   -0.212732
     27          1           0       -2.768005   -0.366374    1.428667
     28          1           0       -3.154642   -0.107305   -0.275700
     29          1           0       -2.011814    1.723871   -1.229367
     30          1           0       -2.301054    2.204883    0.430504
     31          1           0        0.328963    2.610944   -1.113123
     32          1           0       -0.816076    3.857455   -0.601855
     33          1           0        0.127829    2.961809    0.605030
     34          1           0       -0.999366    1.019536    2.096173
 ---------------------------------------------------------------------

 SCF Done:  E(UB3LYP) =  -507.835522386     A.U. after   28 cycles

 The electronic state is 2-A.
 Alpha  occ. eigenvalues --  -19.00807 -10.11600 -10.06564 -10.06276 -10.05794
 Alpha  occ. eigenvalues --  -10.05658 -10.05627 -10.05464 -10.05301 -10.05129
 Alpha  occ. eigenvalues --  -10.04571 -10.04413  -0.91298  -0.73221  -0.69046
 Alpha  occ. eigenvalues --   -0.65937  -0.62650  -0.59127  -0.58504  -0.53722
 Alpha  occ. eigenvalues --   -0.50156  -0.47758  -0.46558  -0.42814  -0.37808
 Alpha  occ. eigenvalues --   -0.37498  -0.37087  -0.34629  -0.33398  -0.33179
 Alpha  occ. eigenvalues --   -0.31225  -0.30696  -0.29529  -0.28298  -0.27403
 Alpha  occ. eigenvalues --   -0.26887  -0.26334  -0.25773  -0.24925  -0.23562
 Alpha  occ. eigenvalues --   -0.22826  -0.22701  -0.22241  -0.22040  -0.20629
 Alpha  occ. eigenvalues --   -0.19742  -0.18332  -0.15947   0.04644
 Alpha virt. eigenvalues --    0.06892   0.07324   0.07785   0.08846   0.09254
 Alpha virt. eigenvalues --    0.09460   0.09883   0.10376   0.11473   0.11811
 Alpha virt. eigenvalues --    0.12190   0.12463   0.12762   0.13289   0.13625

  Beta  occ. eigenvalues --  -19.00770 -10.11599 -10.06558 -10.06264 -10.05780
  Beta  occ. eigenvalues --  -10.05642 -10.05616 -10.05431 -10.05278 -10.05120
  Beta  occ. eigenvalues --  -10.04546 -10.04402  -0.91215  -0.73188  -0.69025
  Beta  occ. eigenvalues --   -0.65887  -0.62624  -0.59092  -0.58460  -0.53684
  Beta  occ. eigenvalues --   -0.50083  -0.47699  -0.46513  -0.42761  -0.37769
  Beta  occ. eigenvalues --   -0.37442  -0.37044  -0.34597  -0.33373  -0.33149
  Beta  occ. eigenvalues --   -0.31203  -0.30649  -0.29497  -0.28269  -0.27373
  Beta  occ. eigenvalues --   -0.26860  -0.26302  -0.25734  -0.24896  -0.23529
  Beta  occ. eigenvalues --   -0.22799  -0.22662  -0.22199  -0.22011  -0.20601
  Beta  occ. eigenvalues --   -0.19719  -0.18283  -0.15909
  Beta virt. eigenvalues --    0.06730   0.07614   0.07993   0.08536   0.09178
  Beta virt. eigenvalues --    0.09633   0.09977   0.10368   0.10778   0.11734
  Beta virt. eigenvalues --    0.12097   0.12587   0.12912   0.13060   0.13606

 Mulliken charges and spin densities:
               1          2
     1  C    0.277454  -1.047208
     2  C   -0.717791   0.401638
     3  C    0.940761  -0.797225
     4  C    0.102444  -0.805462
     5  C    0.896209  -0.344777
     6  C    0.471111  -1.033979
     7  C   -0.526181   0.352723
     8  C    1.448944  -1.798019
     9  C   -2.607328   2.482884
    10  C    0.178275  -0.530048
    11  C    0.942594  -1.506720
    12  O   -0.224604   0.032374
    13  H    0.007816   0.127187
    14  H   -0.017531   0.147101
    15  H   -0.076820   0.207280
    16  H    0.114869   0.059901
    17  H    0.016746   0.087593
    18  H   -0.036168   0.202943
    19  H   -0.036113   0.236594
    20  H    0.091615   0.020216
    21  H    0.130200  -0.013217
    22  H   -0.100480   0.327285
    23  H   -0.023426   0.179803
    24  H   -0.322970   0.479386
    25  H    0.168176  -0.071375
    26  H   -0.264334   0.446296
    27  H   -0.266712   0.416579
    28  H   -0.095348   0.246800
    29  H   -0.263622   0.424164
    30  H   -0.510192   0.664523
    31  H    0.000117   0.130934
    32  H   -0.519639   0.679060
    33  H   -0.010924   0.156403
    34  H   -0.167149   0.438363
 Sum of Mulliken charges =  -1.00000   1.00000

 Dipole moment (field-independent basis, Debye):
    X=              3.5891    Y=             -3.3774    Z=              0.3483  Tot=              4.9406
 Quadrupole moment (field-independent basis, Debye-Ang):
   XX=           -133.9959   YY=           -125.0891   ZZ=           -118.6775
   XY=              4.5328   XZ=              0.2833   YZ=             -2.3571

 Summary of Natural Population Analysis:

                                       Natural Population
                Natural  -----------------------------------------------
    Atom  No    Charge         Core      Valence    Rydberg      Total
 -----------------------------------------------------------------------
      C    1   -0.28294      0.99967     2.27926    0.00401     3.28294
      C    2   -0.19342      0.99961     2.18499    0.00882     3.19342
      C    3   -0.10241      0.99958     2.09152    0.01132     3.10241
      C    4   -0.29100      0.99964     2.28637    0.00499     3.29100
      C    5   -0.10909      0.99954     2.09655    0.01299     3.10909
      C    6   -0.18977      0.99962     2.18106    0.00909     3.18977
      C    7   -0.19272      0.99963     2.18532    0.00777     3.19272
      C    8   -0.19704      0.99958     2.18810    0.00935     3.19704
      C    9    0.13875      0.99949     1.84421    0.01756     2.86125
      C   10   -0.19806      0.99958     2.18878    0.00971     3.19806
      C   11   -0.28676      0.99966     2.28112    0.00598     3.28676
      O   12   -0.38423      0.99989     3.37682    0.00753     4.38423
      H   13    0.09431      0.00000     0.40467    0.00103     0.40569
      H   14    0.09666      0.00000     0.40255    0.00080     0.40334
      H   15    0.09245      0.00000     0.40642    0.00112     0.40755
      H   16    0.10708      0.00000     0.39129    0.00163     0.39292
      H   17    0.09357      0.00000     0.40501    0.00141     0.40643
      H   18    0.08919      0.00000     0.40887    0.00193     0.41081
      H   19    0.11108      0.00000     0.38766    0.00126     0.38892
      H   20    0.09524      0.00000     0.40385    0.00092     0.40476
      H   21    0.09403      0.00000     0.40510    0.00087     0.40597
      H   22    0.10314      0.00000     0.39494    0.00192     0.39686
      H   23    0.09711      0.00000     0.40189    0.00100     0.40289
      H   24    0.09823      0.00000     0.40029    0.00148     0.40177
      H   25    0.09584      0.00000     0.40264    0.00152     0.40416
      H   26    0.09753      0.00000     0.40156    0.00091     0.40247
      H   27    0.10165      0.00000     0.39702    0.00133     0.39835
      H   28    0.09866      0.00000     0.39950    0.00185     0.40134
      H   29    0.10022      0.00000     0.39793    0.00185     0.39978
      H   30    0.09617      0.00000     0.40167    0.00216     0.40383
      H   31    0.09613      0.00000     0.40246    0.00141     0.40387
      H   32    0.09834      0.00000     0.40066    0.00100     0.40166
      H   33    0.10078      0.00000     0.39772    0.00150     0.39922
      H   34    0.23128      0.00000     0.26391    0.00481     0.26872
 =======================================================================
   * Total *    0.00000     11.99547    35.86171    0.14283    48.00000

 Normal termination of Gaussian 16 at Wed Dec  9 18:38:17 2020.
