 Gaussian 16, Revision A.03,

 -----------------------------------------------------------
 # opt freq B3LYP/6-31G(d) empiricaldispersion=gd3bj scf=xqc
 -----------------------------------------------------------

 -------------------------------
 CID_139535337_JID_5592_neutraal
 -------------------------------
 Symbolic Z-matrix:
 Charge =  0 Multiplicity = 1

 SCF Done:  E(RB3LYP) =  -671.464007128     A.U. after   15 cycles
 SCF Done:  E(RB3LYP) =  -671.466778382     A.U. after   14 cycles
 SCF Done:  E(RB3LYP) =  -671.457932807     A.U. after   16 cycles
 SCF Done:  E(RB3LYP) =  -671.468122280     A.U. after   14 cycles
 SCF Done:  E(RB3LYP) =  -671.468485768     A.U. after   14 cycles
 SCF Done:  E(RB3LYP) =  -671.468624420     A.U. after   13 cycles
 SCF Done:  E(RB3LYP) =  -671.468681558     A.U. after   13 cycles
 SCF Done:  E(RB3LYP) =  -671.468705692     A.U. after   12 cycles
 SCF Done:  E(RB3LYP) =  -671.468719208     A.U. after   11 cycles
 SCF Done:  E(RB3LYP) =  -671.468720651     A.U. after    9 cycles
 SCF Done:  E(RB3LYP) =  -671.468721541     A.U. after   10 cycles
 SCF Done:  E(RB3LYP) =  -671.468722216     A.U. after   11 cycles
 SCF Done:  E(RB3LYP) =  -671.468722499     A.U. after   10 cycles
 SCF Done:  E(RB3LYP) =  -671.468722592     A.U. after    9 cycles
 SCF Done:  E(RB3LYP) =  -671.468722606     A.U. after    8 cycles
 Optimization completed.
    -- Stationary point found.
 Normal termination of Gaussian 16 at Thu Dec 10 16:33:26 2020.

 --------------------------------------------------------------------
 #N Geom=AllCheck Guess=TCheck SCRF=Check GenChk RB3LYP/6-31G(d) Freq
 --------------------------------------------------------------------

 Structure from the checkpoint file:  "JID_5592.chk"
 -------------------------------
 CID_139535337_JID_5592_neutraal
 -------------------------------
 Charge =  0 Multiplicity = 1

 SCF Done:  E(RB3LYP) =  -671.468722606     A.U. after    2 cycles

  Exact polarizability: 256.370   5.766 142.522   0.177   0.027  74.929
 Approx polarizability: 359.415  14.447 259.219   0.982   1.494 107.349

                      1                      2                      3
                      A                      A                      A
 Frequencies --     10.7732                18.0605                48.7012
 Red. masses --      6.9856                 3.2654                 4.1432
 Frc consts  --      0.0005                 0.0006                 0.0058
 IR Inten    --      0.0432                 0.0242                 0.5336

                      4                      5                      6
                      A                      A                      A
 Frequencies --     78.4584                81.9779               136.1894
 Red. masses --      2.9366                 4.2145                 3.5467
 Frc consts  --      0.0107                 0.0167                 0.0388
 IR Inten    --      0.4097                 0.4578                 2.2770

                      7                      8                      9
                      A                      A                      A
 Frequencies --    212.0293               223.0108               229.8161
 Red. masses --      2.5755                 3.1217                 2.2475
 Frc consts  --      0.0682                 0.0915                 0.0699
 IR Inten    --      0.2622                 0.5539                 0.4780

                     10                     11                     12
                      A                      A                      A
 Frequencies --    230.4176               249.1971               269.0274
 Red. masses --      1.0529                 1.0962                 1.8097
 Frc consts  --      0.0329                 0.0401                 0.0772
 IR Inten    --      0.0049                 0.1909                 1.7233

                     13                     14                     15
                      A                      A                      A
 Frequencies --    305.9353               312.9432               367.0231
 Red. masses --      3.0771                 2.9829                 3.1239
 Frc consts  --      0.1697                 0.1721                 0.2479
 IR Inten    --      0.8493                 1.6015                 0.8196

                     16                     17                     18
                      A                      A                      A
 Frequencies --    389.6369               407.2417               449.1266
 Red. masses --      3.8002                 3.1968                 4.2286
 Frc consts  --      0.3399                 0.3124                 0.5026
 IR Inten    --      0.6296                 0.1732                 1.4207

                     19                     20                     21
                      A                      A                      A
 Frequencies --    457.4105               494.7408               572.3152
 Red. masses --      3.0924                 3.2120                 4.7146
 Frc consts  --      0.3812                 0.4632                 0.9098
 IR Inten    --      0.8475                 0.0332                 0.8951

                     22                     23                     24
                      A                      A                      A
 Frequencies --    582.3901               593.3481               673.8646
 Red. masses --      3.9726                 4.4991                 6.2293
 Frc consts  --      0.7939                 0.9332                 1.6666
 IR Inten    --      0.2099                 0.6061                 1.0655

                     25                     26                     27
                      A                      A                      A
 Frequencies --    703.3920               764.8296               768.4379
 Red. masses --      3.6081                 5.0578                 5.3890
 Frc consts  --      1.0518                 1.7432                 1.8749
 IR Inten    --      6.0745                16.1589                 1.2676

                     28                     29                     30
                      A                      A                      A
 Frequencies --    846.9042               851.2696               866.7740
 Red. masses --      1.5765                 8.1249                 1.6133
 Frc consts  --      0.6662                 3.4690                 0.7141
 IR Inten    --     12.7605                39.8463                 0.1065

                     31                     32                     33
                      A                      A                      A
 Frequencies --    873.0028               915.7517               943.2540
 Red. masses --      2.3478                 1.6622                 1.1792
 Frc consts  --      1.0542                 0.8213                 0.6182
 IR Inten    --      2.2486                 6.8107                 0.2332

                     34                     35                     36
                      A                      A                      A
 Frequencies --    954.7455               974.9668               979.4202
 Red. masses --      2.3166                 1.5053                 1.3651
 Frc consts  --      1.2441                 0.8430                 0.7715
 IR Inten    --     35.3461                 0.0473                 2.6474

                     37                     38                     39
                      A                      A                      A
 Frequencies --    982.4207              1015.0533              1043.2089
 Red. masses --      2.2663                 1.1115                 1.5112
 Frc consts  --      1.2887                 0.6747                 0.9690
 IR Inten    --      3.9353                24.6769                 3.2237

                     40                     41                     42
                      A                      A                      A
 Frequencies --   1074.4062              1104.2513              1124.4306
 Red. masses --      1.5238                 4.3271                 2.2727
 Frc consts  --      1.0364                 3.1088                 1.6930
 IR Inten    --      4.5157                46.8055                 1.9393

                     43                     44                     45
                      A                      A                      A
 Frequencies --   1174.2760              1202.9332              1204.5796
 Red. masses --      1.8696                 1.5381                 1.7272
 Frc consts  --      1.5189                 1.3114                 1.4766
 IR Inten    --      1.0531                 3.6367                18.9764

                     46                     47                     48
                      A                      A                      A
 Frequencies --   1210.9338              1275.9026              1303.6665
 Red. masses --      1.6522                 2.3665                 1.6557
 Frc consts  --      1.4274                 2.2699                 1.6579
 IR Inten    --      1.3033                30.0250                 1.5463

                     49                     50                     51
                      A                      A                      A
 Frequencies --   1324.9564              1355.5914              1358.6551
 Red. masses --      1.6998                 1.3311                 1.3541
 Frc consts  --      1.7581                 1.4412                 1.4727
 IR Inten    --      2.0988                 2.3719                45.3401

                     52                     53                     54
                      A                      A                      A
 Frequencies --   1365.5050              1387.0395              1399.4593
 Red. masses --      3.7008                 8.6244                 1.8952
 Frc consts  --      4.0657                 9.7759                 2.1869
 IR Inten    --     50.4318               448.6497                49.7738

                     55                     56                     57
                      A                      A                      A
 Frequencies --   1424.0765              1443.3722              1446.2308
 Red. masses --      1.2238                 1.3566                 1.2866
 Frc consts  --      1.4623                 1.6652                 1.5855
 IR Inten    --      2.5522                 1.1102                 2.1314

                     58                     59                     60
                      A                      A                      A
 Frequencies --   1452.3831              1506.5087              1514.8297
 Red. masses --      1.8290                 1.0478                 1.3059
 Frc consts  --      2.2732                 1.4012                 1.7656
 IR Inten    --      1.6019                 5.6237                19.9136

                     61                     62                     63
                      A                      A                      A
 Frequencies --   1518.2679              1519.3879              1531.2108
 Red. masses --      1.0442                 1.0480                 1.0497
 Frc consts  --      1.4182                 1.4254                 1.4500
 IR Inten    --      0.0215                 2.7350                 6.2837

                     64                     65                     66
                      A                      A                      A
 Frequencies --   1538.3537              1540.3437              1600.1870
 Red. masses --      1.9038                 1.1202                 8.7974
 Frc consts  --      2.6544                 1.5659                13.2723
 IR Inten    --     14.8539                 3.2327                96.2504

                     67                     68                     69
                      A                      A                      A
 Frequencies --   1646.4436              1666.9695              1726.3874
 Red. masses --      6.7429                 6.9742                 5.6781
 Frc consts  --     10.7694                11.4182                 9.9708
 IR Inten    --    109.7022               137.4319                29.3819

                     70                     71                     72
                      A                      A                      A
 Frequencies --   3036.5545              3042.6353              3046.7242
 Red. masses --      1.0832                 1.0353                 1.0365
 Frc consts  --      5.8849                 5.6470                 5.6687
 IR Inten    --     11.8893                23.8422                44.7471

                     73                     74                     75
                      A                      A                      A
 Frequencies --   3069.3896              3107.0466              3113.1387
 Red. masses --      1.0361                 1.1020                 1.1012
 Frc consts  --      5.7509                 6.2682                 6.2878
 IR Inten    --     16.1902                 1.3520                65.7878

                     76                     77                     78
                      A                      A                      A
 Frequencies --   3124.2174              3125.5950              3140.4443
 Red. masses --      1.1029                 1.1026                 1.1004
 Frc consts  --      6.3427                 6.3463                 6.3943
 IR Inten    --     23.6295                39.3516                 6.4867

                     79                     80                     81
                      A                      A                      A
 Frequencies --   3142.0723              3143.3073              3151.1036
 Red. masses --      1.1032                 1.0898                 1.0860
 Frc consts  --      6.4171                 6.3443                 6.3537
 IR Inten    --     16.3793                 5.6603                30.9083

                     82                     83                     84
                      A                      A                      A
 Frequencies --   3185.8694              3215.7756              3257.0253
 Red. masses --      1.0896                 1.0892                 1.0922
 Frc consts  --      6.5161                 6.6366                 6.8264
 IR Inten    --     16.0410                 8.1164                 1.0508

 - Thermochemistry -
 -------------------
 Temperature   298.150 Kelvin.  Pressure   1.00000 Atm.
 Atom     1 has atomic number  6 and mass  12.00000

 Molecular mass:   205.11028 amu.
 Principal axes and moments of inertia in atomic units:
                           1         2         3
     Eigenvalues --  1086.116448152.228208834.26465
           X            0.99992   0.01302  -0.00032
           Y           -0.01302   0.99991  -0.00211
           Z            0.00029   0.00211   1.00000
 This molecule is an asymmetric top.
 Rotational symmetry number  1.
 Warning -- assumption of classical behavior for rotation
           may cause significant error
 Rotational temperatures (Kelvin)      0.07975     0.01062     0.00980
 Rotational constants (GHZ):           1.66165     0.22138     0.20429
 Zero-point vibrational energy     656268.4 (Joules/Mol)
                                  156.85191 (Kcal/Mol)
 Warning -- explicit consideration of  23 degrees of freedom as
           vibrations may cause significant error
 Vibrational temperatures:     15.50    25.99    70.07   112.88   117.95
          (Kelvin)            195.95   305.06   320.86   330.65   331.52
                              358.54   387.07   440.17   450.26   528.06
                              560.60   585.93   646.19   658.11   711.82
                              823.43   837.93   853.70   969.54  1012.02
                             1100.42  1105.61  1218.51  1224.79  1247.09
                             1256.06  1317.56  1357.13  1373.67  1402.76
                             1409.17  1413.48  1460.44  1500.94  1545.83
                             1588.77  1617.80  1689.52  1730.75  1733.12
                             1742.26  1835.74  1875.69  1906.32  1950.39
                             1954.80  1964.66  1995.64  2013.51  2048.93
                             2076.69  2080.80  2089.66  2167.53  2179.50
                             2184.45  2186.06  2203.07  2213.35  2216.21
                             2302.31  2368.87  2398.40  2483.89  4368.92
                             4377.67  4383.56  4416.17  4470.35  4479.11
                             4495.05  4497.03  4518.40  4520.74  4522.52
                             4533.74  4583.76  4626.78  4686.13

 Zero-point correction=                           0.249959 (Hartree/Particle)
 Thermal correction to Energy=                    0.265028
 Thermal correction to Enthalpy=                  0.265972
 Thermal correction to Gibbs Free Energy=         0.204879
 Sum of electronic and zero-point Energies=           -671.218763
 Sum of electronic and thermal Energies=              -671.203694
 Sum of electronic and thermal Enthalpies=            -671.202750
 Sum of electronic and thermal Free Energies=         -671.263844

                     E (Thermal)             CV                S
                      KCal/Mol        Cal/Mol-Kelvin    Cal/Mol-Kelvin
 Total                  166.308             55.748            128.583
 Electronic               0.000              0.000              0.000
 Translational            0.889              2.981             41.859
 Rotational               0.889              2.981             32.725
 Vibrational            164.530             49.786             53.998
 Vibration     1          0.593              1.987              7.863
 Vibration     2          0.593              1.986              6.837
 Vibration     3          0.595              1.978              4.869
 Vibration     4          0.600              1.964              3.929
 Vibration     5          0.600              1.961              3.843
 Vibration     6          0.614              1.917              2.857
 Vibration     7          0.643              1.823              2.026
 Vibration     8          0.649              1.806              1.935
 Vibration     9          0.652              1.795              1.880
 Vibration    10          0.652              1.795              1.876
 Vibration    11          0.662              1.764              1.736
 Vibration    12          0.673              1.730              1.602
 Vibration    13          0.696              1.662              1.384
 Vibration    14          0.701              1.649              1.347
 Vibration    15          0.740              1.540              1.092
 Vibration    16          0.758              1.492              1.002
 Vibration    17          0.772              1.454              0.936
 Vibration    18          0.808              1.363              0.798
 Vibration    19          0.816              1.345              0.774
 Vibration    20          0.850              1.262              0.671
 Vibration    21          0.929              1.091              0.500
 Vibration    22          0.939              1.069              0.481
 Vibration    23          0.951              1.046              0.461

                           ! Non-Optimized Parameters !
 Normal termination of Gaussian 16 at Thu Dec 10 16:43:20 2020.

 ----------------------------------------------------------------------
 # B3LYP/6-311++G(d,p) empiricaldispersion=gd3bj scf=xqc pop=npa geom=c
 heck
 ----------------------------------------------------------------------

 ---------------------------------------
 CID_139535337_JID_5592_Energie_neutraal
 ---------------------------------------
 Structure from the checkpoint file:  "JID_5592.chk"
 Charge =  0 Multiplicity = 1

 SCF Done:  E(RB3LYP) =  -671.653244270     A.U. after   16 cycles
 Normal termination of Gaussian 16 at Thu Dec 10 16:48:47 2020.

 ----------------------------------------------------------------------
 # B3LYP/6-311++G(d,p) empiricaldispersion=gd3bj scf=xqc pop=npa geom=c
 heck
 ----------------------------------------------------------------------

 -------------------------------------
 CID_139535337_JID_5592_Energie_kation
 -------------------------------------
 Structure from the checkpoint file:  "JID_5592.chk"
 Charge =  1 Multiplicity = 2

 SCF Done:  E(UB3LYP) =  -671.343784282     A.U. after   25 cycles
 Normal termination of Gaussian 16 at Thu Dec 10 17:00:35 2020.
 Gaussian 16:  ES64L-G16RevA.03 25-Dec-2016

 ----------------------------------------------------------------------
 # B3LYP/6-311++G(d,p) empiricaldispersion=gd3bj scf=xqc pop=npa geom=c
 heck
 ----------------------------------------------------------------------

 ------------------------------------
 CID_139535337_JID_5592_Energie_anion
 ------------------------------------
 Structure from the checkpoint file:  "JID_5592.chk"
 Charge = -1 Multiplicity = 2

                         Standard orientation:
 ---------------------------------------------------------------------
 Center     Atomic      Atomic             Coordinates (Angstroms)
 Number     Number       Type             X           Y           Z
 ---------------------------------------------------------------------
      1          6           0        2.832257    2.240045   -0.038644
      2          6           0        1.905376    1.051008   -0.017427
      3          6           0        2.305163   -0.299546    0.003042
      4          6           0        1.370688   -1.341939    0.015045
      5          6           0        0.016123   -1.068278    0.011953
      6          6           0       -0.438106    0.263646   -0.008247
      7          6           0        0.525751    1.282741   -0.024888
      8          6           0       -1.856266    0.633697   -0.014197
      9          6           0       -2.906851   -0.199444    0.005423
     10          6           0       -4.346105    0.233056   -0.001770
     11          6           0       -5.062253   -0.299407   -1.255933
     12          6           0       -5.058022   -0.242875    1.277290
     13          7           0        3.716987   -0.694883    0.012348
     14          8           0        3.978181   -1.897526   -0.066707
     15          8           0        4.576273    0.185445    0.101302
     16          1           0        3.454508    2.278782    0.859291
     17          1           0        3.522780    2.198791   -0.884952
     18          1           0        2.244700    3.160548   -0.103781
     19          1           0        1.737458   -2.359846    0.026907
     20          1           0       -0.690011   -1.891271    0.024246
     21          1           0        0.185123    2.314671   -0.044586
     22          1           0       -2.052028    1.705792   -0.036410
     23          1           0       -2.748344   -1.278621    0.028922
     24          1           0       -4.375394    1.330857   -0.026224
     25          1           0       -5.045376   -1.396165   -1.277924
     26          1           0       -6.110888    0.019023   -1.267144
     27          1           0       -4.581628    0.063428   -2.170289
     28          1           0       -4.574400    0.160428    2.172919
     29          1           0       -6.106660    0.075750    1.277764
     30          1           0       -5.040909   -1.337559    1.348183
 ---------------------------------------------------------------------

 SCF Done:  E(UB3LYP) =  -671.694273896     A.U. after   23 cycles

 The electronic state is 2-A.
 Alpha  occ. eigenvalues --  -18.95437 -18.95417 -14.33802 -10.08474 -10.07413
 Alpha  occ. eigenvalues --  -10.07412 -10.06413 -10.05266 -10.05125 -10.04412
 Alpha  occ. eigenvalues --  -10.04268 -10.03992 -10.03927 -10.03852 -10.03758
 Alpha  occ. eigenvalues --   -1.03494  -0.86219  -0.73714  -0.71807  -0.66873
 Alpha  occ. eigenvalues --   -0.63990  -0.61652  -0.59914  -0.57128  -0.53514
 Alpha  occ. eigenvalues --   -0.49040  -0.47484  -0.45124  -0.42531  -0.38398
 Alpha  occ. eigenvalues --   -0.36805  -0.36249  -0.35669  -0.33687  -0.33533
 Alpha  occ. eigenvalues --   -0.32445  -0.31939  -0.30947  -0.30263  -0.28822
 Alpha  occ. eigenvalues --   -0.28247  -0.27504  -0.26365  -0.25982  -0.25189
 Alpha  occ. eigenvalues --   -0.23926  -0.23888  -0.21960  -0.21173  -0.17345
 Alpha  occ. eigenvalues --   -0.14332  -0.13074  -0.12373  -0.10930  -0.10291
 Alpha  occ. eigenvalues --    0.01881
 Alpha virt. eigenvalues --    0.06139   0.08202   0.08303   0.09058   0.09747
 Alpha virt. eigenvalues --    0.10096   0.10928   0.11396   0.11782   0.12131
 Alpha virt. eigenvalues --    0.12185   0.12480   0.13438   0.14030   0.14135

  Beta  occ. eigenvalues --  -18.95034 -18.94988 -14.33335 -10.08493 -10.07391
  Beta  occ. eigenvalues --  -10.07391 -10.06320 -10.05180 -10.05110 -10.04134
  Beta  occ. eigenvalues --  -10.04050 -10.03998 -10.03950 -10.03862 -10.03673
  Beta  occ. eigenvalues --   -1.02651  -0.85437  -0.73426  -0.71626  -0.66511
  Beta  occ. eigenvalues --   -0.63747  -0.61252  -0.59866  -0.56853  -0.53075
  Beta  occ. eigenvalues --   -0.48796  -0.47365  -0.44820  -0.42249  -0.38038
  Beta  occ. eigenvalues --   -0.36644  -0.36077  -0.33530  -0.33407  -0.33156
  Beta  occ. eigenvalues --   -0.32310  -0.31560  -0.30810  -0.30229  -0.28428
  Beta  occ. eigenvalues --   -0.28174  -0.27435  -0.26249  -0.25867  -0.25109
  Beta  occ. eigenvalues --   -0.23859  -0.23201  -0.21802  -0.21093  -0.16407
  Beta  occ. eigenvalues --   -0.12669  -0.11875  -0.11348  -0.10500  -0.09032
  Beta virt. eigenvalues --    0.06101   0.07354   0.08266   0.08616   0.09029
  Beta virt. eigenvalues --    0.10070   0.10871   0.11019   0.11362   0.12117
  Beta virt. eigenvalues --    0.12163   0.12472   0.13369   0.13440   0.14060

 Mulliken charges and spin densities:
               1          2
     1  C   -0.337692  -0.005346
     2  C    1.472039   0.146163
     3  C   -1.773639  -0.018424
     4  C   -1.078197   0.113939
     5  C   -0.914717  -0.017155
     6  C    1.514866   0.183969
     7  C   -0.067154  -0.014440
     8  C   -0.300565  -0.068816
     9  C    0.056406   0.224181
    10  C    0.435159  -0.022154
    11  C   -0.645946  -0.009871
    12  C   -0.644377  -0.010692
    13  N   -0.251469   0.157199
    14  O   -0.135503   0.146106
    15  O   -0.176113   0.164737
    16  H    0.175163   0.005898
    17  H    0.172827   0.005813
    18  H    0.093179   0.000212
    19  H    0.232366  -0.004922
    20  H    0.050342   0.002685
    21  H    0.045473   0.001905
    22  H    0.073817   0.001182
    23  H    0.096747  -0.015377
    24  H    0.154527   0.000724
    25  H    0.128732   0.005258
    26  H    0.109482   0.008929
    27  H    0.138151   0.002156
    28  H    0.138187   0.001825
    29  H    0.109627   0.009050
    30  H    0.128282   0.005268
 Sum of Mulliken charges =  -1.00000   1.00000

 Dipole moment (field-independent basis, Debye):
    X=            -10.6969    Y=              2.6667    Z=             -0.0466  Tot=             11.0244
 Quadrupole moment (field-independent basis, Debye-Ang):
   XX=           -172.0054   YY=           -101.6840   ZZ=            -99.6003
   XY=             10.9163   XZ=             -0.3689   YZ=             -0.5072

 Summary of Natural Population Analysis:

                                       Natural Population
                Natural  -----------------------------------------------
    Atom  No    Charge         Core      Valence    Rydberg      Total
 -----------------------------------------------------------------------
      C    1   -0.29040      0.99964     2.28585    0.00491     3.29040
      C    2    0.01727      0.99950     1.97452    0.00871     2.98273
      C    3    0.04869      0.99936     1.93829    0.01367     2.95131
      C    4   -0.07513      0.99954     2.06620    0.00939     3.07513
      C    5   -0.11420      0.99953     2.10691    0.00775     3.11420
      C    6    0.01233      0.99951     1.97916    0.00900     2.98767
      C    7   -0.10318      0.99943     2.09542    0.00833     3.10318
      C    8   -0.11149      0.99951     2.10309    0.00889     3.11149
      C    9   -0.02991      0.99952     2.02089    0.00949     3.02991
      C   10   -0.12745      0.99961     2.11992    0.00792     3.12745
      C   11   -0.27767      0.99965     2.27346    0.00455     3.27767
      C   12   -0.27767      0.99965     2.27347    0.00455     3.27767
      N   13    0.28908      0.99972     2.18468    0.02653     3.21092
      O   14   -0.20316      0.99990     3.19539    0.00788     4.20316
      O   15   -0.19159      0.99990     3.18357    0.00812     4.19159
      H   16    0.11101      0.00000     0.38781    0.00118     0.38899
      H   17    0.11067      0.00000     0.38810    0.00122     0.38933
      H   18    0.08590      0.00000     0.41299    0.00112     0.41410
      H   19    0.11354      0.00000     0.38523    0.00123     0.38646
      H   20    0.09303      0.00000     0.40556    0.00142     0.40697
      H   21    0.08843      0.00000     0.40998    0.00159     0.41157
      H   22    0.08683      0.00000     0.41165    0.00152     0.41317
      H   23    0.08407      0.00000     0.41477    0.00116     0.41593
      H   24    0.08947      0.00000     0.40843    0.00210     0.41053
      H   25    0.09396      0.00000     0.40516    0.00088     0.40604
      H   26    0.09100      0.00000     0.40812    0.00088     0.40900
      H   27    0.10081      0.00000     0.39843    0.00077     0.39919
      H   28    0.10080      0.00000     0.39843    0.00077     0.39920
      H   29    0.09100      0.00000     0.40812    0.00088     0.40900
      H   30    0.09396      0.00000     0.40516    0.00088     0.40604
 =======================================================================
   * Total *    0.00000     14.99397    39.84876    0.15727    55.00000

 Normal termination of Gaussian 16 at Thu Dec 10 17:10:20 2020.
