 Gaussian 16, Revision A.03,

 -----------------------------------------------------------
 # opt freq B3LYP/6-31G(d) empiricaldispersion=gd3bj scf=xqc
 -----------------------------------------------------------

 -------------------------------
 CID_152698873_JID_3317_neutraal
 -------------------------------
 Symbolic Z-matrix:
 Charge =  0 Multiplicity = 1

 SCF Done:  E(RB3LYP) =  -588.799672810     A.U. after   15 cycles
 SCF Done:  E(RB3LYP) =  -588.805046096     A.U. after   13 cycles
 SCF Done:  E(RB3LYP) =  -588.806738845     A.U. after   13 cycles
 SCF Done:  E(RB3LYP) =  -588.807582577     A.U. after   12 cycles
 SCF Done:  E(RB3LYP) =  -588.807722108     A.U. after   12 cycles
 SCF Done:  E(RB3LYP) =  -588.807764110     A.U. after   11 cycles
 SCF Done:  E(RB3LYP) =  -588.807771368     A.U. after   10 cycles
 SCF Done:  E(RB3LYP) =  -588.807774406     A.U. after    9 cycles
 SCF Done:  E(RB3LYP) =  -588.807775126     A.U. after    8 cycles
 SCF Done:  E(RB3LYP) =  -588.807775504     A.U. after    8 cycles
 SCF Done:  E(RB3LYP) =  -588.809306359     A.U. after   13 cycles
 SCF Done:  E(RB3LYP) =  -588.809224266     A.U. after   14 cycles
 SCF Done:  E(RB3LYP) =  -588.809672365     A.U. after   13 cycles
 SCF Done:  E(RB3LYP) =  -588.809676561     A.U. after   11 cycles
 SCF Done:  E(RB3LYP) =  -588.809677845     A.U. after    8 cycles
 SCF Done:  E(RB3LYP) =  -588.809678017     A.U. after    8 cycles
 Optimization completed.
    -- Stationary point found.

 1\1\GINC-NODE122\FOpt\RB3LYP\6-31G(d)\C8H17N5\VSC10255\09-Dec-2020\0\\
 # opt freq B3LYP/6-31G(d) empiricaldispersion=gd3bj scf=xqc\\CID_15269
 8873_JID_3317_neutraal\\0,1\C,0.8358243615,0.0765669542,-0.1105869029\
 C,0.5184498365,-0.5527933303,1.2532368373\C,1.4244961274,0.0523231694,
 2.3444406056\N,-0.9260286152,-0.515415522,1.5044561329\C,-1.5153132415
 ,-1.5870140455,2.2978266459\C,-1.6026460867,-1.2704066254,3.8023475982
 \N,-2.2656308772,0.0100553975,4.0602730493\C,-1.6946514915,1.102403879
 1,3.2682320542\C,-1.5574559236,0.772687421,1.766007357\C,-3.6672394786

 Normal termination of Gaussian 16 at Wed Dec  9 23:09:23 2020.

 --------------------------------------------------------------------
 #N Geom=AllCheck Guess=TCheck SCRF=Check GenChk RB3LYP/6-31G(d) Freq
 --------------------------------------------------------------------

 Structure from the checkpoint file:  "JID_3317.chk"
 -------------------------------
 CID_152698873_JID_3317_neutraal
 -------------------------------
 Charge =  0 Multiplicity = 1

 SCF Done:  E(RB3LYP) =  -588.809678017     A.U. after    1 cycles

  Exact polarizability: 130.375   7.317 121.940   0.722   7.921  95.417
 Approx polarizability: 163.236  20.894 219.684   1.406  29.278 151.106

                      1                      2                      3
                      A                      A                      A
 Frequencies --     47.8822                61.4205                68.4506
 Red. masses --      3.8130                 4.4709                 3.8148
 Frc consts  --      0.0052                 0.0099                 0.0105
 IR Inten    --      0.5508                 0.4439                 0.2964

                      4                      5                      6
                      A                      A                      A
 Frequencies --     88.4989               135.7697               159.1297
 Red. masses --      4.7945                 5.3920                 3.8695
 Frc consts  --      0.0221                 0.0586                 0.0577
 IR Inten    --      0.0552                 1.4301                 0.3818

                      7                      8                      9
                      A                      A                      A
 Frequencies --    231.6838               234.4514               267.1955
 Red. masses --      1.5138                 1.7087                 3.1566
 Frc consts  --      0.0479                 0.0553                 0.1328
 IR Inten    --      0.8260                 0.9949                 7.6882

                     10                     11                     12
                      A                      A                      A
 Frequencies --    278.7808               304.0024               335.0091
 Red. masses --      1.1160                 3.0298                 1.9152
 Frc consts  --      0.0511                 0.1650                 0.1266
 IR Inten    --      0.2814                 4.1341                 0.4346

                     13                     14                     15
                      A                      A                      A
 Frequencies --    350.8688               428.9322               447.2234
 Red. masses --      2.2031                 2.4273                 2.2038
 Frc consts  --      0.1598                 0.2631                 0.2597
 IR Inten    --      0.2854                 1.4946                 7.5367

                     16                     17                     18
                      A                      A                      A
 Frequencies --    458.4054               467.1826               534.4148
 Red. masses --      2.2404                 2.5416                 3.2601
 Frc consts  --      0.2774                 0.3268                 0.5486
 IR Inten    --      5.3605                 0.2654                 4.7637

                     19                     20                     21
                      A                      A                      A
 Frequencies --    542.4261               582.6825               619.3335
 Red. masses --      2.5317                12.9977                 2.4568
 Frc consts  --      0.4389                 2.6000                 0.5552
 IR Inten    --      1.2518                10.7391                18.8814

                     22                     23                     24
                      A                      A                      A
 Frequencies --    657.5715               716.9058               782.9780
 Red. masses --      5.8395                 2.5626                 3.7002
 Frc consts  --      1.4877                 0.7760                 1.3365
 IR Inten    --     96.8908                 2.5794                 5.1942

                     25                     26                     27
                      A                      A                      A
 Frequencies --    784.1160               838.5809               874.2357
 Red. masses --      6.4261                 1.6313                 2.5064
 Frc consts  --      2.3279                 0.6759                 1.1287
 IR Inten    --    113.5797                 0.0819                 5.2737

                     28                     29                     30
                      A                      A                      A
 Frequencies --    898.1905               928.6644               945.6679
 Red. masses --      2.4974                 1.3262                 1.3469
 Frc consts  --      1.1871                 0.6739                 0.7097
 IR Inten    --      0.7239                 0.3009                 0.3151

                     31                     32                     33
                      A                      A                      A
 Frequencies --    963.1585              1029.4444              1031.6323
 Red. masses --      2.5258                 2.1376                 2.2449
 Frc consts  --      1.3805                 1.3347                 1.4077
 IR Inten    --      1.2579                38.9132                44.8508

                     34                     35                     36
                      A                      A                      A
 Frequencies --   1053.1400              1082.4342              1116.4411
 Red. masses --      2.0842                 1.9011                 2.1056
 Frc consts  --      1.3620                 1.3124                 1.5463
 IR Inten    --     10.5321                 9.7928                12.5547

                     37                     38                     39
                      A                      A                      A
 Frequencies --   1140.1499              1146.9247              1193.3982
 Red. masses --      2.1924                 2.1148                 2.2378
 Frc consts  --      1.6792                 1.6390                 1.8778
 IR Inten    --     33.9683                61.2312                14.6221

                     40                     41                     42
                      A                      A                      A
 Frequencies --   1194.8166              1216.6632              1235.2407
 Red. masses --      2.0504                 1.9331                 2.1421
 Frc consts  --      1.7246                 1.6860                 1.9257
 IR Inten    --     95.6944                17.3702                 2.5190

                     43                     44                     45
                      A                      A                      A
 Frequencies --   1257.3075              1286.6916              1311.4036
 Red. masses --      1.1494                 1.4332                 2.9276
 Frc consts  --      1.0705                 1.3980                 2.9664
 IR Inten    --      5.6179                 7.5760               180.0931

                     46                     47                     48
                      A                      A                      A
 Frequencies --   1359.6708              1376.8327              1385.0992
 Red. masses --      1.3381                 1.3122                 1.2948
 Frc consts  --      1.4575                 1.4656                 1.4635
 IR Inten    --      6.7720                 0.8455                15.3804

                     49                     50                     51
                      A                      A                      A
 Frequencies --   1392.6640              1409.4987              1410.4310
 Red. masses --      1.4105                 1.8015                 1.2121
 Frc consts  --      1.6118                 2.1087                 1.4207
 IR Inten    --     11.3641                 3.3536                19.3671

                     52                     53                     54
                      A                      A                      A
 Frequencies --   1417.6416              1422.6179              1428.0878
 Red. masses --      1.5430                 1.2608                 1.3823
 Frc consts  --      1.8270                 1.5034                 1.6609
 IR Inten    --     49.8690                 7.3541                19.0380

                     55                     56                     57
                      A                      A                      A
 Frequencies --   1429.2074              1442.1514              1445.0183
 Red. masses --      1.1871                 1.3853                 1.2888
 Frc consts  --      1.4286                 1.6975                 1.5855
 IR Inten    --      1.6383                42.5555                 7.6614

                     58                     59                     60
                      A                      A                      A
 Frequencies --   1495.8369              1502.6844              1505.5334
 Red. masses --      1.0926                 1.0827                 1.0836
 Frc consts  --      1.4404                 1.4404                 1.4471
 IR Inten    --      0.3998                 0.4272                 9.4326

                     61                     62                     63
                      A                      A                      A
 Frequencies --   1511.7999              1513.5001              1521.2686
 Red. masses --      1.0741                 1.0944                 1.0858
 Frc consts  --      1.4464                 1.4770                 1.4805
 IR Inten    --      3.0164                 9.1698                 4.1384

                     64                     65                     66
                      A                      A                      A
 Frequencies --   1523.5137              1535.9681              1539.6184
 Red. masses --      1.0551                 1.0532                 1.0590
 Frc consts  --      1.4428                 1.4640                 1.4790
 IR Inten    --      0.3044                11.1140                 2.2873

                     67                     68                     69
                      A                      A                      A
 Frequencies --   2240.6987              3032.1518              3037.2137
 Red. masses --     13.6058                 1.0656                 1.0676
 Frc consts  --     40.2477                 5.7722                 5.8022
 IR Inten    --    508.6621                29.3881                34.8301

                     70                     71                     72
                      A                      A                      A
 Frequencies --   3040.7668              3042.4536              3045.4624
 Red. masses --      1.0633                 1.0655                 1.0577
 Frc consts  --      5.7927                 5.8110                 5.7796
 IR Inten    --     19.1622                 3.7252                 2.5428

                     73                     74                     75
                      A                      A                      A
 Frequencies --   3047.6860              3053.2954              3065.0589
 Red. masses --      1.0522                 1.0392                 1.0649
 Frc consts  --      5.7580                 5.7080                 5.8944
 IR Inten    --     64.4538                21.8730                53.9496

                     76                     77                     78
                      A                      A                      A
 Frequencies --   3090.2507              3091.5077              3096.2505
 Red. masses --      1.0977                 1.1017                 1.1060
 Frc consts  --      6.1760                 6.2039                 6.2469
 IR Inten    --     49.8441                29.1518                58.8600

                     79                     80                     81
                      A                      A                      A
 Frequencies --   3106.0411              3107.6506              3117.1850
 Red. masses --      1.1016                 1.0982                 1.0997
 Frc consts  --      6.2619                 6.2486                 6.2955
 IR Inten    --      1.1330                69.7340                60.9107

                     82                     83                     84
                      A                      A                      A
 Frequencies --   3130.5173              3138.5425              3147.4384
 Red. masses --      1.1010                 1.1024                 1.1041
 Frc consts  --      6.3575                 6.3979                 6.4441
 IR Inten    --     33.1200                27.7691                19.6505

 - Thermochemistry -
 -------------------
 Temperature   298.150 Kelvin.  Pressure   1.00000 Atm.
 Atom     1 has atomic number  6 and mass  12.00000

 Molecular mass:   183.14840 amu.
 Principal axes and moments of inertia in atomic units:
                           1         2         3
     Eigenvalues --  1273.702263537.370774036.58801
           X            0.99965  -0.02645  -0.00017
           Y            0.02645   0.99955   0.01420
           Z           -0.00020  -0.01420   0.99990
 This molecule is an asymmetric top.
 Rotational symmetry number  1.
 Warning -- assumption of classical behavior for rotation
           may cause significant error
 Rotational temperatures (Kelvin)      0.06800     0.02449     0.02146
 Rotational constants (GHZ):           1.41693     0.51019     0.44710
 Zero-point vibrational energy     696994.1 (Joules/Mol)
                                  166.58559 (Kcal/Mol)
 Warning -- explicit consideration of  21 degrees of freedom as
           vibrations may cause significant error
 Vibrational temperatures:     68.89    88.37    98.49   127.33   195.34
          (Kelvin)            228.95   333.34   337.32   384.43   401.10
                              437.39   482.00   504.82   617.14   643.45
                              659.54   672.17   768.90   780.43   838.35
                              891.08   946.10  1031.47  1126.53  1128.17
                             1206.53  1257.83  1292.30  1336.14  1360.61
                             1385.77  1481.14  1484.29  1515.23  1557.38
                             1606.31  1640.42  1650.17  1717.03  1719.07
                             1750.51  1777.24  1808.99  1851.26  1886.82
                             1956.26  1980.96  1992.85  2003.73  2027.95
                             2029.30  2039.67  2046.83  2054.70  2056.31
                             2074.93  2079.06  2152.18  2162.03  2166.13
                             2175.14  2177.59  2188.77  2192.00  2209.92
                             2215.17  3223.87  4362.59  4369.87  4374.99
                             4377.41  4381.74  4384.94  4393.01  4409.94
                             4446.18  4447.99  4454.81  4468.90  4471.22
                             4484.93  4504.12  4515.66  4528.46

 Zero-point correction=                           0.265471 (Hartree/Particle)
 Thermal correction to Energy=                    0.278795
 Thermal correction to Enthalpy=                  0.279739
 Thermal correction to Gibbs Free Energy=         0.225461
 Sum of electronic and zero-point Energies=           -588.544207
 Sum of electronic and thermal Energies=              -588.530883
 Sum of electronic and thermal Enthalpies=            -588.529939
 Sum of electronic and thermal Free Energies=         -588.584217

                     E (Thermal)             CV                S
                      KCal/Mol        Cal/Mol-Kelvin    Cal/Mol-Kelvin
 Total                  174.946             50.568            114.238
 Electronic               0.000              0.000              0.000
 Translational            0.889              2.981             41.522
 Rotational               0.889              2.981             31.276
 Vibrational            173.169             44.607             41.441
 Vibration     1          0.595              1.978              4.903
 Vibration     2          0.597              1.973              4.411
 Vibration     3          0.598              1.969              4.197
 Vibration     4          0.601              1.957              3.693
 Vibration     5          0.614              1.918              2.863
 Vibration     6          0.621              1.892              2.560
 Vibration     7          0.653              1.793              1.866
 Vibration     8          0.654              1.788              1.845
 Vibration     9          0.672              1.733              1.614
 Vibration    10          0.679              1.713              1.541
 Vibration    11          0.695              1.666              1.395
 Vibration    12          0.716              1.606              1.236
 Vibration    13          0.728              1.573              1.162
 Vibration    14          0.790              1.407              0.862
 Vibration    15          0.806              1.367              0.804
 Vibration    16          0.816              1.342              0.771
 Vibration    17          0.824              1.323              0.745
 Vibration    18          0.889              1.174              0.577
 Vibration    19          0.898              1.156              0.560
 Vibration    20          0.940              1.069              0.480
 Vibration    21          0.979              0.991              0.418

                           ! Non-Optimized Parameters !

 1\1\GINC-NODE122\Freq\RB3LYP\6-31G(d)\C8H17N5\VSC10255\09-Dec-2020\0\\
 #N Geom=AllCheck Guess=TCheck SCRF=Check GenChk RB3LYP/6-31G(d) Freq\\
 CID_152698873_JID_3317_neutraal\\0,1\C,0.8358243615,0.0765669542,-0.11
 05869029\C,0.5184498365,-0.5527933303,1.2532368373\C,1.4244961274,0.05
 23231694,2.3444406056\N,-0.9260286152,-0.515415522,1.5044561329\C,-1.5
 153132415,-1.5870140455,2.2978266459\C,-1.6026460867,-1.2704066254,3.8
 023475982\N,-2.2656308772,0.0100553975,4.0602730493\C,-1.6946514915,1.
 1024038791,3.2682320542\C,-1.5574559236,0.772687421,1.766007357\C,-3.6

 Normal termination of Gaussian 16 at Wed Dec  9 23:18:19 2020.

 ----------------------------------------------------------------------
 # B3LYP/6-311++G(d,p) empiricaldispersion=gd3bj scf=xqc pop=npa geom=c
 heck
 ----------------------------------------------------------------------

 ---------------------------------------
 CID_152698873_JID_3317_Energie_neutraal
 ---------------------------------------
 Structure from the checkpoint file:  "JID_3317.chk"
 Charge =  0 Multiplicity = 1

 SCF Done:  E(RB3LYP) =  -588.970271054     A.U. after   15 cycles
 Normal termination of Gaussian 16 at Wed Dec  9 23:22:32 2020.

 ----------------------------------------------------------------------
 # B3LYP/6-311++G(d,p) empiricaldispersion=gd3bj scf=xqc pop=npa geom=c
 heck
 ----------------------------------------------------------------------

 -------------------------------------
 CID_152698873_JID_3317_Energie_kation
 -------------------------------------
 Structure from the checkpoint file:  "JID_3317.chk"
 Charge =  1 Multiplicity = 2

 SCF Done:  E(UB3LYP) =  -588.708065276     A.U. after   20 cycles
 Normal termination of Gaussian 16 at Wed Dec  9 23:30:26 2020.
 Gaussian 16:  ES64L-G16RevA.03 25-Dec-2016

 ------------------------------------
 CID_152698873_JID_3317_Energie_anion
 ------------------------------------
 Structure from the checkpoint file:  "JID_3317.chk"
 Charge = -1 Multiplicity = 2

                         Standard orientation:
 ---------------------------------------------------------------------
 Center     Atomic      Atomic             Coordinates (Angstroms)
 Number     Number       Type             X           Y           Z
 ---------------------------------------------------------------------
      1          6           0        3.287063   -1.567473    0.245197
      2          6           0        2.609460   -0.196033    0.374978
      3          6           0        3.049268    0.728189   -0.778363
      4          7           0        1.165169   -0.361083    0.569423
      5          6           0        0.459951    0.631759    1.370641
      6          6           0       -0.140232    1.784479    0.544526
      7          7           0       -0.974197    1.299030   -0.557516
      8          6           0       -0.288688    0.293917   -1.373848
      9          6           0        0.358973   -0.838572   -0.547882
     10          6           0       -2.354683    1.123434   -0.298009
     11          7           0       -2.753781    0.032276    0.703347
     12          7           0       -2.914836   -1.082193    0.207619
     13          7           0       -3.071256   -2.149858   -0.177051
     14          1           0        3.004738   -2.070814   -0.687017
     15          1           0        2.999371   -2.212435    1.080242
     16          1           0        4.377497   -1.459185    0.238627
     17          1           0        2.969427    0.252943    1.309486
     18          1           0        2.746638    0.320222   -1.749829
     19          1           0        2.621759    1.730719   -0.681812
     20          1           0        4.141265    0.827823   -0.791754
     21          1           0       -0.362980    0.130597    1.898184
     22          1           0        1.145968    1.028890    2.127150
     23          1           0        0.663820    2.397280    0.115720
     24          1           0       -0.749294    2.435707    1.181635
     25          1           0        0.488079    0.812659   -1.949312
     26          1           0       -1.006147   -0.122540   -2.090923
     27          1           0        0.978742   -1.452847   -1.208124
     28          1           0       -0.427290   -1.498806   -0.158098
     29          1           0       -2.754631    2.029509    0.159806
     30          1           0       -2.881320    0.924869   -1.238192
 ---------------------------------------------------------------------

 SCF Done:  E(UB3LYP) =  -588.959108309     A.U. after   31 cycles

 The electronic state is 2-A.
 Alpha  occ. eigenvalues --  -14.34533 -14.24557 -14.23187 -14.20998 -14.19211
 Alpha  occ. eigenvalues --  -10.13025 -10.09913 -10.09392 -10.08815 -10.08812
 Alpha  occ. eigenvalues --  -10.08318 -10.05588 -10.05430  -1.01150  -0.86230
 Alpha  occ. eigenvalues --   -0.83622  -0.80215  -0.67698  -0.66093  -0.62862
 Alpha  occ. eigenvalues --   -0.58454  -0.55559  -0.54398  -0.49457  -0.45370
 Alpha  occ. eigenvalues --   -0.43024  -0.40460  -0.39160  -0.38078  -0.36530
 Alpha  occ. eigenvalues --   -0.36221  -0.35738  -0.34520  -0.33040  -0.32441
 Alpha  occ. eigenvalues --   -0.31830  -0.30158  -0.29386  -0.28750  -0.28299
 Alpha  occ. eigenvalues --   -0.27502  -0.25798  -0.24889  -0.24396  -0.23028
 Alpha  occ. eigenvalues --   -0.22354  -0.19597  -0.14551  -0.13185  -0.08611
 Alpha  occ. eigenvalues --    0.04555
 Alpha virt. eigenvalues --    0.06432   0.07797   0.07867   0.08568   0.09198
 Alpha virt. eigenvalues --    0.09388   0.10500   0.11182   0.11322   0.11658
 Alpha virt. eigenvalues --    0.11940   0.12438   0.13488   0.14223   0.14305

  Beta  occ. eigenvalues --  -14.34339 -14.24270 -14.23240 -14.21008 -14.19210
  Beta  occ. eigenvalues --  -10.12927 -10.09899 -10.09380 -10.08807 -10.08787
  Beta  occ. eigenvalues --  -10.08305 -10.05564 -10.05395  -1.00762  -0.86107
  Beta  occ. eigenvalues --   -0.83540  -0.80189  -0.67660  -0.66068  -0.62736
  Beta  occ. eigenvalues --   -0.58392  -0.55486  -0.54347  -0.49373  -0.45294
  Beta  occ. eigenvalues --   -0.42932  -0.40016  -0.39050  -0.37958  -0.36378
  Beta  occ. eigenvalues --   -0.35919  -0.35612  -0.34471  -0.32737  -0.32212
  Beta  occ. eigenvalues --   -0.31724  -0.30111  -0.29266  -0.28698  -0.28212
  Beta  occ. eigenvalues --   -0.27457  -0.25763  -0.24856  -0.24326  -0.22996
  Beta  occ. eigenvalues --   -0.22315  -0.19239  -0.14422  -0.13114  -0.08584
  Beta virt. eigenvalues --    0.06900   0.07829   0.08276   0.08773   0.09381
  Beta virt. eigenvalues --    0.09777   0.10108   0.10833   0.11396   0.11572
  Beta virt. eigenvalues --    0.11957   0.12280   0.12695   0.13696   0.14408

 Mulliken charges and spin densities:
               1          2
     1  C    0.587129  -1.048893
     2  C   -1.498752   1.312819
     3  C    1.023646  -1.540266
     4  N    0.175330  -0.018466
     5  C   -0.128688  -0.186529
     6  C    0.347746  -0.558537
     7  N   -0.157621   0.302198
     8  C   -0.188407  -0.372533
     9  C    0.162642  -0.327084
    10  C    0.774401  -1.353873
    11  N   -0.398896   0.217979
    12  N    0.188354   0.159502
    13  N   -0.156493   0.053059
    14  H   -0.085021   0.211021
    15  H    0.061292   0.089657
    16  H   -0.244736   0.376713
    17  H   -0.316545   0.461388
    18  H   -0.166314   0.307407
    19  H    0.089934   0.019968
    20  H   -0.352931   0.498093
    21  H    0.062805   0.128537
    22  H   -0.207423   0.356338
    23  H   -0.319487   0.508815
    24  H   -0.172712   0.318316
    25  H    0.013677   0.182423
    26  H    0.142519  -0.010729
    27  H    0.165158  -0.054394
    28  H    0.167396   0.031787
    29  H   -0.543887   0.746465
    30  H   -0.024116   0.188819
 Sum of Mulliken charges =  -1.00000   1.00000

 Dipole moment (field-independent basis, Debye):
    X=             -1.0357    Y=             -1.7765    Z=             -1.3712  Tot=              2.4716
 Quadrupole moment (field-independent basis, Debye-Ang):
   XX=           -155.5589   YY=           -124.6212   ZZ=           -107.6657
   XY=             -1.8602   XZ=              2.3502   YZ=             -0.4791

 Summary of Natural Population Analysis:

                                       Natural Population
                Natural  -----------------------------------------------
    Atom  No    Charge         Core      Valence    Rydberg      Total
 -----------------------------------------------------------------------
      C    1   -0.28729      0.99964     2.28106    0.00659     3.28729
      C    2   -0.00268      0.99959     1.98992    0.01317     3.00268
      C    3   -0.29660      0.99964     2.29066    0.00630     3.29660
      N    4   -0.28546      0.99971     2.77227    0.01347     3.78546
      C    5   -0.09120      0.99960     2.08037    0.01122     3.09120
      C    6   -0.09062      0.99960     2.07970    0.01132     3.09062
      N    7   -0.27585      0.99971     2.76089    0.01524     3.77585
      C    8   -0.09318      0.99961     2.08339    0.01019     3.09318
      C    9   -0.09546      0.99961     2.08567    0.01018     3.09546
      C   10    0.01131      0.99956     1.97291    0.01622     2.98869
      N   11   -0.21594      0.99972     2.70205    0.01417     3.71594
      N   12    0.12594      0.99970     2.35873    0.01562     3.37406
      N   13   -0.03892      0.99982     2.52575    0.01335     3.53892
      H   14    0.09380      0.00000     0.40524    0.00096     0.40620
      H   15    0.10195      0.00000     0.39685    0.00120     0.39805
      H   16    0.09923      0.00000     0.39978    0.00099     0.40077
      H   17    0.09355      0.00000     0.40491    0.00154     0.40645
      H   18    0.09439      0.00000     0.40442    0.00119     0.40561
      H   19    0.10007      0.00000     0.39837    0.00155     0.39993
      H   20    0.10060      0.00000     0.39802    0.00138     0.39940
      H   21    0.09805      0.00000     0.40036    0.00159     0.40195
      H   22    0.09577      0.00000     0.40278    0.00145     0.40423
      H   23    0.09169      0.00000     0.40644    0.00187     0.40831
      H   24    0.09901      0.00000     0.39938    0.00161     0.40099
      H   25    0.09382      0.00000     0.40476    0.00141     0.40618
      H   26    0.09556      0.00000     0.40336    0.00108     0.40444
      H   27    0.09654      0.00000     0.40230    0.00116     0.40346
      H   28    0.09573      0.00000     0.40267    0.00160     0.40427
      H   29    0.09823      0.00000     0.39967    0.00209     0.40177
      H   30    0.08795      0.00000     0.41072    0.00134     0.41205
 =======================================================================
   * Total *   -0.00000     12.99552    36.82342    0.18106    50.00000

 Normal termination of Gaussian 16 at Wed Dec  9 23:42:35 2020.
