 Gaussian 16, Revision A.03,

 -----------------------------------------------------------
 # opt freq B3LYP/6-31G(d) empiricaldispersion=gd3bj scf=xqc
 -----------------------------------------------------------

 -------------------------------
 CID_142152649_JID_4934_neutraal
 -------------------------------
 Symbolic Z-matrix:
 Charge =  0 Multiplicity = 1

 SCF Done:  E(RB3LYP) =  -546.802565729     A.U. after   13 cycles
 SCF Done:  E(RB3LYP) =  -546.803798340     A.U. after   12 cycles
 SCF Done:  E(RB3LYP) =  -546.802411373     A.U. after   13 cycles
 SCF Done:  E(RB3LYP) =  -546.803947036     A.U. after   12 cycles
 SCF Done:  E(RB3LYP) =  -546.805595378     A.U. after   12 cycles
 SCF Done:  E(RB3LYP) =  -546.805864937     A.U. after   11 cycles
 SCF Done:  E(RB3LYP) =  -546.805921562     A.U. after   11 cycles
 SCF Done:  E(RB3LYP) =  -546.806078080     A.U. after   10 cycles
 SCF Done:  E(RB3LYP) =  -546.806209706     A.U. after   10 cycles
 SCF Done:  E(RB3LYP) =  -546.806375466     A.U. after   11 cycles
 SCF Done:  E(RB3LYP) =  -546.806912989     A.U. after    7 cycles
 SCF Done:  E(RB3LYP) =  -546.806913052     A.U. after    6 cycles
 SCF Done:  E(RB3LYP) =  -546.806913151     A.U. after    7 cycles
 SCF Done:  E(RB3LYP) =  -546.806913244     A.U. after    7 cycles
 SCF Done:  E(RB3LYP) =  -546.806913311     A.U. after    7 cycles
 Optimization completed.
    -- Stationary point found.
 Normal termination of Gaussian 16 at Thu Dec 10 11:21:47 2020.

 --------------------------------------------------------------------
 #N Geom=AllCheck Guess=TCheck SCRF=Check GenChk RB3LYP/6-31G(d) Freq
 --------------------------------------------------------------------

 Structure from the checkpoint file:  "JID_4934.chk"
 -------------------------------
 CID_142152649_JID_4934_neutraal
 -------------------------------
 Charge =  0 Multiplicity = 1

 SCF Done:  E(RB3LYP) =  -546.806913311     A.U. after    1 cycles

  Exact polarizability: 147.059  18.913 157.035  -4.733   6.559 131.021
 Approx polarizability: 202.515  39.081 225.007 -13.243  15.920 215.316

                      1                      2                      3
                      A                      A                      A
 Frequencies --     29.3844                52.0388                59.1279
 Red. masses --      3.1460                 3.2342                 2.5206
 Frc consts  --      0.0016                 0.0052                 0.0052
 IR Inten    --      0.0123                 0.0173                 0.0319

                      4                      5                      6
                      A                      A                      A
 Frequencies --     70.0209                77.7279                81.7011
 Red. masses --      2.2098                 1.2659                 2.0762
 Frc consts  --      0.0064                 0.0045                 0.0082
 IR Inten    --      0.0418                 0.0178                 0.0460

                      7                      8                      9
                      A                      A                      A
 Frequencies --     92.3977                97.6565               107.6604
 Red. masses --      2.2272                 1.0492                 1.3398
 Frc consts  --      0.0112                 0.0059                 0.0091
 IR Inten    --      0.1327                 0.0224                 0.2910

                     10                     11                     12
                      A                      A                      A
 Frequencies --    118.0492               129.0190               133.7386
 Red. masses --      1.3212                 1.6326                 2.6158
 Frc consts  --      0.0108                 0.0160                 0.0276
 IR Inten    --      0.1438                 0.0302                 0.1494

                     13                     14                     15
                      A                      A                      A
 Frequencies --    180.6451               200.3858               217.0513
 Red. masses --      1.4165                 1.7658                 2.7130
 Frc consts  --      0.0272                 0.0418                 0.0753
 IR Inten    --      0.0183                 0.3562                 0.2144

                     16                     17                     18
                      A                      A                      A
 Frequencies --    242.1507               266.8993               285.5393
 Red. masses --      1.4510                 1.9438                 2.5075
 Frc consts  --      0.0501                 0.0816                 0.1205
 IR Inten    --      0.7704                 1.8719                 1.0141

                     19                     20                     21
                      A                      A                      A
 Frequencies --    303.6915               346.2559               399.4466
 Red. masses --      3.0827                 2.9245                 2.9192
 Frc consts  --      0.1675                 0.2066                 0.2744
 IR Inten    --      0.9241                 0.9772                 0.5469

                     22                     23                     24
                      A                      A                      A
 Frequencies --    454.5484               472.3546               527.9912
 Red. masses --      3.3302                 3.1756                 3.7847
 Frc consts  --      0.4054                 0.4175                 0.6216
 IR Inten    --      2.6450                 2.4991                 1.0112

                     25                     26                     27
                      A                      A                      A
 Frequencies --    571.0740               605.2761               662.3110
 Red. masses --      4.6182                 3.5988                 4.2169
 Frc consts  --      0.8874                 0.7768                 1.0899
 IR Inten    --      0.3929                 3.3181                 1.9334

                     28                     29                     30
                      A                      A                      A
 Frequencies --    721.4094               749.3392               764.0962
 Red. masses --      3.9290                 1.7184                 1.1505
 Frc consts  --      1.2047                 0.5685                 0.3957
 IR Inten    --      2.0631                20.3305                 3.4647

                     31                     32                     33
                      A                      A                      A
 Frequencies --    786.6659               818.3300               854.0082
 Red. masses --      2.0603                 3.3813                 1.3277
 Frc consts  --      0.7512                 1.3341                 0.5705
 IR Inten    --     20.8786                 0.8552                 9.0925

                     34                     35                     36
                      A                      A                      A
 Frequencies --    883.5150               891.5633               913.1086
 Red. masses --      1.3238                 1.3659                 1.6750
 Frc consts  --      0.6088                 0.6397                 0.8228
 IR Inten    --      0.1205                 2.8900                 0.6570

                     37                     38                     39
                      A                      A                      A
 Frequencies --    945.5503               956.5194               981.1710
 Red. masses --      1.3624                 1.6467                 1.2528
 Frc consts  --      0.7177                 0.8877                 0.7106
 IR Inten    --      1.7148                11.5286                 0.0184

                     40                     41                     42
                      A                      A                      A
 Frequencies --   1021.5534              1051.2904              1074.7936
 Red. masses --      1.5762                 3.1093                 1.5979
 Frc consts  --      0.9691                 2.0247                 1.0875
 IR Inten    --      1.3118                 0.1197                 3.2648

                     43                     44                     45
                      A                      A                      A
 Frequencies --   1078.0973              1080.9443              1090.0390
 Red. masses --      1.5275                 2.1357                 2.9935
 Frc consts  --      1.0461                 1.4703                 2.0956
 IR Inten    --      1.6152                 2.6548                 3.1018

                     46                     47                     48
                      A                      A                      A
 Frequencies --   1114.9678              1124.2730              1145.1761
 Red. masses --      1.6510                 2.0208                 1.9197
 Frc consts  --      1.2093                 1.5049                 1.4833
 IR Inten    --      5.3060                 2.7082                 4.8674

                     49                     50                     51
                      A                      A                      A
 Frequencies --   1173.1003              1196.6982              1232.2784
 Red. masses --      1.7379                 1.0939                 2.6246
 Frc consts  --      1.4091                 0.9230                 2.3482
 IR Inten    --      0.9018                 0.1439                 0.2952

                     52                     53                     54
                      A                      A                      A
 Frequencies --   1259.2300              1276.0706              1314.9367
 Red. masses --      2.1338                 1.3116                 1.5602
 Frc consts  --      1.9935                 1.2583                 1.5894
 IR Inten    --      2.6462                 0.3435                 1.5062

                     55                     56                     57
                      A                      A                      A
 Frequencies --   1325.1878              1340.0551              1345.5829
 Red. masses --      1.3991                 1.3730                 2.8547
 Frc consts  --      1.4476                 1.4527                 3.0453
 IR Inten    --      2.1568                 1.0037                 0.2767

                     58                     59                     60
                      A                      A                      A
 Frequencies --   1364.3628              1372.1396              1379.2562
 Red. masses --      1.1789                 1.1782                 1.1784
 Frc consts  --      1.2930                 1.3070                 1.3207
 IR Inten    --     18.4814                23.7945                 8.6966

                     61                     62                     63
                      A                      A                      A
 Frequencies --   1399.3475              1409.0975              1438.8894
 Red. masses --      1.5466                 1.4290                 1.2473
 Frc consts  --      1.7843                 1.6717                 1.5215
 IR Inten    --      2.0415                 4.1322                 0.8849

                     64                     65                     66
                      A                      A                      A
 Frequencies --   1442.0877              1446.7959              1487.5475
 Red. masses --      1.3029                 1.2353                 1.9259
 Frc consts  --      1.5965                 1.5235                 2.5109
 IR Inten    --      0.6548                 2.6248                 2.6594

                     67                     68                     69
                      A                      A                      A
 Frequencies --   1508.0709              1511.3531              1517.6993
 Red. masses --      1.0915                 1.0560                 1.1199
 Frc consts  --      1.4626                 1.4211                 1.5199
 IR Inten    --      4.4431                 0.7533                 6.2353

                     70                     71                     72
                      A                      A                      A
 Frequencies --   1520.6811              1523.1488              1526.4434
 Red. masses --      1.0718                 1.1028                 1.1440
 Frc consts  --      1.4603                 1.5074                 1.5706
 IR Inten    --      5.1378                 5.8934                 2.9191

                     73                     74                     75
                      A                      A                      A
 Frequencies --   1529.1048              1538.6154              1542.1016
 Red. masses --      1.0413                 1.1441                 1.8402
 Frc consts  --      1.4345                 1.5958                 2.5784
 IR Inten    --      6.1216                 4.9850                 9.7279

                     76                     77                     78
                      A                      A                      A
 Frequencies --   1588.5210              1592.6796              1631.3371
 Red. masses --      1.0084                 1.0081                 5.6852
 Frc consts  --      1.4993                 1.5067                 8.9143
 IR Inten    --      1.5772                 1.8583                 0.1656

                     79                     80                     81
                      A                      A                      A
 Frequencies --   1662.9535              1743.5779              3018.7364
 Red. masses --      5.5574                 7.1797                 1.0624
 Frc consts  --      9.0548                12.8600                 5.7039
 IR Inten    --      0.3503                 0.4204                14.7960

                     82                     83                     84
                      A                      A                      A
 Frequencies --   3030.0450              3041.8348              3043.8443
 Red. masses --      1.0409                 1.0433                 1.0581
 Frc consts  --      5.6309                 5.6877                 5.7759
 IR Inten    --     36.9995                14.9166                56.1518

                     85                     86                     87
                      A                      A                      A
 Frequencies --   3054.2335              3054.5676              3065.6869
 Red. masses --      1.0093                 1.0383                 1.0957
 Frc consts  --      5.5474                 5.7081                 6.0673
 IR Inten    --      3.7434                22.9425                16.6668

                     88                     89                     90
                      A                      A                      A
 Frequencies --   3073.5844              3088.6001              3111.0212
 Red. masses --      1.0984                 1.0993                 1.0977
 Frc consts  --      6.1135                 6.1788                 6.2595
 IR Inten    --     26.1547                 6.8189                 8.0512

                     91                     92                     93
                      A                      A                      A
 Frequencies --   3112.1137              3113.1394              3129.5640
 Red. masses --      1.1014                 1.1028                 1.0927
 Frc consts  --      6.2848                 6.2971                 6.3057
 IR Inten    --     68.7483                49.3305                 1.5291

                     94                     95                     96
                      A                      A                      A
 Frequencies --   3138.4582              3145.1431              3155.7020
 Red. masses --      1.1014                 1.0928                 1.1015
 Frc consts  --      6.3919                 6.3691                 6.4629
 IR Inten    --     13.1691                48.6254                23.9140

                     97                     98                     99
                      A                      A                      A
 Frequencies --   3165.3613              3174.8027              3176.3425
 Red. masses --      1.1012                 1.0860                 1.1015
 Frc consts  --      6.5009                 6.4493                 6.5478
 IR Inten    --     28.2000                10.1612                10.3255

                    100                    101                    102
                      A                      A                      A
 Frequencies --   3181.1844              3193.7671              3208.1001
 Red. masses --      1.0880                 1.0921                 1.0975
 Frc consts  --      6.4869                 6.5631                 6.6553
 IR Inten    --      2.5554                30.4468                28.4955

 - Thermochemistry -
 -------------------
 Temperature   298.150 Kelvin.  Pressure   1.00000 Atm.
 Atom     1 has atomic number  6 and mass  12.00000

 Molecular mass:   190.17215 amu.
 Principal axes and moments of inertia in atomic units:
                           1         2         3
     Eigenvalues --  2690.693363026.947584377.03072
           X            0.98956  -0.14409  -0.00409
           Y            0.14412   0.98954   0.00600
           Z            0.00318  -0.00652   0.99997
 This molecule is an asymmetric top.
 Rotational symmetry number  1.
 Warning -- assumption of classical behavior for rotation
           may cause significant error
 Rotational temperatures (Kelvin)      0.03219     0.02861     0.01979
 Rotational constants (GHZ):           0.67073     0.59622     0.41232
 Zero-point vibrational energy     846031.0 (Joules/Mol)
                                  202.20626 (Kcal/Mol)
 Warning -- explicit consideration of  26 degrees of freedom as
           vibrations may cause significant error
 Vibrational temperatures:     42.28    74.87    85.07   100.74   111.83
          (Kelvin)            117.55   132.94   140.51   154.90   169.85
                              185.63   192.42   259.91   288.31   312.29
                              348.40   384.01   410.83   436.94   498.19
                              574.71   653.99   679.61   759.66   821.65
                              870.86   952.92  1037.95  1078.13  1099.36
                             1131.84  1177.39  1228.73  1271.18  1282.76
                             1313.76  1360.44  1376.22  1411.69  1469.79
                             1512.57  1546.39  1551.14  1555.24  1568.32
                             1604.19  1617.58  1647.65  1687.83  1721.78
                             1772.97  1811.75  1835.98  1891.90  1906.65
                             1928.04  1935.99  1963.01  1974.20  1984.44
                             2013.35  2027.38  2070.24  2074.84  2081.62
                             2140.25  2169.78  2174.50  2183.63  2187.92
                             2191.47  2196.21  2200.04  2213.72  2218.74
                             2285.53  2291.51  2347.13  2392.62  2508.62
                             4343.29  4359.56  4376.52  4379.41  4394.36
                             4394.84  4410.84  4422.20  4443.81  4476.07
                             4477.64  4479.11  4502.74  4515.54  4525.16
                             4540.35  4554.25  4567.83  4570.05  4577.01
                             4595.12  4615.74

 Zero-point correction=                           0.322236 (Hartree/Particle)
 Thermal correction to Energy=                    0.340819
 Thermal correction to Enthalpy=                  0.341763
 Thermal correction to Gibbs Free Energy=         0.274493
 Sum of electronic and zero-point Energies=           -546.484677
 Sum of electronic and thermal Energies=              -546.466095
 Sum of electronic and thermal Enthalpies=            -546.465150
 Sum of electronic and thermal Free Energies=         -546.532420

                     E (Thermal)             CV                S
                      KCal/Mol        Cal/Mol-Kelvin    Cal/Mol-Kelvin
 Total                  213.867             64.494            141.581
 Electronic               0.000              0.000              0.000
 Translational            0.889              2.981             41.634
 Rotational               0.889              2.981             31.944
 Vibrational            212.090             58.532             68.003
 Vibration     1          0.593              1.984              5.871
 Vibration     2          0.596              1.977              4.738
 Vibration     3          0.596              1.974              4.486
 Vibration     4          0.598              1.968              4.153
 Vibration     5          0.599              1.964              3.947
 Vibration     6          0.600              1.962              3.850
 Vibration     7          0.602              1.955              3.609
 Vibration     8          0.603              1.951              3.501
 Vibration     9          0.606              1.943              3.311
 Vibration    10          0.608              1.934              3.132
 Vibration    11          0.612              1.924              2.961
 Vibration    12          0.613              1.920              2.892
 Vibration    13          0.630              1.866              2.322
 Vibration    14          0.638              1.839              2.130
 Vibration    15          0.646              1.815              1.984
 Vibration    16          0.658              1.776              1.787
 Vibration    17          0.672              1.734              1.616
 Vibration    18          0.683              1.701              1.500
 Vibration    19          0.695              1.667              1.396
 Vibration    20          0.724              1.583              1.183
 Vibration    21          0.765              1.471              0.965
 Vibration    22          0.813              1.351              0.782
 Vibration    23          0.829              1.311              0.731
 Vibration    24          0.883              1.188              0.592
 Vibration    25          0.927              1.094              0.502
 Vibration    26          0.964              1.021              0.441

                           ! Non-Optimized Parameters !
 Normal termination of Gaussian 16 at Thu Dec 10 11:34:40 2020.

 ----------------------------------------------------------------------
 # B3LYP/6-311++G(d,p) empiricaldispersion=gd3bj scf=xqc pop=npa geom=c
 heck
 ----------------------------------------------------------------------

 ---------------------------------------
 CID_142152649_JID_4934_Energie_neutraal
 ---------------------------------------
 Structure from the checkpoint file:  "JID_4934.chk"
 Charge =  0 Multiplicity = 1

 SCF Done:  E(RB3LYP) =  -546.954278706     A.U. after   14 cycles
 Normal termination of Gaussian 16 at Thu Dec 10 11:40:46 2020.

 ----------------------------------------------------------------------
 # B3LYP/6-311++G(d,p) empiricaldispersion=gd3bj scf=xqc pop=npa geom=c
 heck
 ----------------------------------------------------------------------

 -------------------------------------
 CID_142152649_JID_4934_Energie_kation
 -------------------------------------
 Structure from the checkpoint file:  "JID_4934.chk"
 Charge =  1 Multiplicity = 2

 SCF Done:  E(UB3LYP) =  -546.657180505     A.U. after   23 cycles
 Normal termination of Gaussian 16 at Thu Dec 10 11:54:34 2020.
 Gaussian 16:  ES64L-G16RevA.03 25-Dec-2016

 ----------------------------------------------------------------------
 # B3LYP/6-311++G(d,p) empiricaldispersion=gd3bj scf=xqc pop=npa geom=c
 heck
 ----------------------------------------------------------------------

 ------------------------------------
 CID_142152649_JID_4934_Energie_anion
 ------------------------------------
 Structure from the checkpoint file:  "JID_4934.chk"
 Charge = -1 Multiplicity = 2

                         Standard orientation:
 ---------------------------------------------------------------------
 Center     Atomic      Atomic             Coordinates (Angstroms)
 Number     Number       Type             X           Y           Z
 ---------------------------------------------------------------------
      1          6           0        0.677702   -3.339634    0.094686
      2          6           0        3.737260   -0.915276    0.235144
      3          6           0        2.453656   -0.128619    0.504527
      4          6           0        1.915207    0.574533   -0.753192
      5          6           0        0.572567    1.239590   -0.534769
      6          6           0        0.443948    2.573769   -0.515989
      7          6           0       -0.827630    3.347855   -0.330671
      8          6           0       -0.585555    0.311690   -0.353579
      9          6           0       -1.028816   -0.429777   -1.457690
     10          6           0       -2.087836   -1.328023   -1.352455
     11          6           0       -2.714717   -1.506068   -0.119820
     12          6           0       -2.275469   -0.782134    0.987135
     13          6           0       -1.216445    0.130721    0.895022
     14          6           0       -0.781260    0.897930    2.120499
     15          1           0        0.926422   -2.813458   -0.829891
     16          1           0        0.271312   -4.325993   -0.146009
     17          1           0       -0.070074   -2.759545    0.639714
     18          1           0        1.578429   -3.455399    0.703905
     19          1           0        3.563426   -1.704129   -0.506363
     20          1           0        4.112433   -1.392131    1.147599
     21          1           0        4.529950   -0.263302   -0.151982
     22          1           0        1.684450   -0.804163    0.896042
     23          1           0        2.632511    0.626825    1.281128
     24          1           0        2.646372    1.316779   -1.097877
     25          1           0        1.821365   -0.173773   -1.553927
     26          1           0        1.344917    3.170773   -0.664032
     27          1           0       -0.798582    3.945783    0.590988
     28          1           0       -0.976540    4.055762   -1.156689
     29          1           0       -1.700431    2.690980   -0.284480
     30          1           0       -0.535579   -0.285553   -2.415553
     31          1           0       -2.417913   -1.885840   -2.224218
     32          1           0       -3.537610   -2.208059   -0.017752
     33          1           0       -2.760306   -0.926400    1.949789
     34          1           0        0.308104    0.943007    2.204114
     35          1           0       -1.178603    0.434521    3.028881
     36          1           0       -1.139730    1.933972    2.093528
 ---------------------------------------------------------------------

 SCF Done:  E(UB3LYP) =  -546.937936945     A.U. after   33 cycles
 SCF Done:  E(UB3LYP) =  -546.937936944     a.u. after    1 cycles

 The electronic state is 2-A.
 Alpha  occ. eigenvalues --  -10.08840 -10.08457 -10.07990 -10.07712 -10.07688
 Alpha  occ. eigenvalues --  -10.07590 -10.07537 -10.07336 -10.07262 -10.06974
 Alpha  occ. eigenvalues --  -10.06957 -10.06844 -10.06490 -10.04832  -0.77023
 Alpha  occ. eigenvalues --   -0.72271  -0.68167  -0.67405  -0.65053  -0.61663
 Alpha  occ. eigenvalues --   -0.59206  -0.58917  -0.55590  -0.51451  -0.49818
 Alpha  occ. eigenvalues --   -0.48856  -0.44124  -0.39662  -0.37851  -0.36876
 Alpha  occ. eigenvalues --   -0.36779  -0.35150  -0.33060  -0.32559  -0.32093
 Alpha  occ. eigenvalues --   -0.31392  -0.31182  -0.29823  -0.29575  -0.29284
 Alpha  occ. eigenvalues --   -0.29114  -0.28974  -0.28239  -0.27142  -0.25848
 Alpha  occ. eigenvalues --   -0.25244  -0.24915  -0.24564  -0.23459  -0.22634
 Alpha  occ. eigenvalues --   -0.16344  -0.15093  -0.13992   0.04351
 Alpha virt. eigenvalues --    0.06242   0.06554   0.06893   0.07482   0.07967
 Alpha virt. eigenvalues --    0.08351   0.08611   0.08682   0.09003   0.09594
 Alpha virt. eigenvalues --    0.10652   0.10937   0.11139   0.11472   0.11824

  Beta  occ. eigenvalues --  -10.08840 -10.08452 -10.07990 -10.07705 -10.07676
  Beta  occ. eigenvalues --  -10.07578 -10.07524 -10.07324 -10.07250 -10.06952
  Beta  occ. eigenvalues --  -10.06946 -10.06825 -10.06467 -10.04805  -0.77008
  Beta  occ. eigenvalues --   -0.72251  -0.68143  -0.67383  -0.65028  -0.61630
  Beta  occ. eigenvalues --   -0.59160  -0.58880  -0.55547  -0.51417  -0.49778
  Beta  occ. eigenvalues --   -0.48812  -0.44085  -0.39618  -0.37831  -0.36856
  Beta  occ. eigenvalues --   -0.36747  -0.35118  -0.33034  -0.32535  -0.32061
  Beta  occ. eigenvalues --   -0.31362  -0.31157  -0.29784  -0.29548  -0.29255
  Beta  occ. eigenvalues --   -0.29085  -0.28948  -0.28217  -0.27112  -0.25826
  Beta  occ. eigenvalues --   -0.25217  -0.24878  -0.24537  -0.23438  -0.22609
  Beta  occ. eigenvalues --   -0.16332  -0.15084  -0.13977
  Beta virt. eigenvalues --    0.06296   0.07037   0.07172   0.07420   0.07605
  Beta virt. eigenvalues --    0.08203   0.08672   0.09094   0.09220   0.09283
  Beta virt. eigenvalues --    0.09923   0.10901   0.11333   0.11413   0.11778

 Mulliken charges and spin densities:
               1          2
     1  C   -0.163450  -0.454450
     2  C    0.436501  -1.193560
     3  C   -0.442844   0.562689
     4  C   -0.819770  -0.066589
     5  C   -0.034443   0.949802
     6  C    0.205758  -0.516647
     7  C    1.144104  -1.923953
     8  C   -0.299204   0.744074
     9  C   -1.099899   0.586873
    10  C    1.573025  -1.830725
    11  C    0.782548  -1.151806
    12  C   -0.434704   0.085503
    13  C   -1.111763   1.659980
    14  C    1.419411  -2.017399
    15  H    0.095744   0.058803
    16  H   -0.205289   0.330961
    17  H    0.123314   0.055947
    18  H   -0.050677   0.186751
    19  H    0.001788   0.139524
    20  H   -0.226358   0.360283
    21  H   -0.057460   0.186326
    22  H    0.461376  -0.318597
    23  H    0.012660   0.138663
    24  H   -0.058730   0.214441
    25  H    0.022233   0.122128
    26  H   -0.390957   0.548109
    27  H   -0.182410   0.345848
    28  H   -0.074757   0.222778
    29  H    0.135497   0.004584
    30  H   -0.296995   0.478979
    31  H   -0.330517   0.507686
    32  H   -0.521214   0.696650
    33  H   -0.467240   0.636172
    34  H   -0.081097   0.262712
    35  H   -0.130987   0.275697
    36  H    0.066804   0.111765
 Sum of Mulliken charges =  -1.00000   1.00000

 Dipole moment (field-independent basis, Debye):
    X=              0.8586    Y=              1.4994    Z=             -0.3004  Tot=              1.7537
 Quadrupole moment (field-independent basis, Debye-Ang):
   XX=           -150.8724   YY=           -154.3310   ZZ=           -130.4019
   XY=             -6.6984   XZ=             -0.3970   YZ=             -0.9284

 Summary of Natural Population Analysis:

                                       Natural Population
                Natural  -----------------------------------------------
    Atom  No    Charge         Core      Valence    Rydberg      Total
 -----------------------------------------------------------------------
      C    1   -0.40118      0.99971     2.39932    0.00215     3.40118
      C    2   -0.28183      0.99967     2.27807    0.00409     3.28183
      C    3   -0.19142      0.99963     2.18378    0.00801     3.19142
      C    4   -0.19406      0.99958     2.18501    0.00947     3.19406
      C    5   -0.01607      0.99945     2.00298    0.01365     3.01607
      C    6   -0.08153      0.99945     2.07340    0.00868     3.08153
      C    7   -0.30374      0.99965     2.29814    0.00595     3.30374
      C    8   -0.03027      0.99942     2.01790    0.01294     3.03027
      C    9   -0.09188      0.99951     2.08243    0.00995     3.09188
      C   10   -0.10196      0.99955     2.09199    0.01042     3.10196
      C   11   -0.09965      0.99956     2.08968    0.01041     3.09965
      C   12   -0.10070      0.99951     2.09082    0.01038     3.10070
      C   13   -0.01308      0.99947     2.00285    0.01076     3.01308
      C   14   -0.29442      0.99963     2.28887    0.00592     3.29442
      H   15    0.10047      0.00000     0.39841    0.00112     0.39953
      H   16    0.09861      0.00000     0.40060    0.00079     0.40139
      H   17    0.10523      0.00000     0.39321    0.00155     0.39477
      H   18    0.09710      0.00000     0.40206    0.00083     0.40290
      H   19    0.09691      0.00000     0.40202    0.00107     0.40309
      H   20    0.09843      0.00000     0.40063    0.00093     0.40157
      H   21    0.09451      0.00000     0.40435    0.00114     0.40549
      H   22    0.09878      0.00000     0.39846    0.00276     0.40122
      H   23    0.09246      0.00000     0.40616    0.00138     0.40754
      H   24    0.09821      0.00000     0.40048    0.00131     0.40179
      H   25    0.09827      0.00000     0.40014    0.00159     0.40173
      H   26    0.09202      0.00000     0.40678    0.00120     0.40798
      H   27    0.10246      0.00000     0.39636    0.00118     0.39754
      H   28    0.10237      0.00000     0.39672    0.00091     0.39763
      H   29    0.10571      0.00000     0.39326    0.00103     0.39429
      H   30    0.10093      0.00000     0.39748    0.00159     0.39907
      H   31    0.10222      0.00000     0.39650    0.00128     0.39778
      H   32    0.10220      0.00000     0.39644    0.00136     0.39780
      H   33    0.10068      0.00000     0.39813    0.00119     0.39932
      H   34    0.10727      0.00000     0.39133    0.00140     0.39273
      H   35    0.10161      0.00000     0.39739    0.00099     0.39839
      H   36    0.10534      0.00000     0.39345    0.00121     0.39466
 =======================================================================
   * Total *   -0.00000     13.99378    38.85560    0.15062    53.00000

 Normal termination of Gaussian 16 at Thu Dec 10 12:14:38 2020.
