 Gaussian 16, Revision A.03,

 -----------------------------------------------------------
 # opt freq B3LYP/6-31G(d) empiricaldispersion=gd3bj scf=xqc
 -----------------------------------------------------------

 ------------------------------
 CID_61013304_JID_9338_neutraal
 ------------------------------
 Symbolic Z-matrix:
 Charge =  0 Multiplicity = 1

 SCF Done:  E(RB3LYP) =  -919.137497886     A.U. after   15 cycles
 SCF Done:  E(RB3LYP) =  -919.143412436     A.U. after   13 cycles
 SCF Done:  E(RB3LYP) =  -919.142923400     A.U. after   13 cycles
 SCF Done:  E(RB3LYP) =  -919.146934775     A.U. after   12 cycles
 SCF Done:  E(RB3LYP) =  -919.149958096     A.U. after   15 cycles
 SCF Done:  E(RB3LYP) =  -919.152471675     A.U. after   13 cycles
 SCF Done:  E(RB3LYP) =  -919.153150087     A.U. after   13 cycles
 SCF Done:  E(RB3LYP) =  -919.153619097     A.U. after   13 cycles
 SCF Done:  E(RB3LYP) =  -919.154127818     A.U. after   12 cycles
 SCF Done:  E(RB3LYP) =  -919.154227670     A.U. after   12 cycles
 SCF Done:  E(RB3LYP) =  -919.155204256     A.U. after    8 cycles
 SCF Done:  E(RB3LYP) =  -919.155204280     A.U. after    6 cycles
 SCF Done:  E(RB3LYP) =  -919.155204393     A.U. after    7 cycles
 SCF Done:  E(RB3LYP) =  -919.155204497     A.U. after    8 cycles
 SCF Done:  E(RB3LYP) =  -919.155204553     A.U. after    7 cycles
 Optimization completed.
    -- Stationary point found.
 Normal termination of Gaussian 16 at Sat Dec 12 09:52:15 2020.

 --------------------------------------------------------------------
 #N Geom=AllCheck Guess=TCheck SCRF=Check GenChk RB3LYP/6-31G(d) Freq
 --------------------------------------------------------------------

 Structure from the checkpoint file:  "JID_9338.chk"
 ------------------------------
 CID_61013304_JID_9338_neutraal
 ------------------------------
 Charge =  0 Multiplicity = 1

 SCF Done:  E(RB3LYP) =  -919.155204553     A.U. after    1 cycles

  Exact polarizability: 187.533   3.877 142.061  -3.045  -1.800 139.363
 Approx polarizability: 231.002  -1.529 199.772  -5.451   8.855 236.653

                      1                      2                      3
                      A                      A                      A
 Frequencies --     21.4254                28.7706                35.9691
 Red. masses --      6.9209                 7.1890                 4.6228
 Frc consts  --      0.0019                 0.0035                 0.0035
 IR Inten    --      1.0889                 1.8553                 1.6635

                      4                      5                      6
                      A                      A                      A
 Frequencies --     45.4692                49.8249                63.8475
 Red. masses --      3.9607                 3.9447                 4.3153
 Frc consts  --      0.0048                 0.0058                 0.0104
 IR Inten    --      0.6081                 0.0547                 0.1849

                      7                      8                      9
                      A                      A                      A
 Frequencies --     80.3177                95.2259               111.0566
 Red. masses --      5.1853                 3.7600                 3.2879
 Frc consts  --      0.0197                 0.0201                 0.0239
 IR Inten    --      1.1533                 3.3664                 1.4141

                     10                     11                     12
                      A                      A                      A
 Frequencies --    124.8063               140.7602               193.8302
 Red. masses --      3.9874                 2.6020                 1.8171
 Frc consts  --      0.0366                 0.0304                 0.0402
 IR Inten    --      2.9723                 3.6177                 0.7810

                     13                     14                     15
                      A                      A                      A
 Frequencies --    195.6140               223.2493               265.4566
 Red. masses --      1.3924                 1.7082                 1.9309
 Frc consts  --      0.0314                 0.0502                 0.0802
 IR Inten    --      0.0720                 0.4806                 0.5856

                     16                     17                     18
                      A                      A                      A
 Frequencies --    282.6553               299.5240               340.2488
 Red. masses --      2.4128                 3.8626                 3.3976
 Frc consts  --      0.1136                 0.2042                 0.2317
 IR Inten    --      3.9766                 0.2756                 6.1556

                     19                     20                     21
                      A                      A                      A
 Frequencies --    353.1779               379.7763               408.5262
 Red. masses --      2.4399                 3.8117                 3.2097
 Frc consts  --      0.1793                 0.3239                 0.3156
 IR Inten    --      1.9666                11.3358                 1.7668

                     22                     23                     24
                      A                      A                      A
 Frequencies --    423.6816               428.2263               444.7254
 Red. masses --      2.9319                 2.1229                 2.9274
 Frc consts  --      0.3101                 0.2294                 0.3411
 IR Inten    --      4.6506                 0.9312                 1.0365

                     25                     26                     27
                      A                      A                      A
 Frequencies --    455.9320               501.5864               511.6303
 Red. masses --      2.8177                 3.4879                 1.8747
 Frc consts  --      0.3451                 0.5170                 0.2891
 IR Inten    --     17.0519                 2.8388                10.9885

                     28                     29                     30
                      A                      A                      A
 Frequencies --    552.1521               563.8428               590.6583
 Red. masses --      2.5108                 2.7934                 4.2926
 Frc consts  --      0.4510                 0.5232                 0.8824
 IR Inten    --      3.5591                11.4750                18.7301

                     31                     32                     33
                      A                      A                      A
 Frequencies --    604.1322               610.9740               696.5038
 Red. masses --      3.0661                 2.9761                 2.1893
 Frc consts  --      0.6593                 0.6546                 0.6258
 IR Inten    --      9.4632                51.8225                34.1688

                     34                     35                     36
                      A                      A                      A
 Frequencies --    704.7638               722.8605               755.7040
 Red. masses --      2.0416                 3.1652                 4.8231
 Frc consts  --      0.5975                 0.9745                 1.6229
 IR Inten    --     67.6756                 8.1474                13.2698

                     37                     38                     39
                      A                      A                      A
 Frequencies --    784.9056               822.0829               833.9435
 Red. masses --      1.4631                 1.5816                 3.1546
 Frc consts  --      0.5311                 0.6298                 1.2926
 IR Inten    --      4.9455                 0.7249                 2.3637

                     40                     41                     42
                      A                      A                      A
 Frequencies --    852.7861               853.5665               879.1505
 Red. masses --      3.0780                 3.9033                 2.8192
 Frc consts  --      1.3189                 1.6755                 1.2838
 IR Inten    --      3.4738                 6.4414                 3.2556

                     43                     44                     45
                      A                      A                      A
 Frequencies --    904.0982               915.7248               953.2169
 Red. masses --      1.7300                 2.0432                 2.2154
 Frc consts  --      0.8332                 1.0095                 1.1860
 IR Inten    --      0.8313                 4.4105                 7.3118

                     46                     47                     48
                      A                      A                      A
 Frequencies --    967.6621              1003.1745              1018.3380
 Red. masses --      2.3472                 1.8824                 2.2841
 Frc consts  --      1.2949                 1.1161                 1.3955
 IR Inten    --     11.7195                48.3959                57.0511

                     49                     50                     51
                      A                      A                      A
 Frequencies --   1033.3453              1055.1201              1060.6208
 Red. masses --      1.6294                 2.0735                 1.8000
 Frc consts  --      1.0251                 1.3601                 1.1930
 IR Inten    --      6.5231                 3.6662                13.4374

                     52                     53                     54
                      A                      A                      A
 Frequencies --   1064.6349              1073.7227              1118.5206
 Red. masses --      1.8561                 2.3208                 1.8346
 Frc consts  --      1.2395                 1.5764                 1.3523
 IR Inten    --     10.0239                 4.1241                18.1482

                     55                     56                     57
                      A                      A                      A
 Frequencies --   1122.2473              1142.2071              1155.3997
 Red. masses --      1.8322                 1.8830                 1.9319
 Frc consts  --      1.3596                 1.4474                 1.5195
 IR Inten    --      4.9252                 1.8982                34.4512

                     58                     59                     60
                      A                      A                      A
 Frequencies --   1174.6565              1194.1806              1223.3247
 Red. masses --      2.3322                 2.2708                 1.2699
 Frc consts  --      1.8960                 1.9079                 1.1197
 IR Inten    --      0.9055               193.5344                53.6101

                     61                     62                     63
                      A                      A                      A
 Frequencies --   1237.1232              1255.8331              1263.5365
 Red. masses --      1.6261                 1.5863                 1.4992
 Frc consts  --      1.4663                 1.4740                 1.4102
 IR Inten    --     58.3570                11.7262               125.1706

                     64                     65                     66
                      A                      A                      A
 Frequencies --   1284.1993              1311.9292              1313.0636
 Red. masses --      2.0438                 1.2411                 1.5579
 Frc consts  --      1.9858                 1.2586                 1.5825
 IR Inten    --      5.0760                21.2082                82.2784

                     67                     68                     69
                      A                      A                      A
 Frequencies --   1328.7739              1345.7556              1373.8968
 Red. masses --      1.5036                 1.3779                 1.5373
 Frc consts  --      1.5642                 1.4703                 1.7097
 IR Inten    --     11.2264                 5.8754                10.8811

                     70                     71                     72
                      A                      A                      A
 Frequencies --   1378.3635              1381.9933              1390.3660
 Red. masses --      1.5231                 1.6531                 1.6025
 Frc consts  --      1.7049                 1.8602                 1.8252
 IR Inten    --     16.7731                24.2632                20.3113

                     73                     74                     75
                      A                      A                      A
 Frequencies --   1394.7842              1400.4187              1411.3277
 Red. masses --      1.4876                 1.3915                 1.3138
 Frc consts  --      1.7051                 1.6078                 1.5419
 IR Inten    --      6.5286                16.5041                 7.7845

                     76                     77                     78
                      A                      A                      A
 Frequencies --   1413.8142              1421.0748              1429.3764
 Red. masses --      1.2959                 1.3425                 1.3971
 Frc consts  --      1.5262                 1.5974                 1.6817
 IR Inten    --      5.5355                 3.9007                20.7109

                     79                     80                     81
                      A                      A                      A
 Frequencies --   1446.0515              1474.0354              1477.7119
 Red. masses --      1.2677                 2.0826                 2.2379
 Frc consts  --      1.5619                 2.6661                 2.8792
 IR Inten    --      5.0563               193.3723               147.0162

                     82                     83                     84
                      A                      A                      A
 Frequencies --   1498.7206              1500.9657              1503.2087
 Red. masses --      1.0833                 1.0929                 1.0837
 Frc consts  --      1.4336                 1.4507                 1.4428
 IR Inten    --     11.0137                 1.9536                10.2909

                     85                     86                     87
                      A                      A                      A
 Frequencies --   1510.7763              1513.7516              1514.6777
 Red. masses --      1.0994                 1.1033                 1.0642
 Frc consts  --      1.4785                 1.4896                 1.4385
 IR Inten    --     18.9457                10.5447                 2.5755

                     88                     89                     90
                      A                      A                      A
 Frequencies --   1518.0498              1519.8136              1529.3252
 Red. masses --      1.1443                 1.0551                 1.0870
 Frc consts  --      1.5537                 1.4360                 1.4978
 IR Inten    --     14.3001                13.3528                24.5458

                     91                     92                     93
                      A                      A                      A
 Frequencies --   1537.2296              1543.0001              1745.5317
 Red. masses --      1.0601                 1.1633                 9.6263
 Frc consts  --      1.4760                 1.6319                17.2809
 IR Inten    --      7.0390                 6.0833               223.1325

                     94                     95                     96
                      A                      A                      A
 Frequencies --   1760.1770              1854.1702              3028.1236
 Red. masses --      9.3686                10.2333                 1.0645
 Frc consts  --     17.1017                20.7284                 5.7508
 IR Inten    --    313.0283               313.7122                29.2435

                     97                     98                     99
                      A                      A                      A
 Frequencies --   3043.5887              3049.3977              3053.6862
 Red. masses --      1.0662                 1.0603                 1.0719
 Frc consts  --      5.8190                 5.8092                 5.8890
 IR Inten    --     26.4445                21.5915                45.7893

                    100                    101                    102
                      A                      A                      A
 Frequencies --   3058.0119              3058.3186              3064.0431
 Red. masses --      1.0364                 1.0397                 1.0724
 Frc consts  --      5.7104                 5.7297                 5.9318
 IR Inten    --     10.2944                 6.7696                15.1256

                    103                    104                    105
                      A                      A                      A
 Frequencies --   3068.0805              3077.9305              3095.6643
 Red. masses --      1.0962                 1.0826                 1.1011
 Frc consts  --      6.0798                 6.0429                 6.2170
 IR Inten    --     38.0390                32.2540                53.9082

                    106                    107                    108
                      A                      A                      A
 Frequencies --   3098.5449              3101.0443              3115.0603
 Red. masses --      1.0642                 1.0892                 1.0704
 Frc consts  --      6.0201                 6.1710                 6.1197
 IR Inten    --     23.5380                11.3360                30.1415

                    109                    110                    111
                      A                      A                      A
 Frequencies --   3119.6018              3122.4606              3132.5132
 Red. masses --      1.1003                 1.1020                 1.1030
 Frc consts  --      6.3093                 6.3306                 6.3770
 IR Inten    --     11.7325                52.0683                22.4609

                    112                    113                    114
                      A                      A                      A
 Frequencies --   3138.9936              3157.3402              3164.9461
 Red. masses --      1.1002                 1.0941                 1.1041
 Frc consts  --      6.3872                 6.4259                 6.5161
 IR Inten    --      3.4133                 6.9388                19.9563

                    115                    116                    117
                      A                      A                      A
 Frequencies --   3171.5260              3177.4228              3684.2629
 Red. masses --      1.0952                 1.1002                 1.0641
 Frc consts  --      6.4907                 6.5441                 8.5101
 IR Inten    --      2.1428                 8.2484                65.5918

 - Thermochemistry -
 -------------------
 Temperature   298.150 Kelvin.  Pressure   1.00000 Atm.
 Atom     1 has atomic number  6 and mass  12.00000

 Molecular mass:   270.15796 amu.
 Principal axes and moments of inertia in atomic units:
                           1         2         3
     Eigenvalues --  3017.365398659.580779928.84616
           X            0.99953   0.02896  -0.00970
           Y           -0.02925   0.99911  -0.03053
           Z            0.00880   0.03080   0.99949
 This molecule is an asymmetric top.
 Rotational symmetry number  1.
 Warning -- assumption of classical behavior for rotation
           may cause significant error
 Rotational temperatures (Kelvin)      0.02871     0.01000     0.00872
 Rotational constants (GHZ):           0.59812     0.20841     0.18177
 Zero-point vibrational energy     933547.3 (Joules/Mol)
                                  223.12316 (Kcal/Mol)
 Warning -- explicit consideration of  32 degrees of freedom as
           vibrations may cause significant error
 Vibrational temperatures:     30.83    41.39    51.75    65.42    71.69
          (Kelvin)             91.86   115.56   137.01   159.79   179.57
                              202.52   278.88   281.44   321.21   381.93
                              406.68   430.95   489.54   508.14   546.41
                              587.78   609.58   616.12   639.86   655.98
                              721.67   736.12   794.42   811.24   849.83
                              869.21   879.06  1002.11  1014.00  1040.04
                             1087.29  1129.30  1182.79  1199.86  1226.97
                             1228.09  1264.90  1300.80  1317.52  1371.47
                             1392.25  1443.34  1465.16  1486.75  1518.08
                             1526.00  1531.77  1544.85  1609.30  1614.66
                             1643.38  1662.36  1690.07  1718.16  1760.09
                             1779.94  1806.86  1817.95  1847.68  1887.57
                             1889.21  1911.81  1936.24  1976.73  1983.16
                             1988.38  2000.43  2006.78  2014.89  2030.59
                             2034.16  2044.61  2056.55  2080.55  2120.81
                             2126.10  2156.32  2159.55  2162.78  2173.67
                             2177.95  2179.28  2184.14  2186.67  2200.36
                             2211.73  2220.03  2511.43  2532.50  2667.74
                             4356.79  4379.05  4387.40  4393.57  4399.80
                             4400.24  4408.47  4414.28  4428.46  4453.97
                             4458.11  4461.71  4481.88  4488.41  4492.52
                             4506.99  4516.31  4542.71  4553.65  4563.12
                             4571.60  5300.83

 Zero-point correction=                           0.355569 (Hartree/Particle)
 Thermal correction to Energy=                    0.375459
 Thermal correction to Enthalpy=                  0.376403
 Thermal correction to Gibbs Free Energy=         0.304407
 Sum of electronic and zero-point Energies=           -918.799635
 Sum of electronic and thermal Energies=              -918.779745
 Sum of electronic and thermal Enthalpies=            -918.778801
 Sum of electronic and thermal Free Energies=         -918.850797

                     E (Thermal)             CV                S
                      KCal/Mol        Cal/Mol-Kelvin    Cal/Mol-Kelvin
 Total                  235.604             73.518            151.529
 Electronic               0.000              0.000              0.000
 Translational            0.889              2.981             42.680
 Rotational               0.889              2.981             33.917
 Vibrational            233.827             67.556             74.932
 Vibration     1          0.593              1.985              6.498
 Vibration     2          0.593              1.984              5.912
 Vibration     3          0.594              1.982              5.470
 Vibration     4          0.595              1.979              5.005
 Vibration     5          0.595              1.978              4.824
 Vibration     6          0.597              1.972              4.335
 Vibration     7          0.600              1.963              3.883
 Vibration     8          0.603              1.953              3.550
 Vibration     9          0.607              1.940              3.250
 Vibration    10          0.610              1.928              3.025
 Vibration    11          0.615              1.913              2.794
 Vibration    12          0.635              1.848              2.191
 Vibration    13          0.636              1.846              2.174
 Vibration    14          0.649              1.806              1.933
 Vibration    15          0.671              1.736              1.626
 Vibration    16          0.682              1.706              1.518
 Vibration    17          0.692              1.675              1.420
 Vibration    18          0.720              1.595              1.211
 Vibration    19          0.729              1.569              1.152
 Vibration    20          0.750              1.513              1.040
 Vibration    21          0.773              1.452              0.932
 Vibration    22          0.786              1.419              0.880
 Vibration    23          0.790              1.409              0.864
 Vibration    24          0.804              1.373              0.812
 Vibration    25          0.814              1.348              0.778
 Vibration    26          0.857              1.246              0.654
 Vibration    27          0.867              1.224              0.630
 Vibration    28          0.907              1.135              0.540
 Vibration    29          0.920              1.109              0.516
 Vibration    30          0.948              1.052              0.466
 Vibration    31          0.963              1.023              0.443
 Vibration    32          0.970              1.009              0.431

 Optimization completed.
    -- Stationary point found.
 Normal termination of Gaussian 16 at Sat Dec 12 10:14:42 2020.

 ----------------------------------------------------------------------
 # B3LYP/6-311++G(d,p) empiricaldispersion=gd3bj scf=xqc pop=npa geom=c
 heck
 ----------------------------------------------------------------------

 --------------------------------------
 CID_61013304_JID_9338_Energie_neutraal
 --------------------------------------
 Structure from the checkpoint file:  "JID_9338.chk"
 Charge =  0 Multiplicity = 1

 SCF Done:  E(RB3LYP) =  -919.427888132     A.U. after   16 cycles
 Normal termination of Gaussian 16 at Sat Dec 12 10:25:59 2020.

 ----------------------------------------------------------------------
 # B3LYP/6-311++G(d,p) empiricaldispersion=gd3bj scf=xqc pop=npa geom=c
 heck
 ----------------------------------------------------------------------

 ------------------------------------
 CID_61013304_JID_9338_Energie_kation
 ------------------------------------
 Structure from the checkpoint file:  "JID_9338.chk"
 Charge =  1 Multiplicity = 2

 SCF Done:  E(UB3LYP) =  -919.125175458     A.U. after   32 cycles
 Normal termination of Gaussian 16 at Sat Dec 12 10:57:20 2020.
 Gaussian 16:  ES64L-G16RevA.03 25-Dec-2016

 ----------------------------------------------------------------------
 # B3LYP/6-311++G(d,p) empiricaldispersion=gd3bj scf=xqc pop=npa geom=c
 heck
 ----------------------------------------------------------------------

 -----------------------------------
 CID_61013304_JID_9338_Energie_anion
 -----------------------------------
 Structure from the checkpoint file:  "JID_9338.chk"
 Charge = -1 Multiplicity = 2

                         Standard orientation:
 ---------------------------------------------------------------------
 Center     Atomic      Atomic             Coordinates (Angstroms)
 Number     Number       Type             X           Y           Z
 ---------------------------------------------------------------------
      1          6           0        1.855730    3.311048   -0.308716
      2          6           0        3.144705    2.503034   -0.144148
      3          6           0        2.953991    1.229009    0.686023
      4          7           0        1.980129    0.304996    0.093630
      5          6           0        2.479089   -0.575669   -0.937285
      6          6           0        3.098598   -1.886594   -0.456762
      7          8           0        3.724490   -2.630028   -1.175799
      8          8           0        2.850397   -2.139352    0.847117
      9          6           0        0.734622    0.198078    0.671919
     10          8           0        0.413872    0.914641    1.617955
     11          6           0       -0.250002   -0.795146    0.051563
     12          6           0       -0.916452   -0.165889   -1.200042
     13          6           0       -1.934654    0.911205   -0.811123
     14          7           0       -2.941017    0.346221    0.083476
     15          6           0       -2.386816   -0.155771    1.338613
     16          6           0       -1.322745   -1.232353    1.070671
     17          6           0       -4.159306   -0.010250   -0.443518
     18          8           0       -4.466436    0.246763   -1.604617
     19          6           0       -5.139256   -0.717076    0.483826
     20          1           0        1.100315    2.735644   -0.854592
     21          1           0        2.040003    4.235388   -0.866355
     22          1           0        1.427787    3.571991    0.664435
     23          1           0        3.552003    2.247069   -1.132822
     24          1           0        3.912250    3.111703    0.351574
     25          1           0        3.905576    0.694848    0.798768
     26          1           0        2.586083    1.478328    1.681792
     27          1           0        1.703342   -0.835880   -1.661070
     28          1           0        3.252172   -0.057368   -1.511926
     29          1           0        3.272043   -2.997899    1.041699
     30          1           0        0.294042   -1.694626   -0.252771
     31          1           0       -0.162972    0.265340   -1.870454
     32          1           0       -1.440157   -0.950660   -1.758627
     33          1           0       -1.436829    1.740381   -0.294433
     34          1           0       -2.450222    1.293850   -1.690963
     35          1           0       -3.184682   -0.563292    1.959294
     36          1           0       -1.928703    0.677226    1.876255
     37          1           0       -1.820218   -2.125111    0.669548
     38          1           0       -0.844576   -1.514699    2.014356
     39          1           0       -4.779751   -1.713296    0.766504
     40          1           0       -5.315667   -0.151183    1.404683
     41          1           0       -6.079225   -0.824220   -0.058024
 ---------------------------------------------------------------------

 SCF Done:  E(UB3LYP) =  -919.423222980     A.U. after   33 cycles
 SCF Done:  E(UB3LYP) =  -919.423222980     a.u. after    1 cycles

 The electronic state is 2-A.
 Alpha  occ. eigenvalues --  -19.08198 -19.02928 -19.00096 -18.99815 -14.25876
 Alpha  occ. eigenvalues --  -14.25208 -10.22209 -10.18568 -10.18492 -10.13996
 Alpha  occ. eigenvalues --  -10.11528 -10.11289 -10.11251 -10.10098 -10.09292
 Alpha  occ. eigenvalues --  -10.09257 -10.08605 -10.08534 -10.07383  -1.02400
 Alpha  occ. eigenvalues --   -0.95458  -0.95027  -0.93604  -0.85679  -0.85375
 Alpha  occ. eigenvalues --   -0.72901  -0.70168  -0.68339  -0.66234  -0.65674
 Alpha  occ. eigenvalues --   -0.61706  -0.58946  -0.55188  -0.54191  -0.53285
 Alpha  occ. eigenvalues --   -0.50271  -0.47358  -0.45809  -0.42382  -0.41165
 Alpha  occ. eigenvalues --   -0.41034  -0.40648  -0.39137  -0.38952  -0.37752
 Alpha  occ. eigenvalues --   -0.37395  -0.37008  -0.35832  -0.35718  -0.34818
 Alpha  occ. eigenvalues --   -0.34146  -0.32623  -0.32325  -0.32043  -0.31537
 Alpha  occ. eigenvalues --   -0.31454  -0.30402  -0.29971  -0.29536  -0.28294
 Alpha  occ. eigenvalues --   -0.27347  -0.27212  -0.26850  -0.26265  -0.25567
 Alpha  occ. eigenvalues --   -0.25228  -0.24180  -0.23768  -0.20992  -0.17154
 Alpha  occ. eigenvalues --   -0.17094  -0.15925  -0.15160   0.03632
 Alpha virt. eigenvalues --    0.05523   0.06028   0.06867   0.07582   0.07912
 Alpha virt. eigenvalues --    0.08090   0.08600   0.08855   0.09245   0.10009
 Alpha virt. eigenvalues --    0.10358   0.10507   0.10759   0.10854   0.11438

  Beta  occ. eigenvalues --  -19.08126 -19.02910 -19.00092 -18.99811 -14.25877
  Beta  occ. eigenvalues --  -14.25209 -10.22208 -10.18564 -10.18492 -10.13954
  Beta  occ. eigenvalues --  -10.11523 -10.11273 -10.11249 -10.10085 -10.09274
  Beta  occ. eigenvalues --  -10.09241 -10.08583 -10.08513 -10.07372  -1.02307
  Beta  occ. eigenvalues --   -0.95453  -0.95019  -0.93530  -0.85668  -0.85370
  Beta  occ. eigenvalues --   -0.72874  -0.70132  -0.68319  -0.66176  -0.65639
  Beta  occ. eigenvalues --   -0.61681  -0.58921  -0.55156  -0.54097  -0.53229
  Beta  occ. eigenvalues --   -0.50226  -0.47298  -0.45789  -0.42345  -0.41133
  Beta  occ. eigenvalues --   -0.41004  -0.40618  -0.39107  -0.38925  -0.37720
  Beta  occ. eigenvalues --   -0.37354  -0.36976  -0.35807  -0.35682  -0.34792
  Beta  occ. eigenvalues --   -0.34128  -0.32606  -0.32302  -0.32012  -0.31482
  Beta  occ. eigenvalues --   -0.31437  -0.30378  -0.29944  -0.29519  -0.28271
  Beta  occ. eigenvalues --   -0.27329  -0.27185  -0.26822  -0.26238  -0.25542
  Beta  occ. eigenvalues --   -0.25197  -0.24154  -0.23723  -0.20937  -0.17147
  Beta  occ. eigenvalues --   -0.17086  -0.15902  -0.15151
  Beta virt. eigenvalues --    0.05695   0.06064   0.06994   0.07358   0.07920
  Beta virt. eigenvalues --    0.08173   0.08405   0.08779   0.09078   0.09462
  Beta virt. eigenvalues --    0.10167   0.10503   0.10630   0.10907   0.10980

 Mulliken charges and spin densities:
               1          2
     1  C   -0.149706  -0.284363
     2  C    0.203867  -0.459293
     3  C    0.142640  -0.307445
     4  N    0.546651  -0.072921
     5  C   -0.316441  -0.026971
     6  C    0.785664  -0.914836
     7  O   -0.260095   0.048894
     8  O   -0.201151   0.051706
     9  C   -0.743665  -0.567211
    10  O   -0.236553   0.008684
    11  C   -0.503001   1.452378
    12  C    0.397954  -0.463434
    13  C   -0.501057  -0.238123
    14  N    0.169973   0.021832
    15  C   -0.772068   0.236521
    16  C    1.254746  -1.768919
    17  C   -0.204143   0.302386
    18  O   -0.349856   0.005690
    19  C    0.144652  -0.672002
    20  H    0.122203   0.011076
    21  H   -0.088316   0.237408
    22  H    0.148305   0.000839
    23  H   -0.145138   0.265907
    24  H   -0.032904   0.179829
    25  H   -0.195313   0.360883
    26  H    0.136754   0.071692
    27  H   -0.198627   0.437735
    28  H   -0.181915   0.408249
    29  H   -0.437361   0.771379
    30  H   -0.189602   0.503573
    31  H    0.019852   0.112640
    32  H    0.085955   0.117574
    33  H    0.233811  -0.044172
    34  H    0.158517   0.093476
    35  H    0.074625   0.106014
    36  H    0.175706   0.039521
    37  H   -0.197754   0.374104
    38  H   -0.008073   0.207659
    39  H   -0.035136   0.202982
    40  H    0.013776   0.146763
    41  H    0.132226   0.042293
 Sum of Mulliken charges =  -1.00000   1.00000

 Dipole moment (field-independent basis, Debye):
    X=             -3.5089    Y=              4.6010    Z=              0.9486  Tot=              5.8636
 Quadrupole moment (field-independent basis, Debye-Ang):
   XX=           -203.2512   YY=           -170.6324   ZZ=           -156.1272
   XY=             12.4129   XZ=             -8.5838   YZ=              4.7675

 Summary of Natural Population Analysis:

                                       Natural Population
                Natural  -----------------------------------------------
    Atom  No    Charge         Core      Valence    Rydberg      Total
 -----------------------------------------------------------------------
      C    1   -0.28779      0.99966     2.28210    0.00602     3.28779
      C    2   -0.19358      0.99963     2.18677    0.00717     3.19358
      C    3   -0.08566      0.99959     2.07475    0.01132     3.08566
      N    4   -0.26149      0.99964     2.74718    0.01467     3.76149
      C    5   -0.13714      0.99954     2.12565    0.01194     3.13714
      C    6    0.40118      0.99972     1.57448    0.02462     2.59882
      O    7   -0.30232      0.99987     3.29593    0.00652     4.30232
      O    8   -0.33934      0.99988     3.33219    0.00727     4.33934
      C    9    0.36141      0.99961     1.61489    0.02409     2.63859
      O   10   -0.33166      0.99988     3.32707    0.00472     4.33166
      C   11   -0.15114      0.99955     2.14027    0.01132     3.15114
      C   12   -0.19201      0.99961     2.18377    0.00864     3.19201
      C   13   -0.09131      0.99961     2.08198    0.00972     3.09131
      N   14   -0.25617      0.99964     2.74689    0.00964     3.75617
      C   15   -0.08785      0.99960     2.07820    0.01005     3.08785
      C   16   -0.19081      0.99962     2.18055    0.01064     3.19081
      C   17    0.34368      0.99966     1.63471    0.02195     2.65632
      O   18   -0.33085      0.99988     3.32530    0.00566     4.33085
      C   19   -0.33138      0.99963     2.32742    0.00433     3.33138
      H   20    0.09782      0.00000     0.40108    0.00110     0.40218
      H   21    0.09711      0.00000     0.40219    0.00070     0.40289
      H   22    0.10116      0.00000     0.39802    0.00082     0.39884
      H   23    0.09409      0.00000     0.40453    0.00138     0.40591
      H   24    0.09690      0.00000     0.40215    0.00095     0.40310
      H   25    0.09735      0.00000     0.40128    0.00138     0.40265
      H   26    0.11323      0.00000     0.38548    0.00130     0.38677
      H   27    0.11877      0.00000     0.37987    0.00136     0.38123
      H   28    0.11812      0.00000     0.38052    0.00135     0.38188
      H   29    0.24992      0.00000     0.22618    0.02390     0.25008
      H   30    0.11174      0.00000     0.38563    0.00263     0.38826
      H   31    0.10178      0.00000     0.39711    0.00111     0.39822
      H   32    0.10469      0.00000     0.39421    0.00110     0.39531
      H   33    0.09836      0.00000     0.40047    0.00118     0.40164
      H   34    0.11647      0.00000     0.38242    0.00111     0.38353
      H   35    0.10022      0.00000     0.39869    0.00109     0.39978
      H   36    0.10973      0.00000     0.38907    0.00120     0.39027
      H   37    0.09942      0.00000     0.39915    0.00143     0.40058
      H   38    0.11001      0.00000     0.38880    0.00119     0.38999
      H   39    0.10975      0.00000     0.38897    0.00128     0.39025
      H   40    0.10577      0.00000     0.39325    0.00097     0.39423
      H   41    0.11181      0.00000     0.38722    0.00098     0.38819
 =======================================================================
   * Total *   -0.00000     18.99382    53.74638    0.25981    73.00000

 Normal termination of Gaussian 16 at Sat Dec 12 11:28:45 2020.
