 Gaussian 16, Revision A.03,

 -----------------------------------------------------------
 # opt freq B3LYP/6-31G(d) empiricaldispersion=gd3bj scf=xqc
 -----------------------------------------------------------

 -------------------------------
 CID_149010180_JID_6647_neutraal
 -------------------------------
 Symbolic Z-matrix:
 Charge =  0 Multiplicity = 1

 SCF Done:  E(RB3LYP) =  -1100.35484826     A.U. after   15 cycles
 SCF Done:  E(RB3LYP) =  -1100.36226801     A.U. after   13 cycles
 SCF Done:  E(RB3LYP) =  -1100.36262744     A.U. after   13 cycles
 SCF Done:  E(RB3LYP) =  -1100.36323807     A.U. after   13 cycles
 SCF Done:  E(RB3LYP) =  -1100.36432079     A.U. after   13 cycles
 SCF Done:  E(RB3LYP) =  -1100.36465351     A.U. after   13 cycles
 SCF Done:  E(RB3LYP) =  -1100.36474693     A.U. after   12 cycles
 SCF Done:  E(RB3LYP) =  -1100.36500449     A.U. after   12 cycles
 SCF Done:  E(RB3LYP) =  -1100.36509749     A.U. after   12 cycles
 SCF Done:  E(RB3LYP) =  -1100.36520220     A.U. after   12 cycles
 SCF Done:  E(RB3LYP) =  -1100.36594883     A.U. after   11 cycles
 SCF Done:  E(RB3LYP) =  -1100.36598145     A.U. after   11 cycles
 SCF Done:  E(RB3LYP) =  -1100.36598364     A.U. after   10 cycles
 SCF Done:  E(RB3LYP) =  -1100.36598339     A.U. after    9 cycles
 SCF Done:  E(RB3LYP) =  -1100.36598385     A.U. after    8 cycles
 SCF Done:  E(RB3LYP) =  -1100.36598379     A.U. after    7 cycles
 Optimization completed.
    -- Stationary point found.
 Normal termination of Gaussian 16 at Fri Dec 11 00:29:52 2020.

 --------------------------------------------------------------------
 #N Geom=AllCheck Guess=TCheck SCRF=Check GenChk RB3LYP/6-31G(d) Freq
 --------------------------------------------------------------------

 Structure from the checkpoint file:  "JID_6647.chk"
 -------------------------------
 CID_149010180_JID_6647_neutraal
 -------------------------------
 Charge =  0 Multiplicity = 1

 SCF Done:  E(RB3LYP) =  -1100.36598379     A.U. after    1 cycles

  Exact polarizability: 143.782  13.955 147.063 -10.659   2.184 140.053
 Approx polarizability: 208.201  22.528 215.250 -33.728   7.020 246.911

                      1                      2                      3
                      A                      A                      A
 Frequencies --     24.2913                40.0336                46.1235
 Red. masses --      8.1687                 3.7364                 4.0778
 Frc consts  --      0.0028                 0.0035                 0.0051
 IR Inten    --      1.2345                 1.9577                 4.3525

                      4                      5                      6
                      A                      A                      A
 Frequencies --     57.6903                81.1564                86.5633
 Red. masses --      5.4774                 3.8080                 3.4189
 Frc consts  --      0.0107                 0.0148                 0.0151
 IR Inten    --      0.0992                 3.2737                 1.9425

                      7                      8                      9
                      A                      A                      A
 Frequencies --    113.4748               136.3413               153.7969
 Red. masses --      3.4814                 2.2707                 1.4077
 Frc consts  --      0.0264                 0.0249                 0.0196
 IR Inten    --      2.2482                 4.6852                 1.6291

                     10                     11                     12
                      A                      A                      A
 Frequencies --    169.5468               176.1044               241.7131
 Red. masses --      2.4466                 2.8582                 1.4416
 Frc consts  --      0.0414                 0.0522                 0.0496
 IR Inten    --      2.8017                 5.2500                 1.4669

                     13                     14                     15
                      A                      A                      A
 Frequencies --    256.6768               277.3440               293.3376
 Red. masses --      1.5426                 1.7192                 3.8026
 Frc consts  --      0.0599                 0.0779                 0.1928
 IR Inten    --      1.9447                 3.3165                 2.3427

                     16                     17                     18
                      A                      A                      A
 Frequencies --    297.6700               315.1463               348.3345
 Red. masses --      3.6537                 2.6143                 4.8040
 Frc consts  --      0.1907                 0.1530                 0.3434
 IR Inten    --      1.6276                 5.3390                 2.7775

                     19                     20                     21
                      A                      A                      A
 Frequencies --    395.7971               406.3410               456.8166
 Red. masses --      3.3045                 2.1839                 2.7485
 Frc consts  --      0.3050                 0.2124                 0.3379
 IR Inten    --      2.2705                 1.7281                 7.8394

                     22                     23                     24
                      A                      A                      A
 Frequencies --    474.1512               506.0035               524.1057
 Red. masses --      2.7269                 3.8899                 3.6546
 Frc consts  --      0.3612                 0.5868                 0.5915
 IR Inten    --      1.9566                18.2961                 8.7957

                     25                     26                     27
                      A                      A                      A
 Frequencies --    628.3432               653.5149               682.9460
 Red. masses --      4.3370                 4.9243                 4.8470
 Frc consts  --      1.0089                 1.2391                 1.3320
 IR Inten    --      2.1092                 2.6886                14.8786

                     28                     29                     30
                      A                      A                      A
 Frequencies --    694.7709               722.5281               770.5519
 Red. masses --      4.3816                 4.7999                 1.5990
 Frc consts  --      1.2461                 1.4763                 0.5594
 IR Inten    --      8.9311                 2.2476                36.8994

                     31                     32                     33
                      A                      A                      A
 Frequencies --    788.6939               805.2317               918.3239
 Red. masses --      1.4064                 3.2572                 2.0652
 Frc consts  --      0.5155                 1.2443                 1.0261
 IR Inten    --     98.4396                20.8098                 6.4998

                     34                     35                     36
                      A                      A                      A
 Frequencies --    945.6896               959.8152               984.2124
 Red. masses --      4.2260                 2.2564                 2.5192
 Frc consts  --      2.2268                 1.2248                 1.4378
 IR Inten    --     28.4816                 5.2435                 5.4536

                     37                     38                     39
                      A                      A                      A
 Frequencies --   1002.0396              1043.3274              1049.8776
 Red. masses --      1.8941                 4.9870                 4.3470
 Frc consts  --      1.1205                 3.1984                 2.8231
 IR Inten    --      6.7132                 9.9458                16.5777

                     40                     41                     42
                      A                      A                      A
 Frequencies --   1063.4939              1078.7163              1107.2464
 Red. masses --      3.7716                 2.3439                 1.8166
 Frc consts  --      2.5133                 1.6070                 1.3122
 IR Inten    --     12.4113                23.9377                49.8693

                     43                     44                     45
                      A                      A                      A
 Frequencies --   1135.5668              1149.0903              1154.9954
 Red. masses --      2.4997                 1.6045                 1.7159
 Frc consts  --      1.8992                 1.2482                 1.3487
 IR Inten    --     48.0513                64.8151                65.6188

                     46                     47                     48
                      A                      A                      A
 Frequencies --   1157.7806              1175.9839              1190.4233
 Red. masses --      1.6682                 1.6307                 1.2902
 Frc consts  --      1.3175                 1.3287                 1.0772
 IR Inten    --     43.2182                 4.0992                 1.8655

                     49                     50                     51
                      A                      A                      A
 Frequencies --   1204.4161              1223.7131              1254.6770
 Red. masses --      2.0076                 1.6478                 1.9763
 Frc consts  --      1.7159                 1.4539                 1.8330
 IR Inten    --     50.8523                21.3662                56.9263

                     52                     53                     54
                      A                      A                      A
 Frequencies --   1284.2508              1293.7677              1314.7649
 Red. masses --      2.4853                 3.0330                 1.8801
 Frc consts  --      2.4151                 2.9911                 1.9148
 IR Inten    --     42.8241                20.0449                19.8098

                     55                     56                     57
                      A                      A                      A
 Frequencies --   1325.9881              1363.0944              1389.2473
 Red. masses --      2.2258                 1.5510                 2.4643
 Frc consts  --      2.3058                 1.6979                 2.8022
 IR Inten    --    128.6441                 3.8745                 6.8605

                     58                     59                     60
                      A                      A                      A
 Frequencies --   1406.2263              1407.2528              1423.6005
 Red. masses --      1.3583                 1.4190                 1.6216
 Frc consts  --      1.5826                 1.6557                 1.9363
 IR Inten    --     21.3450                10.5701                15.6515

                     61                     62                     63
                      A                      A                      A
 Frequencies --   1434.5889              1479.5485              1490.1299
 Red. masses --      1.8191                 1.1439                 1.7931
 Frc consts  --      2.2057                 1.4754                 2.3458
 IR Inten    --    131.1858                 4.6934                20.7074

                     64                     65                     66
                      A                      A                      A
 Frequencies --   1497.5893              1504.7903              1507.3250
 Red. masses --      1.1541                 1.3285                 1.2348
 Frc consts  --      1.5250                 1.7724                 1.6529
 IR Inten    --      0.8891                23.4858                11.7133

                     67                     68                     69
                      A                      A                      A
 Frequencies --   1510.4501              1515.0031              1517.8018
 Red. masses --      1.2206                 1.3369                 1.0972
 Frc consts  --      1.6408                 1.8079                 1.4893
 IR Inten    --     30.0798                24.5683                 5.2342

                     70                     71                     72
                      A                      A                      A
 Frequencies --   1520.4716              1529.3919              1535.8468
 Red. masses --      1.0659                 1.0879                 1.0944
 Frc consts  --      1.4518                 1.4993                 1.5210
 IR Inten    --     25.4865                12.5233                14.3831

                     73                     74                     75
                      A                      A                      A
 Frequencies --   1544.9683              1559.2673              1569.9031
 Red. masses --      1.0611                 1.0676                 1.4176
 Frc consts  --      1.4923                 1.5293                 2.0584
 IR Inten    --      9.3623                41.4370               101.4822

                     76                     77                     78
                      A                      A                      A
 Frequencies --   1595.2944              2963.6439              2976.7594
 Red. masses --      5.9561                 1.0554                 1.0708
 Frc consts  --      8.9309                 5.4616                 5.5902
 IR Inten    --      4.8037                47.9157                82.3043

                     79                     80                     81
                      A                      A                      A
 Frequencies --   3034.1440              3046.4150              3053.4448
 Red. masses --      1.0448                 1.0466                 1.0703
 Frc consts  --      5.6668                 5.7229                 5.8796
 IR Inten    --     39.6656                50.3525                38.6104

                     82                     83                     84
                      A                      A                      A
 Frequencies --   3069.3745              3082.5922              3094.1157
 Red. masses --      1.0834                 1.0644                 1.0964
 Frc consts  --      6.0137                 5.9591                 6.1843
 IR Inten    --     18.8763                44.1798                28.1200

                     85                     86                     87
                      A                      A                      A
 Frequencies --   3115.5338              3128.4602              3143.6626
 Red. masses --      1.0906                 1.0905                 1.0989
 Frc consts  --      6.2373                 6.2886                 6.3983
 IR Inten    --     21.7189                26.2060                28.1354

                     88                     89                     90
                      A                      A                      A
 Frequencies --   3145.7859              3164.2007              3166.3967
 Red. masses --      1.1006                 1.0954                 1.1020
 Frc consts  --      6.4173                 6.4615                 6.5096
 IR Inten    --      4.0444                 6.6373                16.1503

                     91                     92                     93
                      A                      A                      A
 Frequencies --   3174.8220              3309.2880              3572.9903
 Red. masses --      1.0989                 1.0983                 1.0754
 Frc consts  --      6.5260                 7.0863                 8.0888
 IR Inten    --      1.7791                 0.1411                24.7791

 - Thermochemistry -
 -------------------
 Temperature   298.150 Kelvin.  Pressure   1.00000 Atm.
 Atom     1 has atomic number  6 and mass  12.00000

 Molecular mass:   243.11538 amu.
 Principal axes and moments of inertia in atomic units:
                           1         2         3
     Eigenvalues --  3048.186234638.961095791.92449
           X            0.99849   0.05291  -0.01443
           Y           -0.05252   0.99828   0.02615
           Z            0.01579  -0.02535   0.99955
 This molecule is an asymmetric top.
 Rotational symmetry number  1.
 Warning -- assumption of classical behavior for rotation
           may cause significant error
 Rotational temperatures (Kelvin)      0.02841     0.01867     0.01495
 Rotational constants (GHZ):           0.59207     0.38904     0.31160
 Zero-point vibrational energy     730838.9 (Joules/Mol)
                                  174.67469 (Kcal/Mol)
 Warning -- explicit consideration of  24 degrees of freedom as
           vibrations may cause significant error
 Vibrational temperatures:     34.95    57.60    66.36    83.00   116.77
          (Kelvin)            124.55   163.26   196.16   221.28   243.94
                              253.37   347.77   369.30   399.04   422.05
                              428.28   453.43   501.18   569.46   584.63
                              657.26   682.20   728.03   754.07   904.05
                              940.26   982.61   999.62  1039.56  1108.65
                             1134.75  1158.55  1321.26  1360.64  1380.96
                             1416.06  1441.71  1501.12  1510.54  1530.13
                             1552.03  1593.08  1633.83  1653.28  1661.78
                             1665.79  1691.98  1712.75  1732.89  1760.65
                             1805.20  1847.75  1861.44  1891.65  1907.80
                             1961.19  1998.82  2023.25  2024.72  2048.24
                             2064.05  2128.74  2143.96  2154.70  2165.06
                             2168.70  2173.20  2179.75  2183.78  2187.62
                             2200.45  2209.74  2222.86  2243.44  2258.74
                             2295.27  4264.02  4282.89  4365.46  4383.11
                             4393.23  4416.15  4435.16  4451.74  4482.56
                             4501.16  4523.03  4526.08  4552.58  4555.74
                             4567.86  4761.33  5140.74

 Zero-point correction=                           0.278362 (Hartree/Particle)
 Thermal correction to Energy=                    0.295479
 Thermal correction to Enthalpy=                  0.296423
 Thermal correction to Gibbs Free Energy=         0.231636
 Sum of electronic and zero-point Energies=          -1100.087622
 Sum of electronic and thermal Energies=             -1100.070505
 Sum of electronic and thermal Enthalpies=           -1100.069560
 Sum of electronic and thermal Free Energies=        -1100.134347

                     E (Thermal)             CV                S
                      KCal/Mol        Cal/Mol-Kelvin    Cal/Mol-Kelvin
 Total                  185.416             61.412            136.356
 Electronic               0.000              0.000              0.000
 Translational            0.889              2.981             42.366
 Rotational               0.889              2.981             32.771
 Vibrational            183.639             55.450             61.219
 Vibration     1          0.593              1.985              6.248
 Vibration     2          0.594              1.981              5.257
 Vibration     3          0.595              1.979              4.977
 Vibration     4          0.596              1.974              4.535
 Vibration     5          0.600              1.962              3.863
 Vibration     6          0.601              1.959              3.736
 Vibration     7          0.607              1.938              3.209
 Vibration     8          0.614              1.917              2.855
 Vibration     9          0.619              1.898              2.625
 Vibration    10          0.625              1.880              2.441
 Vibration    11          0.628              1.872              2.369
 Vibration    12          0.658              1.776              1.790
 Vibration    13          0.666              1.751              1.684
 Vibration    14          0.678              1.715              1.550
 Vibration    15          0.688              1.686              1.455
 Vibration    16          0.691              1.678              1.430
 Vibration    17          0.703              1.645              1.335
 Vibration    18          0.726              1.579              1.174
 Vibration    19          0.763              1.479              0.978
 Vibration    20          0.771              1.456              0.940
 Vibration    21          0.815              1.346              0.775
 Vibration    22          0.831              1.307              0.726
 Vibration    23          0.861              1.237              0.643
 Vibration    24          0.879              1.197              0.601

 Optimization completed.
    -- Stationary point found.
 Normal termination of Gaussian 16 at Fri Dec 11 00:42:00 2020.

 ----------------------------------------------------------------------
 # B3LYP/6-311++G(d,p) empiricaldispersion=gd3bj scf=xqc pop=npa geom=c
 heck
 ----------------------------------------------------------------------

 ---------------------------------------
 CID_149010180_JID_6647_Energie_neutraal
 ---------------------------------------
 Structure from the checkpoint file:  "JID_6647.chk"
 Charge =  0 Multiplicity = 1

 SCF Done:  E(RB3LYP) =  -1100.58915700     A.U. after   16 cycles
 Normal termination of Gaussian 16 at Fri Dec 11 00:48:18 2020.

 ----------------------------------------------------------------------
 # B3LYP/6-311++G(d,p) empiricaldispersion=gd3bj scf=xqc pop=npa geom=c
 heck
 ----------------------------------------------------------------------

 -------------------------------------
 CID_149010180_JID_6647_Energie_kation
 -------------------------------------
 Structure from the checkpoint file:  "JID_6647.chk"
 Charge =  1 Multiplicity = 2

 SCF Done:  E(UB3LYP) =  -1100.29704584     A.U. after   30 cycles
 Normal termination of Gaussian 16 at Fri Dec 11 01:04:46 2020.
 Gaussian 16:  ES64L-G16RevA.03 25-Dec-2016

 ----------------------------------------------------------------------
 # B3LYP/6-311++G(d,p) empiricaldispersion=gd3bj scf=xqc pop=npa geom=c
 heck
 ----------------------------------------------------------------------

 ------------------------------------
 CID_149010180_JID_6647_Energie_anion
 ------------------------------------
 Structure from the checkpoint file:  "JID_6647.chk"
 Charge = -1 Multiplicity = 2

                         Standard orientation:
 ---------------------------------------------------------------------
 Center     Atomic      Atomic             Coordinates (Angstroms)
 Number     Number       Type             X           Y           Z
 ---------------------------------------------------------------------
      1          6           0        1.193270   -2.048782   -1.685272
      2          7           0        1.909035   -1.966313   -0.406832
      3          6           0        1.791115   -0.860603    0.425318
      4         16           0        1.314686   -1.065180    2.022759
      5          7           0        2.130237    0.339007   -0.140737
      6          6           0        2.993123    0.424490   -1.315213
      7          6           0        1.878257    1.600925    0.545834
      8          6           0        0.883442    2.489834   -0.210260
      9          7           0       -0.450223    1.919954   -0.217977
     10          6           0       -0.948778    0.900383   -0.960929
     11          6           0       -2.209396    0.677633   -0.448242
     12          7           0       -2.408976    1.561704    0.577958
     13          7           0       -1.350662    2.304932    0.722424
     14          6           0       -3.232971   -0.347204   -0.834660
     15          8           0       -3.435753   -1.354995    0.140083
     16          6           0       -2.288200   -2.142961    0.387630
     17          1           0        0.107098   -1.956796   -1.553988
     18          1           0        1.410966   -3.022378   -2.131049
     19          1           0        1.529100   -1.283533   -2.386056
     20          1           0        1.760475   -2.798502    0.152840
     21          1           0        2.446285    0.713292   -2.222475
     22          1           0        3.764451    1.180511   -1.132399
     23          1           0        3.478322   -0.537156   -1.481449
     24          1           0        1.488632    1.378913    1.538954
     25          1           0        2.826080    2.142759    0.658519
     26          1           0        0.804051    3.456344    0.292370
     27          1           0        1.198617    2.664001   -1.244165
     28          1           0       -0.397152    0.445127   -1.767114
     29          1           0       -4.208448    0.130407   -0.960657
     30          1           0       -2.941369   -0.797178   -1.799913
     31          1           0       -1.936211   -2.637369   -0.536028
     32          1           0       -1.460663   -1.560881    0.813683
     33          1           0       -2.584225   -2.911992    1.105038
 ---------------------------------------------------------------------

 SCF Done:  E(UB3LYP) =  -1100.59041014     A.U. after   32 cycles

 The electronic state is 2-A.
 Alpha  occ. eigenvalues --  -88.69980 -19.03646 -14.30835 -14.27315 -14.27145
 Alpha  occ. eigenvalues --  -14.24884 -14.23787 -10.19345 -10.13660 -10.13600
 Alpha  occ. eigenvalues --  -10.12565 -10.12096 -10.11678 -10.11425 -10.11296
 Alpha  occ. eigenvalues --  -10.10463  -7.78783  -5.75179  -5.74643  -5.74291
 Alpha  occ. eigenvalues --   -1.00383  -0.94868  -0.90507  -0.83819  -0.82193
 Alpha  occ. eigenvalues --   -0.72313  -0.69086  -0.67509  -0.63974  -0.61476
 Alpha  occ. eigenvalues --   -0.58657  -0.58102  -0.56853  -0.51704  -0.50556
 Alpha  occ. eigenvalues --   -0.47554  -0.44295  -0.42785  -0.41000  -0.39983
 Alpha  occ. eigenvalues --   -0.39666  -0.39326  -0.38753  -0.38081  -0.36249
 Alpha  occ. eigenvalues --   -0.36008  -0.35211  -0.32959  -0.32433  -0.32118
 Alpha  occ. eigenvalues --   -0.31391  -0.29909  -0.29363  -0.29127  -0.27730
 Alpha  occ. eigenvalues --   -0.25885  -0.24420  -0.23278  -0.20187  -0.18066
 Alpha  occ. eigenvalues --   -0.17832  -0.17356  -0.16415  -0.13512  -0.12004
 Alpha  occ. eigenvalues --    0.03382
 Alpha virt. eigenvalues --    0.05385   0.06746   0.07166   0.07708   0.08197
 Alpha virt. eigenvalues --    0.08766   0.09102   0.09678   0.10076   0.10429
 Alpha virt. eigenvalues --    0.11123   0.11677   0.12214   0.12385   0.12776

  Beta  occ. eigenvalues --  -88.69979 -19.03643 -14.30817 -14.27275 -14.27136
  Beta  occ. eigenvalues --  -14.24881 -14.23782 -10.19317 -10.13653 -10.13573
  Beta  occ. eigenvalues --  -10.12552 -10.12055 -10.11672 -10.11368 -10.11223
  Beta  occ. eigenvalues --  -10.10462  -7.78782  -5.75178  -5.74640  -5.74290
  Beta  occ. eigenvalues --   -1.00338  -0.94862  -0.90475  -0.83785  -0.82156
  Beta  occ. eigenvalues --   -0.72264  -0.69045  -0.67445  -0.63950  -0.61396
  Beta  occ. eigenvalues --   -0.58597  -0.58048  -0.56832  -0.51644  -0.50525
  Beta  occ. eigenvalues --   -0.47503  -0.44221  -0.42745  -0.40939  -0.39945
  Beta  occ. eigenvalues --   -0.39598  -0.39268  -0.38704  -0.38048  -0.36211
  Beta  occ. eigenvalues --   -0.35944  -0.35142  -0.32923  -0.32373  -0.32054
  Beta  occ. eigenvalues --   -0.31366  -0.29859  -0.29342  -0.29080  -0.27691
  Beta  occ. eigenvalues --   -0.25801  -0.24387  -0.23261  -0.20088  -0.18032
  Beta  occ. eigenvalues --   -0.17774  -0.17325  -0.16317  -0.13479  -0.11992
  Beta virt. eigenvalues --    0.05874   0.06255   0.07238   0.07631   0.08400
  Beta virt. eigenvalues --    0.08531   0.09220   0.09635   0.09758   0.10603
  Beta virt. eigenvalues --    0.10755   0.11400   0.11848   0.12626   0.12687

 Mulliken charges and spin densities:
               1          2
     1  C    0.664027  -1.073295
     2  N   -0.085769   0.098832
     3  C   -0.464106   0.203357
     4  S   -0.486233  -0.061979
     5  N    0.023410   0.149820
     6  C    1.439924  -1.777671
     7  C   -0.323779   0.185659
     8  C    0.403146  -0.782784
     9  N    0.236518   0.070921
    10  C   -0.005935  -0.279927
    11  C   -0.084097   0.142433
    12  N   -0.052767   0.003174
    13  N   -0.106613   0.047612
    14  C   -0.033762  -0.563835
    15  O   -0.099120   0.011594
    16  C   -0.394432  -0.008336
    17  H    0.122151   0.011587
    18  H   -0.490163   0.658028
    19  H   -0.318922   0.498451
    20  H    0.215633   0.053415
    21  H   -0.483521   0.700366
    22  H   -0.422578   0.582862
    23  H   -0.146324   0.337357
    24  H    0.113004  -0.017525
    25  H   -0.073126   0.259377
    26  H    0.008727   0.199298
    27  H   -0.358266   0.564293
    28  H   -0.325862   0.540643
    29  H    0.179443   0.006164
    30  H   -0.052772   0.184484
    31  H    0.083655   0.043687
    32  H    0.205026  -0.013078
    33  H    0.113482   0.025018
 Sum of Mulliken charges =  -1.00000   1.00000

 Dipole moment (field-independent basis, Debye):
    X=             -2.1891    Y=             -1.4946    Z=              3.0133  Tot=              4.0132
 Quadrupole moment (field-independent basis, Debye-Ang):
   XX=           -164.2121   YY=           -144.2031   ZZ=           -161.1589
   XY=              1.3075   XZ=             17.2498   YZ=              0.9715

 Summary of Natural Population Analysis:

                                       Natural Population
                Natural  -----------------------------------------------
    Atom  No    Charge         Core      Valence    Rydberg      Total
 -----------------------------------------------------------------------
      C    1   -0.18130      0.99962     2.17291    0.00877     3.18130
      N    2   -0.32861      0.99966     2.81659    0.01236     3.82861
      C    3    0.16218      0.99960     1.81533    0.02289     2.83782
      S    4   -0.13447      4.99955     3.12258    0.01234     8.13447
      N    5   -0.25740      0.99961     2.74195    0.01584     3.75740
      C    6   -0.18250      0.99962     2.17378    0.00910     3.18250
      C    7   -0.09057      0.99959     2.08047    0.01051     3.09057
      C    8   -0.09076      0.99959     2.07942    0.01175     3.09076
      N    9   -0.10503      0.99966     2.59131    0.01406     3.60503
      C   10   -0.01376      0.99947     2.00138    0.01290     3.01376
      C   11    0.01764      0.99955     1.96867    0.01415     2.98236
      N   12   -0.13262      0.99972     2.62001    0.01290     3.63262
      N   13   -0.03751      0.99978     2.52321    0.01452     3.53751
      C   14   -0.02268      0.99954     2.00910    0.01403     3.02268
      O   15   -0.29164      0.99989     3.28322    0.00853     4.29164
      C   16   -0.10551      0.99961     2.09651    0.00939     3.10551
      H   17    0.08874      0.00000     0.40907    0.00219     0.41126
      H   18    0.10127      0.00000     0.39736    0.00137     0.39873
      H   19    0.10284      0.00000     0.39460    0.00257     0.39716
      H   20    0.19351      0.00000     0.30432    0.00218     0.30649
      H   21    0.10403      0.00000     0.38952    0.00645     0.39597
      H   22    0.10081      0.00000     0.39742    0.00177     0.39919
      H   23    0.11008      0.00000     0.38829    0.00163     0.38992
      H   24    0.12283      0.00000     0.37562    0.00155     0.37717
      H   25    0.09921      0.00000     0.39974    0.00105     0.40079
      H   26    0.11148      0.00000     0.38721    0.00132     0.38852
      H   27    0.10905      0.00000     0.38844    0.00251     0.39095
      H   28    0.11560      0.00000     0.38193    0.00248     0.38440
      H   29    0.09756      0.00000     0.40127    0.00118     0.40244
      H   30    0.08273      0.00000     0.41590    0.00137     0.41727
      H   31    0.07309      0.00000     0.42568    0.00123     0.42691
      H   32    0.09312      0.00000     0.40552    0.00136     0.40688
      H   33    0.08860      0.00000     0.41064    0.00075     0.41140
 =======================================================================
   * Total *    0.00002     19.99407    44.76895    0.23696    64.99998

 Normal termination of Gaussian 16 at Fri Dec 11 01:22:22 2020.
