 Gaussian 16, Revision A.03,

 -----------------------------------------------------------
 # opt freq B3LYP/6-31G(d) empiricaldispersion=gd3bj scf=xqc
 -----------------------------------------------------------

 -------------------------------
 CID_131224542_JID_1252_neutraal
 -------------------------------
 Symbolic Z-matrix:
 Charge =  0 Multiplicity = 1

 SCF Done:  E(RB3LYP) =  -859.298771079     A.U. after   14 cycles
 SCF Done:  E(RB3LYP) =  -859.304844090     A.U. after   13 cycles
 SCF Done:  E(RB3LYP) =  -859.305587079     A.U. after   13 cycles
 SCF Done:  E(RB3LYP) =  -859.306799085     A.U. after   12 cycles
 SCF Done:  E(RB3LYP) =  -859.307758786     A.U. after   12 cycles
 SCF Done:  E(RB3LYP) =  -859.308913947     A.U. after   14 cycles
 SCF Done:  E(RB3LYP) =  -859.309800602     A.U. after   13 cycles
 SCF Done:  E(RB3LYP) =  -859.310577814     A.U. after   12 cycles
 SCF Done:  E(RB3LYP) =  -859.311077003     A.U. after   12 cycles
 SCF Done:  E(RB3LYP) =  -859.311301747     A.U. after   12 cycles
 SCF Done:  E(RB3LYP) =  -859.311735576     A.U. after   10 cycles
 SCF Done:  E(RB3LYP) =  -859.311740746     A.U. after    9 cycles
 SCF Done:  E(RB3LYP) =  -859.311745205     A.U. after    9 cycles
 SCF Done:  E(RB3LYP) =  -859.311746285     A.U. after    8 cycles
 SCF Done:  E(RB3LYP) =  -859.311746959     A.U. after    8 cycles
 SCF Done:  E(RB3LYP) =  -859.311747067     A.U. after    7 cycles
 Optimization completed.
    -- Stationary point found.
 Normal termination of Gaussian 16 at Tue Dec  8 19:38:48 2020.

 --------------------------------------------------------------------
 #N Geom=AllCheck Guess=TCheck SCRF=Check GenChk RB3LYP/6-31G(d) Freq
 --------------------------------------------------------------------

 Structure from the checkpoint file:  "JID_1252.chk"
 -------------------------------
 CID_131224542_JID_1252_neutraal
 -------------------------------
 Charge =  0 Multiplicity = 1

 SCF Done:  E(RB3LYP) =  -859.311747067     A.U. after    1 cycles

  Exact polarizability: 150.221  -8.320 109.206  -0.652  -1.123  84.543
 Approx polarizability: 200.106 -12.444 158.701  -1.859  -5.274 125.144

                      1                      2                      3
                      A                      A                      A
 Frequencies --     32.6324                46.3785                56.2877
 Red. masses --      2.9115                 4.1151                 3.3849
 Frc consts  --      0.0018                 0.0052                 0.0063
 IR Inten    --      0.0417                 0.2710                 0.1732

                      4                      5                      6
                      A                      A                      A
 Frequencies --    102.0294               106.7156               142.3867
 Red. masses --      2.1026                 1.5326                 2.7019
 Frc consts  --      0.0129                 0.0103                 0.0323
 IR Inten    --      0.7637                 1.5110                 7.2658

                      7                      8                      9
                      A                      A                      A
 Frequencies --    157.5190               175.5193               217.7814
 Red. masses --      1.7965                 2.0865                 2.2058
 Frc consts  --      0.0263                 0.0379                 0.0616
 IR Inten    --      1.1166                 1.0820                 0.1910

                     10                     11                     12
                      A                      A                      A
 Frequencies --    226.6082               238.5898               283.8634
 Red. masses --      2.2187                 1.2719                 1.0506
 Frc consts  --      0.0671                 0.0427                 0.0499
 IR Inten    --      3.7475                 0.2254                 0.2652

                     13                     14                     15
                      A                      A                      A
 Frequencies --    305.2392               323.5012               330.2432
 Red. masses --      3.7322                 2.6698                 3.0428
 Frc consts  --      0.2049                 0.1646                 0.1955
 IR Inten    --      4.2892                 1.5635                 3.8355

                     16                     17                     18
                      A                      A                      A
 Frequencies --    374.9079               453.3006               457.6719
 Red. masses --      2.1272                 4.0806                 3.8780
 Frc consts  --      0.1762                 0.4940                 0.4786
 IR Inten    --      1.6431                 3.0444                 7.9176

                     19                     20                     21
                      A                      A                      A
 Frequencies --    513.7024               557.4418               589.5588
 Red. masses --      4.7340                 2.2889                 5.1139
 Frc consts  --      0.7360                 0.4191                 1.0473
 IR Inten    --     15.8681                 6.4830                43.8797

                     22                     23                     24
                      A                      A                      A
 Frequencies --    656.7504               670.9202               784.4409
 Red. masses --      6.2953                 6.4067                 2.8583
 Frc consts  --      1.5998                 1.6991                 1.0363
 IR Inten    --     39.5255                38.2844                24.1993

                     25                     26                     27
                      A                      A                      A
 Frequencies --    794.7818               911.2280               935.6344
 Red. masses --      1.4972                 2.2101                 1.3314
 Frc consts  --      0.5572                 1.0812                 0.6867
 IR Inten    --    101.2482                10.8351                 0.3384

                     28                     29                     30
                      A                      A                      A
 Frequencies --    949.8355               977.5293              1026.5569
 Red. masses --      1.2984                 1.8597                 4.3785
 Frc consts  --      0.6902                 1.0470                 2.7186
 IR Inten    --      0.1962                20.3251                 8.9460

                     31                     32                     33
                      A                      A                      A
 Frequencies --   1035.6410              1076.3316              1133.2200
 Red. masses --      2.1309                 3.0292                 1.3383
 Frc consts  --      1.3466                 2.0676                 1.0126
 IR Inten    --    157.3197               151.8862                 1.6186

                     34                     35                     36
                      A                      A                      A
 Frequencies --   1157.0323              1157.9307              1168.7119
 Red. masses --      1.5625                 2.1006                 1.3507
 Frc consts  --      1.2324                 1.6594                 1.0870
 IR Inten    --      3.7257                13.3784                27.1357

                     37                     38                     39
                      A                      A                      A
 Frequencies --   1185.2469              1206.2551              1209.9482
 Red. masses --      2.3412                 2.0396                 1.9535
 Frc consts  --      1.9378                 1.7485                 1.6850
 IR Inten    --    246.7297                18.8635                14.2510

                     40                     41                     42
                      A                      A                      A
 Frequencies --   1289.3968              1326.8781              1362.5038
 Red. masses --      2.8754                 1.1593                 1.2007
 Frc consts  --      2.8165                 1.2026                 1.3133
 IR Inten    --     92.7464                16.1563                22.5329

                     43                     44                     45
                      A                      A                      A
 Frequencies --   1383.0072              1414.4504              1429.5087
 Red. masses --      1.3381                 1.1890                 1.2967
 Frc consts  --      1.5080                 1.4015                 1.5613
 IR Inten    --      4.2012                 6.8178                15.0347

                     46                     47                     48
                      A                      A                      A
 Frequencies --   1446.4472              1463.4991              1477.3079
 Red. masses --      1.2473                 1.2394                 1.3061
 Frc consts  --      1.5375                 1.5640                 1.6795
 IR Inten    --     19.2549                43.2123                 9.1259

                     49                     50                     51
                      A                      A                      A
 Frequencies --   1492.3371              1499.2682              1511.9752
 Red. masses --      1.1018                 1.1399                 1.0466
 Frc consts  --      1.4458                 1.5096                 1.4097
 IR Inten    --      3.3098                 4.4264                 2.4932

                     52                     53                     54
                      A                      A                      A
 Frequencies --   1517.9768              1520.9719              1527.8319
 Red. masses --      1.0470                 1.0528                 1.0484
 Frc consts  --      1.4214                 1.4349                 1.4419
 IR Inten    --      2.2376                 0.1163                 3.5484

                     55                     56                     57
                      A                      A                      A
 Frequencies --   1530.0541              1530.7331              1537.9731
 Red. masses --      1.0455                 1.0467                 1.0574
 Frc consts  --      1.4421                 1.4450                 1.4736
 IR Inten    --     11.9480                16.5443                 6.5432

                     58                     59                     60
                      A                      A                      A
 Frequencies --   1552.0196              1726.0055              3014.6016
 Red. masses --      1.0546                 7.2162                 1.0365
 Frc consts  --      1.4967                12.6660                 5.5499
 IR Inten    --      6.0910               330.2782                78.6279

                     61                     62                     63
                      A                      A                      A
 Frequencies --   3017.7940              3052.9786              3057.2001
 Red. masses --      1.0522                 1.0363                 1.0387
 Frc consts  --      5.6456                 5.6909                 5.7200
 IR Inten    --     59.3424                 9.5378                 6.7369

                     64                     65                     66
                      A                      A                      A
 Frequencies --   3070.1845              3074.7137              3085.1968
 Red. masses --      1.1021                 1.0837                 1.0615
 Frc consts  --      6.1204                 6.0365                 5.9532
 IR Inten    --     33.7984                20.0289                20.2706

                     67                     68                     69
                      A                      A                      A
 Frequencies --   3099.4662              3114.6434              3116.9254
 Red. masses --      1.0999                 1.1018                 1.0872
 Frc consts  --      6.2254                 6.2973                 6.2234
 IR Inten    --     46.2270                 2.3784                29.4036

                     70                     71                     72
                      A                      A                      A
 Frequencies --   3124.4549              3136.7242              3147.7572
 Red. masses --      1.0999                 1.1030                 1.1016
 Frc consts  --      6.3261                 6.3943                 6.4312
 IR Inten    --     89.7864                20.7914                18.3102

                     73                     74                     75
                      A                      A                      A
 Frequencies --   3169.3190              3183.6620              3526.4811
 Red. masses --      1.1068                 1.0991                 1.0737
 Frc consts  --      6.5501                 6.5638                 7.8673
 IR Inten    --      2.1501                 0.6044                 6.0601

 - Thermochemistry -
 -------------------
 Temperature   298.150 Kelvin.  Pressure   1.00000 Atm.
 Atom     1 has atomic number  6 and mass  12.00000

 Molecular mass:   176.09834 amu.
 Principal axes and moments of inertia in atomic units:
                           1         2         3
     Eigenvalues --  1061.109543624.400244180.72116
           X            0.99999   0.00326   0.00171
           Y           -0.00329   0.99982   0.01892
           Z           -0.00165  -0.01893   0.99982
 This molecule is an asymmetric top.
 Rotational symmetry number  1.
 Warning -- assumption of classical behavior for rotation
           may cause significant error
 Rotational temperatures (Kelvin)      0.08163     0.02390     0.02072
 Rotational constants (GHZ):           1.70081     0.49794     0.43168
 Zero-point vibrational energy     617644.7 (Joules/Mol)
                                  147.62061 (Kcal/Mol)
 Warning -- explicit consideration of  21 degrees of freedom as
           vibrations may cause significant error
 Vibrational temperatures:     46.95    66.73    80.99   146.80   153.54
          (Kelvin)            204.86   226.63   252.53   313.34   326.04
                              343.28   408.42   439.17   465.45   475.15
                              539.41   652.20   658.49   739.10   802.03
                              848.24   944.92   965.30  1128.64  1143.51
                             1311.05  1346.17  1366.60  1406.45  1476.99
                             1490.06  1548.60  1630.45  1664.71  1666.00
                             1681.52  1705.31  1735.53  1740.85  1855.15
                             1909.08  1960.34  1989.84  2035.08  2056.74
                             2081.11  2105.65  2125.52  2147.14  2157.11
                             2175.40  2184.03  2188.34  2198.21  2201.41
                             2202.38  2212.80  2233.01  2483.34  4337.34
                             4341.93  4392.56  4398.63  4417.31  4423.83
                             4438.91  4459.44  4481.28  4484.56  4495.39
                             4513.05  4528.92  4559.94  4580.58  5073.82

 Zero-point correction=                           0.235248 (Hartree/Particle)
 Thermal correction to Energy=                    0.249503
 Thermal correction to Enthalpy=                  0.250447
 Thermal correction to Gibbs Free Energy=         0.193398
 Sum of electronic and zero-point Energies=           -859.076499
 Sum of electronic and thermal Energies=              -859.062244
 Sum of electronic and thermal Enthalpies=            -859.061300
 Sum of electronic and thermal Free Energies=         -859.118349

                     E (Thermal)             CV                S
                      KCal/Mol        Cal/Mol-Kelvin    Cal/Mol-Kelvin
 Total                  156.565             50.260            120.070
 Electronic               0.000              0.000              0.000
 Translational            0.889              2.981             41.405
 Rotational               0.889              2.981             31.153
 Vibrational            154.788             44.298             47.512
 Vibration     1          0.594              1.983              5.663
 Vibration     2          0.595              1.979              4.966
 Vibration     3          0.596              1.975              4.583
 Vibration     4          0.604              1.948              3.415
 Vibration     5          0.606              1.944              3.328
 Vibration     6          0.616              1.911              2.772
 Vibration     7          0.621              1.894              2.579
 Vibration     8          0.627              1.873              2.376
 Vibration     9          0.646              1.814              1.977
 Vibration    10          0.650              1.800              1.906
 Vibration    11          0.657              1.781              1.813
 Vibration    12          0.682              1.704              1.510
 Vibration    13          0.696              1.664              1.388
 Vibration    14          0.708              1.628              1.292
 Vibration    15          0.713              1.615              1.259
 Vibration    16          0.746              1.524              1.060
 Vibration    17          0.812              1.354              0.786
 Vibration    18          0.816              1.344              0.773
 Vibration    19          0.869              1.220              0.625
 Vibration    20          0.913              1.123              0.529
 Vibration    21          0.947              1.054              0.468

 Optimization completed.
    -- Stationary point found.
 Normal termination of Gaussian 16 at Tue Dec  8 19:44:19 2020.

 ----------------------------------------------------------------------
 # B3LYP/6-311++G(d,p) empiricaldispersion=gd3bj scf=xqc pop=npa geom=c
 heck
 ----------------------------------------------------------------------

 ---------------------------------------
 CID_131224542_JID_1252_Energie_neutraal
 ---------------------------------------
 Structure from the checkpoint file:  "JID_1252.chk"
 Charge =  0 Multiplicity = 1

 SCF Done:  E(RB3LYP) =  -859.476007221     A.U. after   14 cycles
 Normal termination of Gaussian 16 at Tue Dec  8 19:47:30 2020.

 ----------------------------------------------------------------------
 # B3LYP/6-311++G(d,p) empiricaldispersion=gd3bj scf=xqc pop=npa geom=c
 heck
 ----------------------------------------------------------------------

 -------------------------------------
 CID_131224542_JID_1252_Energie_kation
 -------------------------------------
 Structure from the checkpoint file:  "JID_1252.chk"
 Charge =  1 Multiplicity = 2

 SCF Done:  E(UB3LYP) =  -859.174969071     A.U. after   27 cycles
 Normal termination of Gaussian 16 at Tue Dec  8 19:55:35 2020.
 Gaussian 16:  ES64L-G16RevA.03 25-Dec-2016

 ----------------------------------------------------------------------
 # B3LYP/6-311++G(d,p) empiricaldispersion=gd3bj scf=xqc pop=npa geom=c
 heck
 ----------------------------------------------------------------------

 ------------------------------------
 CID_131224542_JID_1252_Energie_anion
 ------------------------------------
 Structure from the checkpoint file:  "JID_1252.chk"
 Charge = -1 Multiplicity = 2

                         Standard orientation:
 ---------------------------------------------------------------------
 Center     Atomic      Atomic             Coordinates (Angstroms)
 Number     Number       Type             X           Y           Z
 ---------------------------------------------------------------------
      1          6           0       -3.799511   -0.257425   -0.897421
      2          6           0       -2.882683    0.149171    0.257051
      3          6           0       -2.624392   -0.994745    1.236405
      4          8           0       -1.674519    0.766394   -0.232233
      5          6           0       -0.740912   -0.049760   -0.875232
      6         16           0        0.544966   -0.825898    0.230601
      7          6           0        2.004602    0.207292   -0.092265
      8          7           0        3.195012   -0.239120   -0.151620
      9          6           0        3.489510   -1.656293   -0.118541
     10          7           0        1.757843    1.559774   -0.325816
     11          6           0        1.009018    2.355371    0.653831
     12          1           0       -3.394874   -1.104882   -1.462298
     13          1           0       -3.940923    0.581872   -1.585038
     14          1           0       -4.778774   -0.560348   -0.510876
     15          1           0       -3.357522    0.971809    0.801856
     16          1           0       -2.180937   -1.865149    0.739656
     17          1           0       -1.951736   -0.678987    2.037971
     18          1           0       -3.572930   -1.317456    1.679992
     19          1           0       -1.211638   -0.884246   -1.402843
     20          1           0       -0.189961    0.574810   -1.578377
     21          1           0        3.732569   -1.969249    0.906176
     22          1           0        2.665010   -2.288887   -0.476788
     23          1           0        4.376187   -1.848030   -0.732761
     24          1           0        2.648798    1.987034   -0.566948
     25          1           0        1.495141    2.377983    1.640582
     26          1           0        0.935958    3.377952    0.273257
     27          1           0       -0.001449    1.962746    0.763771
 ---------------------------------------------------------------------

 SCF Done:  E(UB3LYP) =  -859.460926416     A.U. after   31 cycles

 The electronic state is 2-A.
 Alpha  occ. eigenvalues --  -88.74933 -19.03519 -14.22867 -14.19905 -10.16531
 Alpha  occ. eigenvalues --  -10.15049 -10.12519 -10.09633 -10.09441 -10.05875
 Alpha  occ. eigenvalues --  -10.05720  -7.83619  -5.79984  -5.79591  -5.79054
 Alpha  occ. eigenvalues --   -0.94825  -0.86563  -0.78738  -0.69472  -0.66361
 Alpha  occ. eigenvalues --   -0.62255  -0.59117  -0.57115  -0.56396  -0.48215
 Alpha  occ. eigenvalues --   -0.45381  -0.41320  -0.39913  -0.38316  -0.37711
 Alpha  occ. eigenvalues --   -0.35337  -0.34792  -0.33190  -0.32392  -0.31955
 Alpha  occ. eigenvalues --   -0.31236  -0.30681  -0.29223  -0.28244  -0.26875
 Alpha  occ. eigenvalues --   -0.25933  -0.24581  -0.23400  -0.21418  -0.16965
 Alpha  occ. eigenvalues --   -0.15798  -0.15096  -0.13844   0.04543
 Alpha virt. eigenvalues --    0.06453   0.07086   0.07790   0.08726   0.08984
 Alpha virt. eigenvalues --    0.09254   0.09921   0.10309   0.10682   0.11157
 Alpha virt. eigenvalues --    0.11445   0.11990   0.12558   0.13285   0.13374

  Beta  occ. eigenvalues --  -88.74925 -19.03518 -14.22855 -14.19901 -10.16524
  Beta  occ. eigenvalues --  -10.15023 -10.12503 -10.09625 -10.09414 -10.05835
  Beta  occ. eigenvalues --  -10.05668  -7.83610  -5.79967  -5.79584  -5.79048
  Beta  occ. eigenvalues --   -0.94816  -0.86541  -0.78723  -0.69431  -0.66319
  Beta  occ. eigenvalues --   -0.62225  -0.59032  -0.57063  -0.56344  -0.48143
  Beta  occ. eigenvalues --   -0.45333  -0.41281  -0.39884  -0.38281  -0.37659
  Beta  occ. eigenvalues --   -0.35302  -0.34755  -0.33166  -0.32346  -0.31920
  Beta  occ. eigenvalues --   -0.31212  -0.30624  -0.29180  -0.28198  -0.26839
  Beta  occ. eigenvalues --   -0.25885  -0.24540  -0.23372  -0.21379  -0.16941
  Beta  occ. eigenvalues --   -0.15778  -0.15075  -0.13823
  Beta virt. eigenvalues --    0.06573   0.07401   0.07613   0.08347   0.09301
  Beta virt. eigenvalues --    0.09318   0.09784   0.10208   0.10691   0.10844
  Beta virt. eigenvalues --    0.11624   0.11855   0.12540   0.12813   0.13461

 Mulliken charges and spin densities:
               1          2
     1  C    1.601725  -2.080446
     2  C   -1.849913   1.844799
     3  C    1.463829  -1.969444
     4  O    0.012942   0.000920
     5  C    0.158758  -0.823041
     6  S    0.134597   0.091603
     7  C   -0.069616  -0.205848
     8  N   -0.173695   0.066905
     9  C   -0.097934  -0.327617
    10  N   -0.176220   0.184206
    11  C    0.261568  -0.724798
    12  H   -0.373014   0.501125
    13  H   -0.196987   0.350928
    14  H   -0.536339   0.687295
    15  H   -0.543325   0.735681
    16  H   -0.210401   0.363864
    17  H   -0.025163   0.145251
    18  H   -0.410459   0.578297
    19  H   -0.092719   0.301207
    20  H    0.210298   0.037040
    21  H    0.060039   0.091383
    22  H   -0.009489   0.140837
    23  H    0.019177   0.104860
    24  H   -0.002331   0.264954
    25  H   -0.077030   0.221986
    26  H   -0.392599   0.523143
    27  H    0.314302  -0.105092
 Sum of Mulliken charges =  -1.00000   1.00000

 Dipole moment (field-independent basis, Debye):
    X=              6.4296    Y=             -0.5787    Z=             -0.0496  Tot=              6.4558
 Quadrupole moment (field-independent basis, Debye-Ang):
   XX=           -164.7437   YY=           -118.2670   ZZ=           -107.1135
   XY=             -8.6649   XZ=              2.3725   YZ=              0.2756

 Summary of Natural Population Analysis:

                                       Natural Population
                Natural  -----------------------------------------------
    Atom  No    Charge         Core      Valence    Rydberg      Total
 -----------------------------------------------------------------------
      C    1   -0.29974      0.99964     2.29428    0.00582     3.29974
      C    2    0.06606      0.99956     1.92024    0.01414     2.93394
      C    3   -0.30411      0.99964     2.29813    0.00633     3.30411
      O    4   -0.30168      0.99987     3.28968    0.01212     4.30168
      C    5   -0.07463      0.99957     2.05862    0.01645     3.07463
      S    6    0.06837      4.99956     2.91615    0.01591     7.93163
      C    7    0.16809      0.99953     1.81385    0.01852     2.83191
      N    8   -0.27790      0.99960     2.76460    0.01370     3.77790
      C    9   -0.19181      0.99963     2.18486    0.00732     3.19181
      N   10   -0.33218      0.99967     2.81984    0.01267     3.83218
      C   11   -0.18478      0.99963     2.17638    0.00877     3.18478
      H   12    0.09672      0.00000     0.40155    0.00173     0.40328
      H   13    0.10369      0.00000     0.39489    0.00142     0.39631
      H   14    0.10747      0.00000     0.38992    0.00260     0.39253
      H   15    0.09162      0.00000     0.40657    0.00181     0.40838
      H   16    0.09842      0.00000     0.40027    0.00131     0.40158
      H   17    0.10572      0.00000     0.39307    0.00121     0.39428
      H   18    0.10784      0.00000     0.39036    0.00180     0.39216
      H   19    0.09356      0.00000     0.40474    0.00169     0.40644
      H   20    0.10593      0.00000     0.39182    0.00225     0.39407
      H   21    0.09183      0.00000     0.40671    0.00146     0.40817
      H   22    0.09330      0.00000     0.40481    0.00190     0.40670
      H   23    0.09039      0.00000     0.40805    0.00156     0.40961
      H   24    0.18698      0.00000     0.30859    0.00444     0.31302
      H   25    0.08315      0.00000     0.41553    0.00132     0.41685
      H   26    0.09654      0.00000     0.40213    0.00133     0.40346
      H   27    0.11114      0.00000     0.38668    0.00218     0.38886
 =======================================================================
   * Total *   -0.00000     14.99592    32.84233    0.16176    48.00000

 Normal termination of Gaussian 16 at Tue Dec  8 20:04:06 2020.
