 Gaussian 16, Revision A.03,

 -----------------------------------------------------------
 # opt freq B3LYP/6-31G(d) empiricaldispersion=gd3bj scf=xqc
 -----------------------------------------------------------

 ------------------------------
 CID_13205489_JID_1385_neutraal
 ------------------------------
 Symbolic Z-matrix:
 Charge =  0 Multiplicity = 1

 SCF Done:  E(RB3LYP) =  -536.535207416     A.U. after   15 cycles
 SCF Done:  E(RB3LYP) =  -536.537966207     A.U. after   13 cycles
 SCF Done:  E(RB3LYP) =  -536.538331968     A.U. after   12 cycles
 SCF Done:  E(RB3LYP) =  -536.538409149     A.U. after   12 cycles
 SCF Done:  E(RB3LYP) =  -536.538366542     A.U. after   12 cycles
 SCF Done:  E(RB3LYP) =  -536.538484657     A.U. after   11 cycles
 SCF Done:  E(RB3LYP) =  -536.538530798     A.U. after   11 cycles
 SCF Done:  E(RB3LYP) =  -536.538569358     A.U. after   12 cycles
 SCF Done:  E(RB3LYP) =  -536.538572311     A.U. after   10 cycles
 SCF Done:  E(RB3LYP) =  -536.538574807     A.U. after   10 cycles
 SCF Done:  E(RB3LYP) =  -536.538575259     A.U. after    9 cycles
 SCF Done:  E(RB3LYP) =  -536.538575353     A.U. after    8 cycles
 Optimization completed.
    -- Stationary point found.

 1\1\GINC-NODE115\FOpt\RB3LYP\6-31G(d)\C8H10O3\VSC10255\08-Dec-2020\0\\
 # opt freq B3LYP/6-31G(d) empiricaldispersion=gd3bj scf=xqc\\CID_13205
 489_JID_1385_neutraal\\0,1\C,0.8667927119,-0.0022167121,-0.1378091863\
 C,0.6977733404,1.3342238493,-0.8637754413\C,1.5611323469,1.4579616649,
 -2.1297825456\C,1.2187148034,0.4158983894,-3.1499769263\C,1.9000982546
 ,-0.6290173622,-3.7180573862\C,1.0010442324,-1.2441762536,-4.634039400
 1\C,-0.1736136946,-0.533360801,-4.5701762077\O,-0.0425040641,0.4818848
 856,-3.6557452543\C,-1.4316958808,-0.6886972274,-5.2772478218\O,-2.410

 Normal termination of Gaussian 16 at Tue Dec  8 19:51:51 2020.

 --------------------------------------------------------------------
 #N Geom=AllCheck Guess=TCheck SCRF=Check GenChk RB3LYP/6-31G(d) Freq
 --------------------------------------------------------------------

 Structure from the checkpoint file:  "JID_1385.chk"
 ------------------------------
 CID_13205489_JID_1385_neutraal
 ------------------------------
 Charge =  0 Multiplicity = 1

 SCF Done:  E(RB3LYP) =  -536.538575353     A.U. after    1 cycles

  Exact polarizability: 119.434  -6.320  96.891   7.479  -3.168  60.462
 Approx polarizability: 165.724 -21.178 173.967  18.916  -8.763  86.075

                      1                      2                      3
                      A                      A                      A
 Frequencies --     28.8110                77.3153               113.8665
 Red. masses --      4.4696                 3.2811                 5.1748
 Frc consts  --      0.0022                 0.0116                 0.0395
 IR Inten    --      2.6588                 1.6430                 5.3312

                      4                      5                      6
                      A                      A                      A
 Frequencies --    125.2238               147.6211               218.2489
 Red. masses --      3.0559                 3.2383                 2.0470
 Frc consts  --      0.0282                 0.0416                 0.0574
 IR Inten    --      0.2753                 1.4598                 2.9498

                      7                      8                      9
                      A                      A                      A
 Frequencies --    229.6534               254.1370               294.0986
 Red. masses --      2.3413                 2.2019                 2.5186
 Frc consts  --      0.0728                 0.0838                 0.1284
 IR Inten    --      4.3978                 3.4273                 2.9379

                     10                     11                     12
                      A                      A                      A
 Frequencies --    344.8851               389.5881               454.6801
 Red. masses --      1.2485                 4.3475                 3.4479
 Frc consts  --      0.0875                 0.3888                 0.4200
 IR Inten    --    128.0683                25.1533                11.6693

                     13                     14                     15
                      A                      A                      A
 Frequencies --    494.2466               528.5631               634.8125
 Red. masses --      5.4568                 4.4544                 4.3509
 Frc consts  --      0.7854                 0.7332                 1.0331
 IR Inten    --      6.0422                 1.4406                 0.1589

                     16                     17                     18
                      A                      A                      A
 Frequencies --    659.9717               731.8032               785.0246
 Red. masses --      2.6870                 5.1946                 3.1351
 Frc consts  --      0.6896                 1.6391                 1.1383
 IR Inten    --      8.1885                 2.2144                40.5665

                     19                     20                     21
                      A                      A                      A
 Frequencies --    812.8743               841.0940               878.9966
 Red. masses --      1.2688                 1.4605                 1.3494
 Frc consts  --      0.4940                 0.6088                 0.6143
 IR Inten    --     39.7947                28.4029                 0.6053

                     22                     23                     24
                      A                      A                      A
 Frequencies --    904.5123               984.1503               998.3092
 Red. masses --      2.0388                 5.5620                 3.7551
 Frc consts  --      0.9828                 3.1740                 2.2049
 IR Inten    --     23.5936                16.2227                21.2421

                     25                     26                     27
                      A                      A                      A
 Frequencies --   1006.0135              1042.3787              1053.7361
 Red. masses --      1.7090                 3.5218                 1.3322
 Frc consts  --      1.0190                 2.2546                 0.8715
 IR Inten    --      0.0508                26.4045                49.6459

                     28                     29                     30
                      A                      A                      A
 Frequencies --   1060.6719              1114.1847              1124.1613
 Red. masses --      2.3357                 1.9150                 1.9656
 Frc consts  --      1.5482                 1.4006                 1.4635
 IR Inten    --     69.9510                20.8375                 0.9287

                     31                     32                     33
                      A                      A                      A
 Frequencies --   1215.4578              1247.9345              1276.0503
 Red. masses --      1.3533                 5.0235                 1.3592
 Frc consts  --      1.1780                 4.6093                 1.3040
 IR Inten    --     23.2799                35.3562                14.2113

                     34                     35                     36
                      A                      A                      A
 Frequencies --   1297.1184              1314.5019              1352.7324
 Red. masses --      1.4350                 4.6915                 1.5009
 Frc consts  --      1.4225                 4.7762                 1.6182
 IR Inten    --      8.5975                23.0718                22.8147

                     37                     38                     39
                      A                      A                      A
 Frequencies --   1391.1414              1405.6610              1436.4708
 Red. masses --      1.4876                 1.5710                 1.2920
 Frc consts  --      1.6962                 1.8289                 1.5707
 IR Inten    --      4.0526                 7.8442                56.1830

                     40                     41                     42
                      A                      A                      A
 Frequencies --   1445.0212              1445.6067              1517.5246
 Red. masses --      1.4813                 1.5266                 1.0770
 Frc consts  --      1.8224                 1.8797                 1.4613
 IR Inten    --     15.1461                33.0752                 3.0038

                     43                     44                     45
                      A                      A                      A
 Frequencies --   1530.4067              1535.1598              1572.8781
 Red. masses --      1.0395                 1.0690                 6.0506
 Frc consts  --      1.4345                 1.4844                 8.8194
 IR Inten    --      3.5900                 4.2933                65.6053

                     46                     47                     48
                      A                      A                      A
 Frequencies --   1634.9473              1786.2839              2925.2260
 Red. masses --      5.9356                 9.4154                 1.0839
 Frc consts  --      9.3481                17.7007                 5.4645
 IR Inten    --      1.3892               308.9882               132.0814

                     49                     50                     51
                      A                      A                      A
 Frequencies --   3048.3044              3051.2215              3085.0514
 Red. masses --      1.0566                 1.0436                 1.0878
 Frc consts  --      5.7844                 5.7245                 6.0998
 IR Inten    --      4.6542                30.5506                13.7000

                     52                     53                     54
                      A                      A                      A
 Frequencies --   3097.6909              3118.4336              3128.7693
 Red. masses --      1.0980                 1.1018                 1.1022
 Frc consts  --      6.2078                 6.3131                 6.3573
 IR Inten    --      8.0654                47.9177                40.9823

                     55                     56                     57
                      A                      A                      A
 Frequencies --   3266.6430              3280.6556              3726.1242
 Red. masses --      1.0934                 1.1009                 1.0660
 Frc consts  --      6.8743                 6.9810                 8.7201
 IR Inten    --      2.4447                 0.4947                16.6175

 - Thermochemistry -
 -------------------
 Temperature   298.150 Kelvin.  Pressure   1.00000 Atm.
 Atom     1 has atomic number  6 and mass  12.00000

 Molecular mass:   154.06299 amu.
 Principal axes and moments of inertia in atomic units:
                           1         2         3
     Eigenvalues --  1042.669622638.455192776.76022
           X            0.99948   0.01904  -0.02589
           Y           -0.01883   0.99979   0.00847
           Z            0.02604  -0.00797   0.99963
 This molecule is an asymmetric top.
 Rotational symmetry number  1.
 Warning -- assumption of classical behavior for rotation
           may cause significant error
 Rotational temperatures (Kelvin)      0.08307     0.03283     0.03119
 Rotational constants (GHZ):           1.73088     0.68401     0.64994
 Zero-point vibrational energy     445409.5 (Joules/Mol)
                                  106.45542 (Kcal/Mol)
 Warning -- explicit consideration of  14 degrees of freedom as
           vibrations may cause significant error
 Vibrational temperatures:     41.45   111.24   163.83   180.17   212.39
          (Kelvin)            314.01   330.42   365.65   423.14   496.21
                              560.53   654.18   711.11   760.48   913.35
                              949.55  1052.90  1129.48  1169.54  1210.15
                             1264.68  1301.39  1415.97  1436.34  1447.43
                             1499.75  1516.09  1526.07  1603.06  1617.42
                             1748.77  1795.50  1835.95  1866.26  1891.28
                             1946.28  2001.54  2022.43  2066.76  2079.06
                             2079.91  2183.38  2201.91  2208.75  2263.02
                             2352.32  2570.06  4208.75  4385.83  4390.03
                             4438.70  4456.89  4486.73  4501.60  4699.97
                             4720.13  5361.06

 Zero-point correction=                           0.169648 (Hartree/Particle)
 Thermal correction to Energy=                    0.180603
 Thermal correction to Enthalpy=                  0.181547
 Thermal correction to Gibbs Free Energy=         0.131993
 Sum of electronic and zero-point Energies=           -536.368928
 Sum of electronic and thermal Energies=              -536.357973
 Sum of electronic and thermal Enthalpies=            -536.357028
 Sum of electronic and thermal Free Energies=         -536.406582

                     E (Thermal)             CV                S
                      KCal/Mol        Cal/Mol-Kelvin    Cal/Mol-Kelvin
 Total                  113.330             39.571            104.294
 Electronic               0.000              0.000              0.000
 Translational            0.889              2.981             41.006
 Rotational               0.889              2.981             30.414
 Vibrational            111.552             33.610             32.874
 Vibration     1          0.593              1.984              5.910
 Vibration     2          0.599              1.964              3.958
 Vibration     3          0.607              1.938              3.202
 Vibration     4          0.610              1.928              3.018
 Vibration     5          0.617              1.905              2.703
 Vibration     6          0.646              1.813              1.974
 Vibration     7          0.652              1.796              1.882
 Vibration     8          0.665              1.756              1.702
 Vibration     9          0.689              1.685              1.450
 Vibration    10          0.723              1.586              1.189
 Vibration    11          0.758              1.492              1.002
 Vibration    12          0.813              1.351              0.782
 Vibration    13          0.850              1.263              0.673
 Vibration    14          0.884              1.187              0.590

 Optimization completed.
    -- Stationary point found.

 1\1\GINC-NODE115\Freq\RB3LYP\6-31G(d)\C8H10O3\VSC10255\08-Dec-2020\0\\
 #N Geom=AllCheck Guess=TCheck SCRF=Check GenChk RB3LYP/6-31G(d) Freq\\
 CID_13205489_JID_1385_neutraal\\0,1\C,0.8667927119,-0.0022167121,-0.13
 78091863\C,0.6977733404,1.3342238493,-0.8637754413\C,1.5611323469,1.45
 79616649,-2.1297825456\C,1.2187148034,0.4158983894,-3.1499769263\C,1.9
 000982546,-0.6290173622,-3.7180573862\C,1.0010442324,-1.2441762536,-4.
 6340394001\C,-0.1736136946,-0.533360801,-4.5701762077\O,-0.0425040641,
 0.4818848856,-3.6557452543\C,-1.4316958808,-0.6886972274,-5.2772478218

 Normal termination of Gaussian 16 at Tue Dec  8 19:55:55 2020.

 ----------------------------------------------------------------------
 # B3LYP/6-311++G(d,p) empiricaldispersion=gd3bj scf=xqc pop=npa geom=c
 heck
 ----------------------------------------------------------------------

 --------------------------------------
 CID_13205489_JID_1385_Energie_neutraal
 --------------------------------------
 Structure from the checkpoint file:  "JID_1385.chk"
 Charge =  0 Multiplicity = 1

 SCF Done:  E(RB3LYP) =  -536.702881624     A.U. after   14 cycles
 Normal termination of Gaussian 16 at Tue Dec  8 19:57:35 2020.

 ----------------------------------------------------------------------
 # B3LYP/6-311++G(d,p) empiricaldispersion=gd3bj scf=xqc pop=npa geom=c
 heck
 ----------------------------------------------------------------------

 ------------------------------------
 CID_13205489_JID_1385_Energie_kation
 ------------------------------------
 Structure from the checkpoint file:  "JID_1385.chk"
 Charge =  1 Multiplicity = 2

 SCF Done:  E(UB3LYP) =  -536.371031189     A.U. after   30 cycles
 Normal termination of Gaussian 16 at Tue Dec  8 20:03:14 2020.
 Gaussian 16:  ES64L-G16RevA.03 25-Dec-2016

 -----------------------------------
 CID_13205489_JID_1385_Energie_anion
 -----------------------------------
 Structure from the checkpoint file:  "JID_1385.chk"
 Charge = -1 Multiplicity = 2

                         Standard orientation:
 ---------------------------------------------------------------------
 Center     Atomic      Atomic             Coordinates (Angstroms)
 Number     Number       Type             X           Y           Z
 ---------------------------------------------------------------------
      1          6           0       -2.486876    0.173929    1.808504
      2          6           0       -2.325294   -0.750358    0.599682
      3          6           0       -1.774865   -0.038964   -0.647082
      4          6           0       -0.411482    0.535659   -0.412692
      5          6           0        0.104668    1.805455   -0.405270
      6          6           0        1.491712    1.673513   -0.114684
      7          6           0        1.736626    0.329257    0.034149
      8          8           0        0.568217   -0.368959   -0.143091
      9          6           0        2.957471   -0.399642    0.325859
     10          8           0        3.044816   -1.610408    0.427461
     11          8           0       -1.770865   -0.903055   -1.782507
     12          1           0       -1.524495    0.590107    2.125352
     13          1           0       -2.913699   -0.368394    2.658043
     14          1           0       -3.154223    1.013575    1.578995
     15          1           0       -1.651327   -1.580114    0.850311
     16          1           0       -3.288121   -1.190665    0.317634
     17          1           0       -2.439925    0.788780   -0.914916
     18          1           0       -0.446295    2.716379   -0.590621
     19          1           0        2.224469    2.464265   -0.028837
     20          1           0        3.838804    0.265207    0.453936
     21          1           0       -1.134288   -1.612849   -1.595598
 ---------------------------------------------------------------------

 SCF Done:  E(UB3LYP) =  -536.714871238     A.U. after   28 cycles

 The electronic state is 2-A.
 Alpha  occ. eigenvalues --  -19.02131 -19.00222 -18.90812 -10.10604 -10.06519
 Alpha  occ. eigenvalues --  -10.05464 -10.05295 -10.05291 -10.04876 -10.02675
 Alpha  occ. eigenvalues --  -10.01147  -0.95648  -0.90427  -0.84604  -0.67520
 Alpha  occ. eigenvalues --   -0.65100  -0.61373  -0.55669  -0.49733  -0.45970
 Alpha  occ. eigenvalues --   -0.45343  -0.40222  -0.38713  -0.35174  -0.33446
 Alpha  occ. eigenvalues --   -0.31546  -0.30234  -0.29164  -0.27778  -0.27480
 Alpha  occ. eigenvalues --   -0.26797  -0.24479  -0.24182  -0.23684  -0.21784
 Alpha  occ. eigenvalues --   -0.21589  -0.20806  -0.15975  -0.14047  -0.08551
 Alpha  occ. eigenvalues --   -0.07492   0.05208
 Alpha virt. eigenvalues --    0.07640   0.09368   0.10120   0.10385   0.11839
 Alpha virt. eigenvalues --    0.12259   0.13038   0.13722   0.14258   0.14739
 Alpha virt. eigenvalues --    0.16548   0.17566   0.17690   0.18252   0.19134

  Beta  occ. eigenvalues --  -19.01852 -19.00168 -18.90164 -10.10621 -10.06195
  Beta  occ. eigenvalues --  -10.05445 -10.05271 -10.05248 -10.04544 -10.02793
  Beta  occ. eigenvalues --  -10.00876  -0.95190  -0.90300  -0.83436  -0.67389
  Beta  occ. eigenvalues --   -0.64771  -0.60946  -0.55436  -0.49421  -0.45568
  Beta  occ. eigenvalues --   -0.44809  -0.39980  -0.38412  -0.35050  -0.33141
  Beta  occ. eigenvalues --   -0.31353  -0.29590  -0.28670  -0.27487  -0.27269
  Beta  occ. eigenvalues --   -0.26588  -0.24345  -0.23758  -0.23548  -0.21426
  Beta  occ. eigenvalues --   -0.21332  -0.17899  -0.15853  -0.12914  -0.06917
  Beta  occ. eigenvalues --   -0.06595
  Beta virt. eigenvalues --    0.07686   0.09350   0.10042   0.10368   0.11763
  Beta virt. eigenvalues --    0.11831   0.12698   0.12983   0.13686   0.14171
  Beta virt. eigenvalues --    0.14660   0.17165   0.17714   0.18050   0.18196

 Mulliken charges and spin densities:
               1          2
     1  C   -0.364443  -0.243090
     2  C   -0.054667   0.016656
     3  C   -0.604011   0.043051
     4  C    0.291861   0.201971
     5  C   -0.297666  -0.083187
     6  C   -0.312786   0.197816
     7  C    0.578755   0.054325
     8  O   -0.050609   0.051815
     9  C   -0.608480   0.265140
    10  O   -0.412494   0.211117
    11  O   -0.214594   0.000075
    12  H    0.164408   0.000099
    13  H   -0.066559   0.184078
    14  H    0.067595   0.046994
    15  H    0.176270  -0.024718
    16  H    0.042903   0.085753
    17  H    0.181107   0.008007
    18  H    0.094707   0.020466
    19  H    0.115054  -0.011882
    20  H    0.002871  -0.023935
    21  H    0.270778  -0.000549
 Sum of Mulliken charges =  -1.00000   1.00000

 Dipole moment (field-independent basis, Debye):
    X=             -5.2426    Y=              3.1064    Z=              0.0432  Tot=              6.0939
 Quadrupole moment (field-independent basis, Debye-Ang):
   XX=           -106.0082   YY=            -79.7365   ZZ=            -81.6396
   XY=              9.0089   XZ=             -3.1668   YZ=              1.6891

 Summary of Natural Population Analysis:

                                       Natural Population
                Natural  -----------------------------------------------
    Atom  No    Charge         Core      Valence    Rydberg      Total
 -----------------------------------------------------------------------
      C    1   -0.28999      0.99967     2.28422    0.00610     3.28999
      C    2   -0.19927      0.99963     2.18895    0.01069     3.19927
      C    3    0.04567      0.99950     1.94174    0.01309     2.95433
      C    4    0.19846      0.99947     1.78733    0.01474     2.80154
      C    5   -0.18646      0.99951     2.17908    0.00787     3.18646
      C    6   -0.09239      0.99953     2.08378    0.00908     3.09239
      C    7    0.10691      0.99945     1.88025    0.01339     2.89309
      O    8   -0.21841      0.99985     3.20828    0.01028     4.21841
      C    9    0.21643      0.99968     1.76320    0.02070     2.78357
      O   10   -0.23572      0.99988     3.22723    0.00861     4.23572
      O   11   -0.36842      0.99990     3.36213    0.00639     4.36842
      H   12    0.10648      0.00000     0.39252    0.00100     0.39352
      H   13    0.09497      0.00000     0.40397    0.00106     0.40503
      H   14    0.09186      0.00000     0.40690    0.00123     0.40814
      H   15    0.09968      0.00000     0.39891    0.00141     0.40032
      H   16    0.09346      0.00000     0.40507    0.00147     0.40654
      H   17    0.08610      0.00000     0.41207    0.00183     0.41390
      H   18    0.09785      0.00000     0.40118    0.00098     0.40215
      H   19    0.09521      0.00000     0.40385    0.00094     0.40479
      H   20    0.02777      0.00000     0.46895    0.00328     0.47223
      H   21    0.22981      0.00000     0.26781    0.00238     0.27019
 =======================================================================
   * Total *    0.00000     10.99605    29.86741    0.13654    41.00000

 Normal termination of Gaussian 16 at Tue Dec  8 20:07:52 2020.
