 Gaussian 16, Revision A.03,

 -----------------------------------------------------------
 # opt freq B3LYP/6-31G(d) empiricaldispersion=gd3bj scf=xqc
 -----------------------------------------------------------

 -------------------------------
 CID_104536692_JID_4641_neutraal
 -------------------------------
 Symbolic Z-matrix:
 Charge =  0 Multiplicity = 1

 SCF Done:  E(RB3LYP) =  -970.007294090     A.U. after   15 cycles
 SCF Done:  E(RB3LYP) =  -970.012772263     A.U. after   13 cycles
 SCF Done:  E(RB3LYP) =  -970.014094782     A.U. after   13 cycles
 SCF Done:  E(RB3LYP) =  -970.014596146     A.U. after   13 cycles
 SCF Done:  E(RB3LYP) =  -970.014682295     A.U. after   12 cycles
 SCF Done:  E(RB3LYP) =  -970.014762869     A.U. after   11 cycles
 SCF Done:  E(RB3LYP) =  -970.014782499     A.U. after   11 cycles
 SCF Done:  E(RB3LYP) =  -970.014788811     A.U. after   11 cycles
 SCF Done:  E(RB3LYP) =  -970.014794746     A.U. after   10 cycles
 SCF Done:  E(RB3LYP) =  -970.014796843     A.U. after   10 cycles
 SCF Done:  E(RB3LYP) =  -970.016486751     A.U. after   11 cycles
 SCF Done:  E(RB3LYP) =  -970.016490711     A.U. after   10 cycles
 SCF Done:  E(RB3LYP) =  -970.016492134     A.U. after    9 cycles
 SCF Done:  E(RB3LYP) =  -970.016492515     A.U. after    8 cycles
 SCF Done:  E(RB3LYP) =  -970.016492582     A.U. after    7 cycles
 Optimization completed.
    -- Stationary point found.
 Normal termination of Gaussian 16 at Thu Dec 10 10:30:55 2020.

 --------------------------------------------------------------------
 #N Geom=AllCheck Guess=TCheck SCRF=Check GenChk RB3LYP/6-31G(d) Freq
 --------------------------------------------------------------------

 Structure from the checkpoint file:  "JID_4641.chk"
 -------------------------------
 CID_104536692_JID_4641_neutraal
 -------------------------------
 Charge =  0 Multiplicity = 1

 SCF Done:  E(RB3LYP) =  -970.016492582     A.U. after    1 cycles

  Exact polarizability: 162.300  14.931 124.495  12.163   6.144 101.356
 Approx polarizability: 228.301  32.062 233.799  23.915  15.860 172.603

                      1                      2                      3
                      A                      A                      A
 Frequencies --     22.3908                31.7762                57.7973
 Red. masses --      5.4979                 7.5877                 5.3428
 Frc consts  --      0.0016                 0.0045                 0.0105
 IR Inten    --      1.9955                 0.5659                 0.4919

                      4                      5                      6
                      A                      A                      A
 Frequencies --    135.1629               183.7864               222.1316
 Red. masses --      6.0880                 5.3493                 4.0946
 Frc consts  --      0.0655                 0.1065                 0.1190
 IR Inten    --      3.3589                 0.8979                 1.5727

                      7                      8                      9
                      A                      A                      A
 Frequencies --    239.8870               267.6116               297.4437
 Red. masses --      4.1197                 3.8908                 1.1020
 Frc consts  --      0.1397                 0.1642                 0.0574
 IR Inten    --      2.6871                 4.9415                18.1065

                     10                     11                     12
                      A                      A                      A
 Frequencies --    339.3923               393.4770               466.8429
 Red. masses --      2.4051                 4.0056                 5.1408
 Frc consts  --      0.1632                 0.3654                 0.6601
 IR Inten    --      6.8060                 0.6612                 2.9103

                     13                     14                     15
                      A                      A                      A
 Frequencies --    480.6390               512.2686               549.3372
 Red. masses --      4.0840                 5.3362                 6.6624
 Frc consts  --      0.5559                 0.8251                 1.1846
 IR Inten    --      6.9629                13.1236                21.3719

                     16                     17                     18
                      A                      A                      A
 Frequencies --    564.1525               577.9806               592.2140
 Red. masses --      4.3246                 3.7357                 1.7984
 Frc consts  --      0.8109                 0.7353                 0.3716
 IR Inten    --      3.5271                 8.1135               224.4170

                     19                     20                     21
                      A                      A                      A
 Frequencies --    649.0789               660.3849               668.9208
 Red. masses --      2.8158                 5.5625                 6.7001
 Frc consts  --      0.6989                 1.4293                 1.7664
 IR Inten    --    156.3183                12.1176                 3.7325

                     22                     23                     24
                      A                      A                      A
 Frequencies --    709.6941               717.5718               736.2967
 Red. masses --      1.1828                 2.3442                 6.7154
 Frc consts  --      0.3510                 0.7112                 2.1450
 IR Inten    --     55.7925                 3.6789                12.3946

                     25                     26                     27
                      A                      A                      A
 Frequencies --    759.4193               835.0089               844.9194
 Red. masses --      6.5465                 1.3042                 1.4833
 Frc consts  --      2.2245                 0.5358                 0.6239
 IR Inten    --      3.1124                20.5300                31.8788

                     28                     29                     30
                      A                      A                      A
 Frequencies --    867.7197               872.7673               893.3578
 Red. masses --      4.0800                 1.4990                 1.4338
 Frc consts  --      1.8100                 0.6728                 0.6742
 IR Inten    --      6.8414                24.3715                 0.1452

                     31                     32                     33
                      A                      A                      A
 Frequencies --    909.2282               970.6808              1027.2924
 Red. masses --      1.3240                 4.2914                 2.4635
 Frc consts  --      0.6449                 2.3823                 1.5317
 IR Inten    --      1.0543                 5.8922                 0.2512

                     34                     35                     36
                      A                      A                      A
 Frequencies --   1035.3115              1069.2095              1076.7186
 Red. masses --      3.0863                 2.2275                 1.9267
 Frc consts  --      1.9491                 1.5004                 1.3161
 IR Inten    --      8.4992                50.8369                15.3028

                     37                     38                     39
                      A                      A                      A
 Frequencies --   1116.8121              1122.4157              1192.8018
 Red. masses --      1.1782                 1.3919                 3.7383
 Frc consts  --      0.8658                 1.0331                 3.1337
 IR Inten    --      0.4719                 6.5520                39.5436

                     40                     41                     42
                      A                      A                      A
 Frequencies --   1220.8400              1222.2189              1258.3326
 Red. masses --      1.9016                 2.5684                 1.4024
 Frc consts  --      1.6699                 2.2605                 1.3083
 IR Inten    --     32.6761               282.9588                 9.4972

                     43                     44                     45
                      A                      A                      A
 Frequencies --   1302.0578              1331.4871              1346.9435
 Red. masses --      1.3065                 4.1048                 1.8718
 Frc consts  --      1.3051                 4.2876                 2.0009
 IR Inten    --      8.0132                28.7580                93.3319

                     46                     47                     48
                      A                      A                      A
 Frequencies --   1379.7094              1396.8175              1425.2306
 Red. masses --      1.5323                 1.9883                 1.5568
 Frc consts  --      1.7186                 2.2856                 1.8631
 IR Inten    --      6.7245                14.4315                31.1824

                     49                     50                     51
                      A                      A                      A
 Frequencies --   1502.9496              1503.6569              1524.9701
 Red. masses --      3.8425                 4.6905                 1.1071
 Frc consts  --      5.1139                 6.2484                 1.5170
 IR Inten    --     58.1783                40.0380                 4.5394

                     52                     53                     54
                      A                      A                      A
 Frequencies --   1533.6691              1606.8782              1622.1191
 Red. masses --      2.7476                 5.5073                 5.6135
 Frc consts  --      3.8077                 8.3783                 8.7026
 IR Inten    --     48.4832                 4.8739                12.8779

                     55                     56                     57
                      A                      A                      A
 Frequencies --   1661.8961              1694.5704              3046.1287
 Red. masses --      4.2957                 1.2523                 1.0636
 Frc consts  --      6.9902                 2.1188                 5.8148
 IR Inten    --    131.7001               122.2794                37.9134

                     58                     59                     60
                      A                      A                      A
 Frequencies --   3102.5165              3150.7600              3201.8597
 Red. masses --      1.1012                 1.0894                 1.0911
 Frc consts  --      6.2451                 6.3720                 6.5907
 IR Inten    --     17.1835                38.2973                 5.8805

                     61                     62                     63
                      A                      A                      A
 Frequencies --   3210.6318              3228.5425              3229.9701
 Red. masses --      1.0902                 1.0898                 1.0937
 Frc consts  --      6.6210                 6.6929                 6.7228
 IR Inten    --      6.8437                18.9467                 4.6825

                     64                     65                     66
                      A                      A                      A
 Frequencies --   3271.7367              3552.3762              3650.9371
 Red. masses --      1.0972                 1.0477                 1.0984
 Frc consts  --      6.9198                 7.7901                 8.6258
 IR Inten    --      1.2471                14.6081                10.0205

 - Thermochemistry -
 -------------------
 Temperature   298.150 Kelvin.  Pressure   1.00000 Atm.
 Atom     1 has atomic number  6 and mass  12.00000

 Molecular mass:   206.05138 amu.
 Principal axes and moments of inertia in atomic units:
                           1         2         3
     Eigenvalues --  1338.507355443.240355604.48977
           X            0.99986   0.01288   0.01076
           Y           -0.01285   0.99991  -0.00226
           Z           -0.01079   0.00212   0.99994
 This molecule is an asymmetric top.
 Rotational symmetry number  1.
 Warning -- assumption of classical behavior for rotation
           may cause significant error
 Rotational temperatures (Kelvin)      0.06471     0.01591     0.01545
 Rotational constants (GHZ):           1.34832     0.33156     0.32202
 Zero-point vibrational energy     489570.0 (Joules/Mol)
                                  117.01003 (Kcal/Mol)
 Warning -- explicit consideration of  18 degrees of freedom as
           vibrations may cause significant error
 Vibrational temperatures:     32.22    45.72    83.16   194.47   264.43
          (Kelvin)            319.60   345.14   385.03   427.96   488.31
                              566.13   671.68   691.53   737.04   790.37
                              811.69   831.59   852.06   933.88   950.15
                              962.43  1021.09  1032.43  1059.37  1092.64
                             1201.39  1215.65  1248.46  1255.72  1285.34
                             1308.18  1396.59  1478.04  1489.58  1538.35
                             1549.16  1606.84  1614.91  1716.18  1756.52
                             1758.50  1810.46  1873.37  1915.71  1937.95
                             1985.09  2009.71  2050.59  2162.41  2163.43
                             2194.09  2206.61  2311.94  2333.87  2391.10
                             2438.11  4382.70  4463.83  4533.24  4606.76
                             4619.38  4645.15  4647.21  4707.30  5111.08
                             5252.88

 Zero-point correction=                           0.186467 (Hartree/Particle)
 Thermal correction to Energy=                    0.198665
 Thermal correction to Enthalpy=                  0.199610
 Thermal correction to Gibbs Free Energy=         0.145996
 Sum of electronic and zero-point Energies=           -969.830025
 Sum of electronic and thermal Energies=              -969.817827
 Sum of electronic and thermal Enthalpies=            -969.816883
 Sum of electronic and thermal Free Energies=         -969.870496

                     E (Thermal)             CV                S
                      KCal/Mol        Cal/Mol-Kelvin    Cal/Mol-Kelvin
 Total                  124.664             47.233            112.839
 Electronic               0.000              0.000              0.000
 Translational            0.889              2.981             41.873
 Rotational               0.889              2.981             32.079
 Vibrational            122.887             41.272             38.886
 Vibration     1          0.593              1.985              6.410
 Vibration     2          0.594              1.983              5.715
 Vibration     3          0.596              1.974              4.531
 Vibration     4          0.613              1.918              2.871
 Vibration     5          0.631              1.862              2.290
 Vibration     6          0.648              1.807              1.942
 Vibration     7          0.657              1.779              1.804
 Vibration     8          0.673              1.733              1.612
 Vibration     9          0.691              1.678              1.431
 Vibration    10          0.719              1.597              1.215
 Vibration    11          0.761              1.484              0.987
 Vibration    12          0.824              1.324              0.746
 Vibration    13          0.837              1.293              0.708
 Vibration    14          0.867              1.223              0.628
 Vibration    15          0.905              1.141              0.546
 Vibration    16          0.920              1.109              0.516
 Vibration    17          0.935              1.079              0.489
 Vibration    18          0.950              1.048              0.463

 Optimization completed.
    -- Stationary point found.
 Normal termination of Gaussian 16 at Thu Dec 10 10:37:23 2020.

 ----------------------------------------------------------------------
 # B3LYP/6-311++G(d,p) empiricaldispersion=gd3bj scf=xqc pop=npa geom=c
 heck
 ----------------------------------------------------------------------

 ---------------------------------------
 CID_104536692_JID_4641_Energie_neutraal
 ---------------------------------------
 Structure from the checkpoint file:  "JID_4641.chk"
 Charge =  0 Multiplicity = 1

 SCF Done:  E(RB3LYP) =  -970.203315867     A.U. after   16 cycles
 Normal termination of Gaussian 16 at Thu Dec 10 10:40:42 2020.

 ----------------------------------------------------------------------
 # B3LYP/6-311++G(d,p) empiricaldispersion=gd3bj scf=xqc pop=npa geom=c
 heck
 ----------------------------------------------------------------------

 -------------------------------------
 CID_104536692_JID_4641_Energie_kation
 -------------------------------------
 Structure from the checkpoint file:  "JID_4641.chk"
 Charge =  1 Multiplicity = 2

 SCF Done:  E(UB3LYP) =  -969.919536782     A.U. after   27 cycles
 Normal termination of Gaussian 16 at Thu Dec 10 10:48:23 2020.
 Gaussian 16:  ES64L-G16RevA.03 25-Dec-2016

 ----------------------------------------------------------------------
 # B3LYP/6-311++G(d,p) empiricaldispersion=gd3bj scf=xqc pop=npa geom=c
 heck
 ----------------------------------------------------------------------

 ------------------------------------
 CID_104536692_JID_4641_Energie_anion
 ------------------------------------
 Structure from the checkpoint file:  "JID_4641.chk"
 Charge = -1 Multiplicity = 2

                         Standard orientation:
 ---------------------------------------------------------------------
 Center     Atomic      Atomic             Coordinates (Angstroms)
 Number     Number       Type             X           Y           Z
 ---------------------------------------------------------------------
      1          6           0        3.562743    1.162134   -0.495928
      2          6           0        3.376160    0.177486   -1.425291
      3         16           0        2.218469   -1.001325   -0.892315
      4          6           0        1.980332   -0.151396    0.612354
      5          6           0        2.758572    0.973872    0.669739
      6          6           0        1.055327   -0.695384    1.658320
      7          8           0       -0.162856   -1.213729    1.124438
      8          6           0       -1.090372   -0.336939    0.630479
      9          6           0       -0.968171    1.058318    0.631649
     10          7           0       -1.934990    1.849727    0.149583
     11          6           0       -3.036126    1.298720   -0.347989
     12          6           0       -3.250365   -0.093496   -0.402544
     13          6           0       -2.243533   -0.917744    0.102096
     14          7           0       -4.448420   -0.613820   -0.889170
     15          1           0        4.235940    2.000169   -0.637318
     16          1           0        3.832820    0.082249   -2.400982
     17          1           0        2.753607    1.650709    1.518122
     18          1           0        1.498144   -1.555866    2.169174
     19          1           0        0.855584    0.078156    2.411289
     20          1           0       -0.079248    1.554906    1.001625
     21          1           0       -3.798659    1.979117   -0.727212
     22          1           0       -2.338504   -1.999719    0.101341
     23          1           0       -4.944891   -0.004492   -1.527413
     24          1           0       -4.390992   -1.558970   -1.247292
 ---------------------------------------------------------------------

 SCF Done:  E(UB3LYP) =  -970.192997047     A.U. after   33 cycles
 SCF Done:  E(UB3LYP) =  -970.192997048     a.u. after    1 cycles

 The electronic state is 2-A.
 Alpha  occ. eigenvalues --  -88.75922 -19.05044 -14.20590 -14.19407 -10.13631
 Alpha  occ. eigenvalues --  -10.12707 -10.10587 -10.08434 -10.08081 -10.07970
 Alpha  occ. eigenvalues --  -10.07794 -10.06770 -10.06486 -10.06189  -7.84541
 Alpha  occ. eigenvalues --   -5.80833  -5.80464  -5.80151  -0.96634  -0.83190
 Alpha  occ. eigenvalues --   -0.79726  -0.77025  -0.68931  -0.64737  -0.62878
 Alpha  occ. eigenvalues --   -0.62394  -0.57786  -0.52458  -0.50351  -0.45779
 Alpha  occ. eigenvalues --   -0.44281  -0.42252  -0.42110  -0.40398  -0.39168
 Alpha  occ. eigenvalues --   -0.36936  -0.36172  -0.33129  -0.32171  -0.29821
 Alpha  occ. eigenvalues --   -0.29699  -0.29185  -0.28150  -0.27672  -0.26169
 Alpha  occ. eigenvalues --   -0.24704  -0.24423  -0.22887  -0.21933  -0.14760
 Alpha  occ. eigenvalues --   -0.14361  -0.13602  -0.13083  -0.10313   0.04839
 Alpha virt. eigenvalues --    0.06263   0.07358   0.08088   0.08561   0.08905
 Alpha virt. eigenvalues --    0.09304   0.10180   0.10677   0.11576   0.11878
 Alpha virt. eigenvalues --    0.12756   0.12840   0.13652   0.14120   0.14443

  Beta  occ. eigenvalues --  -88.75896 -19.05024 -14.20506 -14.19338 -10.13640
  Beta  occ. eigenvalues --  -10.12708 -10.10554 -10.08234 -10.07964 -10.07886
  Beta  occ. eigenvalues --  -10.07786 -10.06782 -10.06454 -10.06153  -7.84518
  Beta  occ. eigenvalues --   -5.80826  -5.80456  -5.80058  -0.96592  -0.83096
  Beta  occ. eigenvalues --   -0.79611  -0.76811  -0.68836  -0.64524  -0.62763
  Beta  occ. eigenvalues --   -0.62253  -0.57650  -0.52351  -0.50236  -0.45589
  Beta  occ. eigenvalues --   -0.44112  -0.42176  -0.41978  -0.40310  -0.39097
  Beta  occ. eigenvalues --   -0.36825  -0.36044  -0.33049  -0.32050  -0.29707
  Beta  occ. eigenvalues --   -0.29603  -0.29106  -0.28018  -0.27555  -0.25765
  Beta  occ. eigenvalues --   -0.24567  -0.24335  -0.22735  -0.21724  -0.14473
  Beta  occ. eigenvalues --   -0.14088  -0.13411  -0.12106  -0.10150
  Beta virt. eigenvalues --    0.07194   0.07837   0.08121   0.08343   0.08909
  Beta virt. eigenvalues --    0.09324   0.09870   0.10439   0.11022   0.11580
  Beta virt. eigenvalues --    0.11849   0.12883   0.13136   0.13881   0.14153

 Mulliken charges and spin densities:
               1          2
     1  C   -0.512527  -0.002847
     2  C   -0.170667   0.105614
     3  S   -0.105725   0.106782
     4  C    0.345215   0.103376
     5  C   -0.228784   0.125642
     6  C   -0.124018  -0.251652
     7  O   -0.131834   0.000029
     8  C    0.685135  -0.980921
     9  C   -0.713042  -0.217284
    10  N   -0.022941   0.039483
    11  C   -0.422569   0.235836
    12  C    0.973536  -1.288212
    13  C   -0.090370   1.037179
    14  N   -0.215644  -0.096598
    15  H    0.114669   0.000281
    16  H    0.206833  -0.006981
    17  H    0.134344  -0.004064
    18  H   -0.043174   0.234127
    19  H    0.162711  -0.007880
    20  H    0.127660   0.048563
    21  H   -0.167179   0.329306
    22  H    0.017964   0.168940
    23  H   -0.318304   0.565559
    24  H   -0.501289   0.755719
 Sum of Mulliken charges =  -1.00000   1.00000

 Dipole moment (field-independent basis, Debye):
    X=              8.7564    Y=              1.1307    Z=              3.5405  Tot=              9.5125
 Quadrupole moment (field-independent basis, Debye-Ang):
   XX=           -174.2649   YY=           -117.2723   ZZ=           -109.3535
   XY=             -3.6046   XZ=            -17.1391   YZ=             -2.6108

 Summary of Natural Population Analysis:

                                       Natural Population
                Natural  -----------------------------------------------
    Atom  No    Charge         Core      Valence    Rydberg      Total
 -----------------------------------------------------------------------
      C    1   -0.13680      0.99954     2.12803    0.00922     3.13680
      C    2   -0.16437      0.99955     2.15481    0.01001     3.16437
      S    3    0.21410      4.99941     2.76427    0.02222     7.78590
      C    4   -0.09122      0.99949     2.07920    0.01253     3.09122
      C    5   -0.12813      0.99946     2.11789    0.01077     3.12813
      C    6   -0.02199      0.99949     2.00894    0.01355     3.02199
      O    7   -0.27456      0.99986     3.26582    0.00888     4.27456
      C    8    0.15013      0.99938     1.83715    0.01334     2.84987
      C    9   -0.03598      0.99954     2.02386    0.01258     3.03598
      N   10   -0.21220      0.99971     2.70166    0.01083     3.71220
      C   11   -0.01108      0.99955     1.99581    0.01572     3.01108
      C   12    0.07788      0.99949     1.91093    0.01169     2.92212
      C   13   -0.12705      0.99948     2.11699    0.01058     3.12705
      N   14   -0.39383      0.99972     2.88290    0.01121     3.89383
      H   15    0.10012      0.00000     0.39897    0.00091     0.39988
      H   16    0.10151      0.00000     0.39767    0.00083     0.39849
      H   17    0.10108      0.00000     0.39808    0.00084     0.39892
      H   18    0.09816      0.00000     0.40035    0.00149     0.40184
      H   19    0.08916      0.00000     0.40958    0.00127     0.41084
      H   20    0.09470      0.00000     0.40349    0.00181     0.40530
      H   21    0.08622      0.00000     0.41209    0.00169     0.41378
      H   22    0.10483      0.00000     0.39342    0.00176     0.39517
      H   23    0.18888      0.00000     0.30410    0.00702     0.31112
      H   24    0.19045      0.00000     0.29935    0.01020     0.30955
 =======================================================================
   * Total *   -0.00000     17.99368    35.80537    0.20096    54.00000

 Normal termination of Gaussian 16 at Thu Dec 10 10:58:12 2020.
