 Gaussian 16, Revision A.03,

 -----------------------------------------------------------
 # opt freq B3LYP/6-31G(d) empiricaldispersion=gd3bj scf=xqc
 -----------------------------------------------------------

 -------------------------------
 CID_103490234_JID_9816_neutraal
 -------------------------------
 Symbolic Z-matrix:
 Charge =  0 Multiplicity = 1

 SCF Done:  E(RB3LYP) =  -917.749035586     A.U. after   15 cycles
 SCF Done:  E(RB3LYP) =  -917.753032819     A.U. after   15 cycles
 SCF Done:  E(RB3LYP) =  -917.750073856     A.U. after   16 cycles
 SCF Done:  E(RB3LYP) =  -917.754698453     A.U. after   14 cycles
 SCF Done:  E(RB3LYP) =  -917.756438328     A.U. after   14 cycles
 SCF Done:  E(RB3LYP) =  -917.757516251     A.U. after   14 cycles
 SCF Done:  E(RB3LYP) =  -917.758534254     A.U. after   16 cycles
 SCF Done:  E(RB3LYP) =  -917.760239376     A.U. after   14 cycles
 SCF Done:  E(RB3LYP) =  -917.762997149     A.U. after   16 cycles
 SCF Done:  E(RB3LYP) =  -917.763619248     A.U. after   14 cycles
 SCF Done:  E(RB3LYP) =  -917.764029806     A.U. after   10 cycles
 SCF Done:  E(RB3LYP) =  -917.764031161     A.U. after   10 cycles
 SCF Done:  E(RB3LYP) =  -917.764031672     A.U. after    8 cycles
 SCF Done:  E(RB3LYP) =  -917.764032071     A.U. after    9 cycles
 SCF Done:  E(RB3LYP) =  -917.764032117     A.U. after    8 cycles
 SCF Done:  E(RB3LYP) =  -917.764032117     A.U. after    7 cycles
 Optimization completed.
    -- Stationary point found.
 Normal termination of Gaussian 16 at Sun Dec 13 20:56:10 2020.

 --------------------------------------------------------------------
 #N Geom=AllCheck Guess=TCheck SCRF=Check GenChk RB3LYP/6-31G(d) Freq
 --------------------------------------------------------------------

 Structure from the checkpoint file:  "JID_9816.chk"
 -------------------------------
 CID_103490234_JID_9816_neutraal
 -------------------------------
 Charge =  0 Multiplicity = 1

 SCF Done:  E(RB3LYP) =  -917.764032117     A.U. after    1 cycles

  Exact polarizability: 204.315  -6.455 173.504 -26.628  -5.565 127.216
 Approx polarizability: 300.385  -8.052 285.334 -45.818 -16.784 191.009

                      1                      2                      3
                      A                      A                      A
 Frequencies --      9.5361                28.4939                34.6056
 Red. masses --      4.6337                 4.9747                 3.6346
 Frc consts  --      0.0002                 0.0024                 0.0026
 IR Inten    --      0.6820                 2.7051                 1.0336

                      4                      5                      6
                      A                      A                      A
 Frequencies --     52.4234                70.1959                77.9263
 Red. masses --      3.3638                 3.4314                 4.7164
 Frc consts  --      0.0054                 0.0100                 0.0169
 IR Inten    --      0.1637                 0.9089                 0.7471

                      7                      8                      9
                      A                      A                      A
 Frequencies --    105.3597               111.0338               142.0472
 Red. masses --      3.3986                 3.1141                 2.9754
 Frc consts  --      0.0222                 0.0226                 0.0354
 IR Inten    --      0.5178                 3.0266                12.3518

                     10                     11                     12
                      A                      A                      A
 Frequencies --    152.5454               170.4528               187.7833
 Red. masses --      3.3456                 2.0617                 2.3814
 Frc consts  --      0.0459                 0.0353                 0.0495
 IR Inten    --      0.2093                 0.6246                 0.1835

                     13                     14                     15
                      A                      A                      A
 Frequencies --    195.3517               233.6602               251.1974
 Red. masses --      2.0540                 3.9401                 1.3858
 Frc consts  --      0.0462                 0.1267                 0.0515
 IR Inten    --      5.4862                 1.6427                 0.6212

                     16                     17                     18
                      A                      A                      A
 Frequencies --    264.4275               278.6307               286.8394
 Red. masses --      1.1785                 2.7523                 4.5080
 Frc consts  --      0.0486                 0.1259                 0.2185
 IR Inten    --      0.5834                 0.5970                 1.6943

                     19                     20                     21
                      A                      A                      A
 Frequencies --    325.1906               351.3644               378.3500
 Red. masses --      2.7570                 2.9938                 4.2990
 Frc consts  --      0.1718                 0.2178                 0.3626
 IR Inten    --      5.2792                 7.7128                 0.9917

                     22                     23                     24
                      A                      A                      A
 Frequencies --    384.7975               401.8070               412.9138
 Red. masses --      3.2883                 2.5614                 2.9990
 Frc consts  --      0.2869                 0.2437                 0.3013
 IR Inten    --      2.1731                 0.4871                17.2853

                     25                     26                     27
                      A                      A                      A
 Frequencies --    428.4096               443.5962               496.4703
 Red. masses --      2.7826                 2.4654                 3.2119
 Frc consts  --      0.3009                 0.2858                 0.4664
 IR Inten    --     32.0426                30.4572                 3.2910

                     28                     29                     30
                      A                      A                      A
 Frequencies --    511.3025               526.9316               574.4996
 Red. masses --      3.7486                 2.5855                 3.2181
 Frc consts  --      0.5774                 0.4230                 0.6258
 IR Inten    --      7.4300                35.8999                13.3895

                     31                     32                     33
                      A                      A                      A
 Frequencies --    576.9275               645.2682               685.5669
 Red. masses --      3.8541                 3.4329                 6.6172
 Frc consts  --      0.7558                 0.8422                 1.8324
 IR Inten    --      0.9063                24.1350                 9.3275

                     34                     35                     36
                      A                      A                      A
 Frequencies --    737.7052               770.2160               788.0915
 Red. masses --      5.5973                 5.1251                 4.3752
 Frc consts  --      1.7947                 1.7913                 1.6010
 IR Inten    --     15.7182                 1.2028                14.2640

                     37                     38                     39
                      A                      A                      A
 Frequencies --    813.2863               818.4708               824.2066
 Red. masses --      1.1127                 3.0410                 3.5877
 Frc consts  --      0.4336                 1.2002                 1.4360
 IR Inten    --      1.7657                 9.2147                 6.5832

                     40                     41                     42
                      A                      A                      A
 Frequencies --    834.4780               895.5988               912.8815
 Red. masses --      1.9377                 2.4705                 1.7492
 Frc consts  --      0.7950                 1.1675                 0.8589
 IR Inten    --     29.0798                 5.9750                 5.4700

                     43                     44                     45
                      A                      A                      A
 Frequencies --    930.4351               943.3869               948.3935
 Red. masses --      2.0311                 1.2324                 3.4928
 Frc consts  --      1.0360                 0.6462                 1.8510
 IR Inten    --      6.0424                 1.7319                13.4905

                     46                     47                     48
                      A                      A                      A
 Frequencies --    966.3674              1021.2537              1040.6584
 Red. masses --      1.3187                 3.0604                 2.1078
 Frc consts  --      0.7256                 1.8806                 1.3449
 IR Inten    --      0.1874                16.4541                 5.5672

                     49                     50                     51
                      A                      A                      A
 Frequencies --   1063.9895              1080.8222              1103.6144
 Red. masses --      2.3961                 3.3266                 2.2707
 Frc consts  --      1.5982                 2.2896                 1.6294
 IR Inten    --     40.3870                 6.4910                24.0066

                     52                     53                     54
                      A                      A                      A
 Frequencies --   1117.2261              1141.6708              1161.0263
 Red. masses --      2.5247                 3.0366                 1.3351
 Frc consts  --      1.8567                 2.3319                 1.0603
 IR Inten    --     27.4114                61.4750                 8.6241

                     55                     56                     57
                      A                      A                      A
 Frequencies --   1166.8629              1170.9942              1174.7020
 Red. masses --      2.9491                 2.2339                 1.6082
 Frc consts  --      2.3658                 1.8048                 1.3075
 IR Inten    --    243.3562                58.5141                13.9485

                     58                     59                     60
                      A                      A                      A
 Frequencies --   1197.5134              1206.5783              1221.2325
 Red. masses --      2.4035                 1.2708                 1.9491
 Frc consts  --      2.0307                 1.0900                 1.7127
 IR Inten    --     29.6812                23.9632                23.8844

                     61                     62                     63
                      A                      A                      A
 Frequencies --   1243.7527              1286.6585              1299.1400
 Red. masses --      2.8961                 1.1573                 1.5179
 Frc consts  --      2.6396                 1.1289                 1.5095
 IR Inten    --     43.7328                 4.7471                33.8043

                     64                     65                     66
                      A                      A                      A
 Frequencies --   1304.2342              1326.2668              1339.8641
 Red. masses --      1.9539                 1.8098                 1.1172
 Frc consts  --      1.9583                 1.8756                 1.1817
 IR Inten    --     23.2400                66.0565                11.3021

                     67                     68                     69
                      A                      A                      A
 Frequencies --   1372.9098              1386.9391              1401.6946
 Red. masses --      1.2694                 6.2567                 1.7038
 Frc consts  --      1.4098                 7.0910                 1.9723
 IR Inten    --      1.4541               307.2078                 7.7356

                     70                     71                     72
                      A                      A                      A
 Frequencies --   1408.8259              1416.3910              1426.7862
 Red. masses --      1.3627                 1.2382                 1.6833
 Frc consts  --      1.5935                 1.4636                 2.0190
 IR Inten    --      2.4416                 7.6087                45.5995

                     73                     74                     75
                      A                      A                      A
 Frequencies --   1429.1288              1441.2830              1449.7234
 Red. masses --      1.4675                 1.2852                 2.5541
 Frc consts  --      1.7659                 1.5730                 3.1627
 IR Inten    --     11.8945                34.7457                 6.4023

                     76                     77                     78
                      A                      A                      A
 Frequencies --   1452.7962              1487.4176              1507.1793
 Red. masses --      1.3744                 1.2820                 1.0571
 Frc consts  --      1.7091                 1.6711                 1.4149
 IR Inten    --      5.7819                19.6884                14.7028

                     79                     80                     81
                      A                      A                      A
 Frequencies --   1518.8233              1519.8461              1520.0391
 Red. masses --      1.0527                 1.0520                 1.0535
 Frc consts  --      1.4307                 1.4318                 1.4341
 IR Inten    --      4.7773                 3.6066                 3.9961

                     82                     83                     84
                      A                      A                      A
 Frequencies --   1526.2382              1531.7751              1536.0352
 Red. masses --      1.1060                 1.0693                 1.2442
 Frc consts  --      1.5179                 1.4783                 1.7296
 IR Inten    --      2.2013                 2.3835                 7.6505

                     85                     86                     87
                      A                      A                      A
 Frequencies --   1538.2340              1550.4336              1559.6578
 Red. masses --      1.0729                 1.6659                 1.0876
 Frc consts  --      1.4957                 2.3594                 1.5587
 IR Inten    --      0.8406                 9.3609                 7.3290

                     88                     89                     90
                      A                      A                      A
 Frequencies --   1573.9342              1613.2305              1634.9430
 Red. masses --      2.3334                 5.0818                 4.7151
 Frc consts  --      3.4058                 7.7922                 7.4259
 IR Inten    --    143.2943               189.6692                69.7528

                     91                     92                     93
                      A                      A                      A
 Frequencies --   1688.1082              2982.0119              2996.3481
 Red. masses --      6.4612                 1.0584                 1.0706
 Frc consts  --     10.8484                 5.5454                 5.6632
 IR Inten    --    141.9154                31.8980                57.1506

                     94                     95                     96
                      A                      A                      A
 Frequencies --   3026.3113              3036.6666              3048.2075
 Red. masses --      1.0997                 1.0630                 1.0409
 Frc consts  --      5.9343                 5.7753                 5.6983
 IR Inten    --     44.3101                45.5382                43.3319

                     97                     98                     99
                      A                      A                      A
 Frequencies --   3055.6803              3069.2693              3073.5054
 Red. masses --      1.0361                 1.0354                 1.0867
 Frc consts  --      5.7001                 5.7466                 6.0480
 IR Inten    --     20.0025                14.7070                40.2139

                    100                    101                    102
                      A                      A                      A
 Frequencies --   3082.4214              3094.7689              3121.6227
 Red. masses --      1.1018                 1.0938                 1.0957
 Frc consts  --      6.1677                 6.1724                 6.2905
 IR Inten    --     29.9359                17.5104                26.5136

                    103                    104                    105
                      A                      A                      A
 Frequencies --   3123.8513              3132.6339              3142.0061
 Red. masses --      1.1011                 1.1037                 1.1029
 Frc consts  --      6.3306                 6.3815                 6.4150
 IR Inten    --     41.3501                39.5788                19.5417

                    106                    107                    108
                      A                      A                      A
 Frequencies --   3149.6391              3150.4479              3174.6135
 Red. masses --      1.1020                 1.1045                 1.0883
 Frc consts  --      6.4408                 6.4590                 6.4625
 IR Inten    --     32.9549                14.9342                13.9824

                    109                    110                    111
                      A                      A                      A
 Frequencies --   3205.8030              3228.4177              3613.1928
 Red. masses --      1.0931                 1.0902                 1.0761
 Frc consts  --      6.6191                 6.6946                 8.2771
 IR Inten    --      7.8648                 1.4788                29.4641

 - Thermochemistry -
 -------------------
 Temperature   298.150 Kelvin.  Pressure   1.00000 Atm.
 Atom     1 has atomic number  6 and mass  12.00000

 Molecular mass:   268.14231 amu.
 Principal axes and moments of inertia in atomic units:
                           1         2         3
     Eigenvalues --  3210.401599266.12383**********
           X            0.99965   0.02311  -0.01253
           Y           -0.02306   0.99973   0.00394
           Z            0.01262  -0.00365   0.99991
 This molecule is an asymmetric top.
 Rotational symmetry number  1.
 Warning -- assumption of classical behavior for rotation
           may cause significant error
 Rotational temperatures (Kelvin)      0.02698     0.00935     0.00806
 Rotational constants (GHZ):           0.56215     0.19477     0.16801
 Zero-point vibrational energy     865182.8 (Joules/Mol)
                                  206.78366 (Kcal/Mol)
 Warning -- explicit consideration of  31 degrees of freedom as
           vibrations may cause significant error
 Vibrational temperatures:     13.72    41.00    49.79    75.43   101.00
          (Kelvin)            112.12   151.59   159.75   204.37   219.48
                              245.24   270.18   281.07   336.18   361.42
                              380.45   400.89   412.70   467.88   505.53
                              544.36   553.64   578.11   594.09   616.39
                              638.24   714.31   735.65   758.14   826.58
                              830.07   928.40   986.38  1061.39  1108.17
                             1133.89  1170.14  1177.60  1185.85  1200.63
                             1288.57  1313.43  1338.69  1357.32  1364.53
                             1390.39  1469.36  1497.28  1530.84  1555.06
                             1587.85  1607.44  1642.61  1670.46  1678.86
                             1684.80  1690.13  1722.95  1736.00  1757.08
                             1789.48  1851.21  1869.17  1876.50  1908.20
                             1927.77  1975.31  1995.50  2016.73  2026.99
                             2037.87  2052.83  2056.20  2073.68  2085.83
                             2090.25  2140.06  2168.49  2185.25  2186.72
                             2187.00  2195.92  2203.88  2210.01  2213.18
                             2230.73  2244.00  2264.54  2321.08  2352.32
                             2428.81  4290.45  4311.08  4354.19  4369.09
                             4385.69  4396.44  4415.99  4422.09  4434.92
                             4452.68  4491.32  4494.53  4507.16  4520.65
                             4531.63  4532.79  4567.56  4612.44  4644.97
                             5198.58

 Zero-point correction=                           0.329531 (Hartree/Particle)
 Thermal correction to Energy=                    0.349439
 Thermal correction to Enthalpy=                  0.350383
 Thermal correction to Gibbs Free Energy=         0.278444
 Sum of electronic and zero-point Energies=           -917.434501
 Sum of electronic and thermal Energies=              -917.414593
 Sum of electronic and thermal Enthalpies=            -917.413649
 Sum of electronic and thermal Free Energies=         -917.485589

                     E (Thermal)             CV                S
                      KCal/Mol        Cal/Mol-Kelvin    Cal/Mol-Kelvin
 Total                  219.276             73.104            151.410
 Electronic               0.000              0.000              0.000
 Translational            0.889              2.981             42.658
 Rotational               0.889              2.981             34.124
 Vibrational            217.499             67.143             74.628
 Vibration     1          0.593              1.987              8.105
 Vibration     2          0.593              1.984              5.932
 Vibration     3          0.594              1.983              5.546
 Vibration     4          0.596              1.977              4.724
 Vibration     5          0.598              1.968              4.148
 Vibration     6          0.599              1.964              3.942
 Vibration     7          0.605              1.945              3.353
 Vibration     8          0.607              1.940              3.251
 Vibration     9          0.616              1.911              2.776
 Vibration    10          0.619              1.900              2.640
 Vibration    11          0.626              1.879              2.430
 Vibration    12          0.632              1.857              2.250
 Vibration    13          0.636              1.846              2.176
 Vibration    14          0.654              1.789              1.851
 Vibration    15          0.663              1.761              1.722
 Vibration    16          0.671              1.738              1.632
 Vibration    17          0.679              1.713              1.542
 Vibration    18          0.684              1.698              1.493
 Vibration    19          0.709              1.625              1.284
 Vibration    20          0.728              1.572              1.160
 Vibration    21          0.749              1.516              1.046
 Vibration    22          0.754              1.503              1.020
 Vibration    23          0.767              1.466              0.956
 Vibration    24          0.777              1.442              0.916
 Vibration    25          0.790              1.408              0.864
 Vibration    26          0.803              1.375              0.815
 Vibration    27          0.852              1.258              0.667
 Vibration    28          0.866              1.225              0.630
 Vibration    29          0.882              1.190              0.594
 Vibration    30          0.931              1.086              0.496
 Vibration    31          0.933              1.081              0.491

 Optimization completed.
    -- Stationary point found.
 Normal termination of Gaussian 16 at Sun Dec 13 21:13:21 2020.

 ----------------------------------------------------------------------
 # B3LYP/6-311++G(d,p) empiricaldispersion=gd3bj scf=xqc pop=npa geom=c
 heck
 ----------------------------------------------------------------------

 ---------------------------------------
 CID_103490234_JID_9816_Energie_neutraal
 ---------------------------------------
 Structure from the checkpoint file:  "JID_9816.chk"
 Charge =  0 Multiplicity = 1

 SCF Done:  E(RB3LYP) =  -918.029849690     A.U. after   17 cycles
 Normal termination of Gaussian 16 at Sun Dec 13 21:21:14 2020.

 ----------------------------------------------------------------------
 # B3LYP/6-311++G(d,p) empiricaldispersion=gd3bj scf=xqc pop=npa geom=c
 heck
 ----------------------------------------------------------------------

 -------------------------------------
 CID_103490234_JID_9816_Energie_kation
 -------------------------------------
 Structure from the checkpoint file:  "JID_9816.chk"
 Charge =  1 Multiplicity = 2

 SCF Done:  E(UB3LYP) =  -917.738887512     A.U. after   29 cycles
 Normal termination of Gaussian 16 at Sun Dec 13 21:38:40 2020.
 Gaussian 16:  ES64L-G16RevA.03 25-Dec-2016

 ----------------------------------------------------------------------
 # B3LYP/6-311++G(d,p) empiricaldispersion=gd3bj scf=xqc pop=npa geom=c
 heck
 ----------------------------------------------------------------------

 ------------------------------------
 CID_103490234_JID_9816_Energie_anion
 ------------------------------------
 Structure from the checkpoint file:  "JID_9816.chk"
 Charge = -1 Multiplicity = 2

                         Standard orientation:
 ---------------------------------------------------------------------
 Center     Atomic      Atomic             Coordinates (Angstroms)
 Number     Number       Type             X           Y           Z
 ---------------------------------------------------------------------
      1          6           0        5.177199    2.114892   -0.245952
      2          6           0        4.198126    1.800333    0.881997
      3          8           0        3.867400    0.422033    0.980265
      4          6           0        3.047809   -0.057612   -0.068350
      5          6           0        2.519319   -1.426965    0.367118
      6          6           0        1.593113   -1.327462    1.579644
      7          8           0        1.966662   -2.172455   -0.726981
      8          6           0        1.059006   -1.519867   -1.607222
      9          6           0       -0.285632   -1.201095   -0.997730
     10          6           0       -0.796448    0.083132   -0.994351
     11          6           0       -2.045804    0.374079   -0.423938
     12          6           0       -2.800160   -0.619463    0.244845
     13          6           0       -2.265583   -1.933957    0.199958
     14          6           0       -1.060162   -2.216810   -0.405114
     15          7           0       -3.957023   -0.418623    0.953768
     16          6           0       -4.313526    0.797591    1.672173
     17          7           0       -2.550323    1.717426   -0.665953
     18          8           0       -3.769680    1.862870   -0.801193
     19          8           0       -1.729081    2.631456   -0.789280
     20          1           0        6.079602    1.502386   -0.147508
     21          1           0        5.468328    3.170850   -0.209648
     22          1           0        4.738470    1.924626   -1.231163
     23          1           0        4.642912    2.056209    1.849058
     24          1           0        3.277933    2.396809    0.767769
     25          1           0        2.217583    0.645702   -0.247925
     26          1           0        3.611937   -0.166169   -1.007207
     27          1           0        3.394326   -2.020799    0.653682
     28          1           0        0.743415   -0.665627    1.392729
     29          1           0        1.208682   -2.317460    1.843134
     30          1           0        2.159347   -0.928606    2.426301
     31          1           0        1.493986   -0.606949   -2.035816
     32          1           0        0.937843   -2.232872   -2.430584
     33          1           0       -0.255715    0.901947   -1.455131
     34          1           0       -2.822615   -2.727787    0.692458
     35          1           0       -0.676947   -3.233079   -0.390644
     36          1           0       -4.306007   -1.266902    1.376075
     37          1           0       -4.871685    0.512101    2.567849
     38          1           0       -3.414381    1.341764    1.987202
     39          1           0       -4.921562    1.470231    1.063714
 ---------------------------------------------------------------------

 SCF Done:  E(UB3LYP) =  -918.057055795     A.U. after   25 cycles

 The electronic state is 2-A.
 Alpha  occ. eigenvalues --  -19.04349 -19.01819 -18.93454 -18.93434 -14.30880
 Alpha  occ. eigenvalues --  -14.20004 -10.14221 -10.12446 -10.12407 -10.10880
 Alpha  occ. eigenvalues --  -10.09359 -10.08626 -10.07256 -10.06010 -10.05077
 Alpha  occ. eigenvalues --  -10.03970 -10.03951 -10.03312 -10.03286  -1.01446
 Alpha  occ. eigenvalues --   -0.95750  -0.92671  -0.84254  -0.81227  -0.72207
 Alpha  occ. eigenvalues --   -0.69885  -0.66569  -0.64149  -0.63186  -0.59877
 Alpha  occ. eigenvalues --   -0.58117  -0.55175  -0.53029  -0.51885  -0.48667
 Alpha  occ. eigenvalues --   -0.47494  -0.43009  -0.41717  -0.40552  -0.40055
 Alpha  occ. eigenvalues --   -0.39286  -0.37429  -0.36431  -0.35277  -0.34535
 Alpha  occ. eigenvalues --   -0.34466  -0.33689  -0.33011  -0.32431  -0.31221
 Alpha  occ. eigenvalues --   -0.31163  -0.30893  -0.30080  -0.29772  -0.29069
 Alpha  occ. eigenvalues --   -0.28395  -0.27189  -0.26419  -0.26013  -0.25063
 Alpha  occ. eigenvalues --   -0.24104  -0.23037  -0.22333  -0.19843  -0.18135
 Alpha  occ. eigenvalues --   -0.17275  -0.15658  -0.13041  -0.12612  -0.11421
 Alpha  occ. eigenvalues --   -0.09213  -0.07561   0.03692
 Alpha virt. eigenvalues --    0.05932   0.07710   0.08072   0.08382   0.09131
 Alpha virt. eigenvalues --    0.09536   0.10019   0.10441   0.11197   0.11653
 Alpha virt. eigenvalues --    0.11904   0.12399   0.12671   0.13004   0.13369

  Beta  occ. eigenvalues --  -19.04348 -19.01824 -18.92976 -18.92927 -14.30150
  Beta  occ. eigenvalues --  -14.19936 -10.14221 -10.12443 -10.12407 -10.10874
  Beta  occ. eigenvalues --  -10.09359 -10.08514 -10.07241 -10.06002 -10.05076
  Beta  occ. eigenvalues --  -10.04042 -10.03980 -10.03141 -10.03027  -1.00298
  Beta  occ. eigenvalues --   -0.95748  -0.92682  -0.83338  -0.81041  -0.71992
  Beta  occ. eigenvalues --   -0.69875  -0.66547  -0.63851  -0.62868  -0.59861
  Beta  occ. eigenvalues --   -0.58030  -0.54882  -0.53001  -0.51140  -0.48566
  Beta  occ. eigenvalues --   -0.47368  -0.42841  -0.41613  -0.40353  -0.40012
  Beta  occ. eigenvalues --   -0.39236  -0.37149  -0.36232  -0.35244  -0.34472
  Beta  occ. eigenvalues --   -0.33916  -0.32922  -0.32175  -0.31217  -0.31135
  Beta  occ. eigenvalues --   -0.31002  -0.30778  -0.29938  -0.29559  -0.28899
  Beta  occ. eigenvalues --   -0.28104  -0.27139  -0.26220  -0.25890  -0.24936
  Beta  occ. eigenvalues --   -0.24061  -0.22541  -0.22143  -0.19826  -0.18130
  Beta  occ. eigenvalues --   -0.16795  -0.15576  -0.12027  -0.10984  -0.09286
  Beta  occ. eigenvalues --   -0.08687  -0.06960
  Beta virt. eigenvalues --    0.05919   0.07571   0.08042   0.08357   0.09094
  Beta virt. eigenvalues --    0.09457   0.09986   0.10188   0.10607   0.11229
  Beta virt. eigenvalues --    0.11643   0.12238   0.12369   0.12658   0.13328

 Mulliken charges and spin densities:
               1          2
     1  C   -0.462205  -0.000371
     2  C   -0.098371  -0.003784
     3  O   -0.091152   0.000584
     4  C   -0.516175  -0.016335
     5  C   -0.019269   0.004622
     6  C   -0.585908  -0.005801
     7  O   -0.051027  -0.001762
     8  C   -0.659381  -0.025530
     9  C    0.537894  -0.000881
    10  C   -0.061175   0.106391
    11  C   -0.096908  -0.023636
    12  C   -0.097723   0.086012
    13  C   -0.349359  -0.051522
    14  C   -0.382801   0.200485
    15  N   -0.098435   0.034700
    16  C   -0.362603  -0.063570
    17  N   -0.309521   0.238970
    18  O   -0.157394   0.196335
    19  O   -0.164665   0.182411
    20  H    0.138214   0.000283
    21  H    0.129791  -0.000078
    22  H    0.143854   0.000214
    23  H    0.144861  -0.000420
    24  H    0.127499   0.001950
    25  H    0.151946   0.038843
    26  H    0.173136  -0.000824
    27  H    0.188925   0.000438
    28  H    0.272449  -0.010648
    29  H    0.120907   0.001381
    30  H    0.131917   0.001261
    31  H    0.138930  -0.001198
    32  H    0.144492   0.005979
    33  H    0.218521   0.000950
    34  H    0.086798   0.013847
    35  H    0.136121  -0.007101
    36  H    0.236951   0.002683
    37  H    0.031794   0.047543
    38  H    0.124964   0.036793
    39  H    0.184109   0.010784
 Sum of Mulliken charges =  -1.00000   1.00000

 Dipole moment (field-independent basis, Debye):
    X=              8.4950    Y=             -4.0303    Z=              3.3080  Tot=              9.9675
 Quadrupole moment (field-independent basis, Debye-Ang):
   XX=           -160.1635   YY=           -148.0429   ZZ=           -125.4329
   XY=             28.0670   XZ=            -14.8981   YZ=              4.3592

 Summary of Natural Population Analysis:

                                       Natural Population
                Natural  -----------------------------------------------
    Atom  No    Charge         Core      Valence    Rydberg      Total
 -----------------------------------------------------------------------
      C    1   -0.30208      0.99967     2.29865    0.00375     3.30208
      C    2   -0.00798      0.99961     1.99786    0.01050     3.00798
      O    3   -0.30340      0.99988     3.29273    0.01080     4.30340
      C    4   -0.02572      0.99956     2.01583    0.01034     3.02572
      C    5    0.06334      0.99956     1.92448    0.01262     2.93666
      C    6   -0.30234      0.99964     2.29752    0.00517     3.30234
      O    7   -0.30879      0.99989     3.29828    0.01063     4.30879
      C    8   -0.01168      0.99953     1.99981    0.01234     3.01168
      C    9   -0.08854      0.99949     2.07953    0.00951     3.08854
      C   10   -0.05741      0.99948     2.04749    0.01044     3.05741
      C   11    0.01702      0.99939     1.96933    0.01427     2.98298
      C   12    0.11439      0.99947     1.87277    0.01337     2.88561
      C   13   -0.12976      0.99954     2.12255    0.00767     3.12976
      C   14   -0.04243      0.99952     2.03427    0.00864     3.04243
      N   15   -0.29270      0.99966     2.78277    0.01026     3.79270
      C   16   -0.17692      0.99965     2.16974    0.00753     3.17692
      N   17    0.31615      0.99970     2.15836    0.02579     3.18385
      O   18   -0.19541      0.99990     3.18697    0.00854     4.19541
      O   19   -0.20850      0.99990     3.20068    0.00792     4.20850
      H   20    0.09786      0.00000     0.40106    0.00108     0.40214
      H   21    0.09866      0.00000     0.40049    0.00085     0.40134
      H   22    0.09929      0.00000     0.39982    0.00089     0.40071
      H   23    0.08496      0.00000     0.41390    0.00114     0.41504
      H   24    0.08151      0.00000     0.41705    0.00144     0.41849
      H   25    0.08807      0.00000     0.41067    0.00126     0.41193
      H   26    0.07990      0.00000     0.41864    0.00146     0.42010
      H   27    0.08647      0.00000     0.41213    0.00140     0.41353
      H   28    0.11120      0.00000     0.38784    0.00096     0.38880
      H   29    0.10176      0.00000     0.39734    0.00090     0.39824
      H   30    0.10021      0.00000     0.39885    0.00094     0.39979
      H   31    0.07806      0.00000     0.42060    0.00134     0.42194
      H   32    0.08854      0.00000     0.41025    0.00121     0.41146
      H   33    0.10976      0.00000     0.38910    0.00114     0.39024
      H   34    0.08736      0.00000     0.41102    0.00161     0.41264
      H   35    0.09173      0.00000     0.40671    0.00157     0.40827
      H   36    0.17516      0.00000     0.32243    0.00241     0.32484
      H   37    0.08063      0.00000     0.41809    0.00128     0.41937
      H   38    0.09264      0.00000     0.40540    0.00196     0.40736
      H   39    0.10899      0.00000     0.38934    0.00166     0.39101
 =======================================================================
   * Total *    0.00000     18.99305    52.78035    0.22660    72.00000

 Normal termination of Gaussian 16 at Sun Dec 13 21:53:56 2020.
