 Gaussian 16, Revision A.03,

 -----------------------------------------------------------
 # opt freq B3LYP/6-31G(d) empiricaldispersion=gd3bj scf=xqc
 -----------------------------------------------------------

 ------------------------------
 CID_81648735_JID_9448_neutraal
 ------------------------------
 Symbolic Z-matrix:
 Charge =  0 Multiplicity = 1

 SCF Done:  E(RB3LYP) =  -1238.24284205     A.U. after   14 cycles
 SCF Done:  E(RB3LYP) =  -1238.23437727     A.U. after   15 cycles
 SCF Done:  E(RB3LYP) =  -1238.24677109     A.U. after   13 cycles
 SCF Done:  E(RB3LYP) =  -1238.21498836     A.U. after   15 cycles
 SCF Done:  E(RB3LYP) =  -1238.25161556     A.U. after   13 cycles
 SCF Done:  E(RB3LYP) =  -1238.25094330     A.U. after   13 cycles
 SCF Done:  E(RB3LYP) =  -1238.25371259     A.U. after   12 cycles
 SCF Done:  E(RB3LYP) =  -1238.25468201     A.U. after   12 cycles
 SCF Done:  E(RB3LYP) =  -1238.25510331     A.U. after   13 cycles
 SCF Done:  E(RB3LYP) =  -1238.25488845     A.U. after   12 cycles
 SCF Done:  E(RB3LYP) =  -1238.25607741     A.U. after    9 cycles
 SCF Done:  E(RB3LYP) =  -1238.25607918     A.U. after    9 cycles
 SCF Done:  E(RB3LYP) =  -1238.25607981     A.U. after    8 cycles
 SCF Done:  E(RB3LYP) =  -1238.25608011     A.U. after    7 cycles
 SCF Done:  E(RB3LYP) =  -1238.25608020     A.U. after    7 cycles
 Optimization completed.
    -- Stationary point found.
 Normal termination of Gaussian 16 at Sun Dec 13 12:53:00 2020.

 --------------------------------------------------------------------
 #N Geom=AllCheck Guess=TCheck SCRF=Check GenChk RB3LYP/6-31G(d) Freq
 --------------------------------------------------------------------

 Structure from the checkpoint file:  "JID_9448.chk"
 ------------------------------
 CID_81648735_JID_9448_neutraal
 ------------------------------
 Charge =  0 Multiplicity = 1

 SCF Done:  E(RB3LYP) =  -1238.25608020     A.U. after    1 cycles

  Exact polarizability: 204.415   4.112 152.729   7.721  -9.325 153.114
 Approx polarizability: 269.786  12.759 245.505  21.608 -16.678 240.736

                      1                      2                      3
                      A                      A                      A
 Frequencies --     24.0588                43.2914                53.6221
 Red. masses --      4.3833                 2.8444                 4.6804
 Frc consts  --      0.0015                 0.0031                 0.0079
 IR Inten    --      1.2991                 0.9688                 0.0947

                      4                      5                      6
                      A                      A                      A
 Frequencies --     72.3764                84.5622                93.0236
 Red. masses --      4.2951                 5.4637                 7.2774
 Frc consts  --      0.0133                 0.0230                 0.0371
 IR Inten    --      3.8933                 0.3412                 2.8224

                      7                      8                      9
                      A                      A                      A
 Frequencies --    104.8096               144.6678               149.3236
 Red. masses --      4.0535                 4.1429                 4.4787
 Frc consts  --      0.0262                 0.0511                 0.0588
 IR Inten    --      0.4905                 0.7920                 6.1892

                     10                     11                     12
                      A                      A                      A
 Frequencies --    166.3546               197.1114               211.4356
 Red. masses --      4.3308                 3.7548                 4.0122
 Frc consts  --      0.0706                 0.0860                 0.1057
 IR Inten    --      6.0102                 7.1989                 0.9070

                     13                     14                     15
                      A                      A                      A
 Frequencies --    223.7175               234.7938               237.8503
 Red. masses --      1.1557                 2.4291                 1.1709
 Frc consts  --      0.0341                 0.0789                 0.0390
 IR Inten    --      0.0819                 2.6901                 0.3432

                     16                     17                     18
                      A                      A                      A
 Frequencies --    249.6294               259.8691               267.8126
 Red. masses --      3.2602                 1.1647                 1.1229
 Frc consts  --      0.1197                 0.0463                 0.0475
 IR Inten    --      4.4358                 0.3774                 0.6314

                     19                     20                     21
                      A                      A                      A
 Frequencies --    294.4215               307.7900               324.7008
 Red. masses --      2.6091                 3.3504                 3.5464
 Frc consts  --      0.1333                 0.1870                 0.2203
 IR Inten    --      2.6834                 7.0911                 3.3820

                     22                     23                     24
                      A                      A                      A
 Frequencies --    342.7811               352.8518               374.2257
 Red. masses --      2.9625                 2.2865                 2.8801
 Frc consts  --      0.2051                 0.1677                 0.2376
 IR Inten    --      3.0558                 1.5082                 1.5618

                     25                     26                     27
                      A                      A                      A
 Frequencies --    391.4727               441.7864               475.4486
 Red. masses --      2.9208                 4.6171                 2.9014
 Frc consts  --      0.2637                 0.5309                 0.3864
 IR Inten    --      4.6150                 0.8487                 4.3966

                     28                     29                     30
                      A                      A                      A
 Frequencies --    484.2548               504.3435               524.2571
 Red. masses --      3.7316                 3.5673                 2.9049
 Frc consts  --      0.5156                 0.5346                 0.4704
 IR Inten    --      3.3787                 3.2678                18.9722

                     31                     32                     33
                      A                      A                      A
 Frequencies --    526.0777               534.2015               629.5302
 Red. masses --      3.3266                 2.9438                 3.3236
 Frc consts  --      0.5424                 0.4950                 0.7761
 IR Inten    --     13.3190                 4.0302                15.1550

                     34                     35                     36
                      A                      A                      A
 Frequencies --    654.1676               669.8196               689.1535
 Red. masses --      2.8679                 1.5719                 4.1528
 Frc consts  --      0.7231                 0.4155                 1.1621
 IR Inten    --      5.3385                91.8431                 8.2460

                     37                     38                     39
                      A                      A                      A
 Frequencies --    715.4635               756.6967               768.4256
 Red. masses --      7.3839                 1.3566                 2.9825
 Frc consts  --      2.2270                 0.4577                 1.0376
 IR Inten    --     15.6234               136.2303                11.8350

                     40                     41                     42
                      A                      A                      A
 Frequencies --    783.6850               829.0840               840.5182
 Red. masses --      3.0834                 1.4187                 4.1327
 Frc consts  --      1.1157                 0.5746                 1.7202
 IR Inten    --     66.6796                 6.9122                 2.9323

                     43                     44                     45
                      A                      A                      A
 Frequencies --    901.5360               904.2018               912.8500
 Red. masses --      2.0387                 2.5043                 2.2131
 Frc consts  --      0.9763                 1.2064                 1.0866
 IR Inten    --     11.2770                 3.4345                 2.4146

                     46                     47                     48
                      A                      A                      A
 Frequencies --    942.5992               954.0327               956.2689
 Red. masses --      1.6192                 1.2375                 1.9748
 Frc consts  --      0.8476                 0.6636                 1.0640
 IR Inten    --      0.7172                 3.8754                12.3241

                     49                     50                     51
                      A                      A                      A
 Frequencies --    966.1663               969.6739               986.8120
 Red. masses --      1.3623                 1.4348                 6.2985
 Frc consts  --      0.7493                 0.7949                 3.6137
 IR Inten    --      0.2887                 0.5932                 3.0505

                     52                     53                     54
                      A                      A                      A
 Frequencies --   1020.7802              1059.8232              1074.5716
 Red. masses --      1.4198                 1.6201                 6.0686
 Frc consts  --      0.8716                 1.0721                 4.1287
 IR Inten    --      4.2069                 4.8954                 2.9765

                     55                     56                     57
                      A                      A                      A
 Frequencies --   1102.8156              1114.3315              1118.7899
 Red. masses --      4.7504                 1.9418                 2.3976
 Frc consts  --      3.4040                 1.4206                 1.7681
 IR Inten    --     59.8593                19.3008                 4.9529

                     58                     59                     60
                      A                      A                      A
 Frequencies --   1155.7202              1170.7686              1209.5090
 Red. masses --      3.0933                 2.2207                 2.2958
 Frc consts  --      2.4343                 1.7934                 1.9788
 IR Inten    --      3.2407                16.7283                 7.6447

                     61                     62                     63
                      A                      A                      A
 Frequencies --   1210.5416              1217.5032              1232.0816
 Red. masses --      1.8302                 1.2220                 1.8953
 Frc consts  --      1.5802                 1.0673                 1.6952
 IR Inten    --      5.6064                 7.7675                68.7395

                     64                     65                     66
                      A                      A                      A
 Frequencies --   1233.9362              1263.1417              1303.1199
 Red. masses --      1.8345                 1.9989                 1.7948
 Frc consts  --      1.6457                 1.8790                 1.7957
 IR Inten    --     17.5385                10.8239               110.2879

                     67                     68                     69
                      A                      A                      A
 Frequencies --   1316.4382              1321.7325              1336.8736
 Red. masses --      1.2510                 3.6833                 1.4399
 Frc consts  --      1.2773                 3.7912                 1.5162
 IR Inten    --      2.3067                17.5894                13.3923

                     70                     71                     72
                      A                      A                      A
 Frequencies --   1370.1877              1378.9294              1382.6666
 Red. masses --      1.4409                 6.9415                 1.2388
 Frc consts  --      1.5939                 7.7766                 1.3953
 IR Inten    --      0.9176                20.8185                31.9920

                     73                     74                     75
                      A                      A                      A
 Frequencies --   1395.0018              1426.2253              1427.1187
 Red. masses --      1.3209                 1.4470                 2.1783
 Frc consts  --      1.5145                 1.7342                 2.6138
 IR Inten    --     15.8167                13.2936                17.1987

                     76                     77                     78
                      A                      A                      A
 Frequencies --   1430.6508              1433.0254              1445.2910
 Red. masses --      1.3649                 1.5766                 1.2401
 Frc consts  --      1.6460                 1.9076                 1.5262
 IR Inten    --     14.3426                54.6814                 7.4679

                     79                     80                     81
                      A                      A                      A
 Frequencies --   1449.2243              1476.5389              1487.6285
 Red. masses --      1.2864                 2.0247                 1.1157
 Frc consts  --      1.5918                 2.6008                 1.4547
 IR Inten    --     10.1436                13.9177                15.4785

                     82                     83                     84
                      A                      A                      A
 Frequencies --   1501.7475              1506.4150              1514.8074
 Red. masses --      1.4180                 1.6966                 1.0538
 Frc consts  --      1.8841                 2.2684                 1.4248
 IR Inten    --     21.9114                60.8764                 3.3167

                     85                     86                     87
                      A                      A                      A
 Frequencies --   1515.2521              1519.7194              1526.3099
 Red. masses --      1.0566                 1.0608                 1.0840
 Frc consts  --      1.4293                 1.4435                 1.4879
 IR Inten    --      0.0511                 4.0727                 1.7803

                     88                     89                     90
                      A                      A                      A
 Frequencies --   1528.6864              1528.8577              1531.9813
 Red. masses --      1.7042                 1.1582                 1.0583
 Frc consts  --      2.3464                 1.5950                 1.4634
 IR Inten    --     31.0912                 7.1844                 4.1656

                     91                     92                     93
                      A                      A                      A
 Frequencies --   1533.9094              1538.7259              1545.9600
 Red. masses --      1.3581                 1.1303                 1.0839
 Frc consts  --      1.8827                 1.5767                 1.5262
 IR Inten    --     16.5205                14.5459                 3.7483

                     94                     95                     96
                      A                      A                      A
 Frequencies --   1553.0840              1769.5532              2996.1847
 Red. masses --      1.0752                 7.6557                 1.0643
 Frc consts  --      1.5280                14.1242                 5.6292
 IR Inten    --     13.3192               374.0771                52.4077

                     97                     98                     99
                      A                      A                      A
 Frequencies --   3040.1718              3043.7056              3046.5934
 Red. masses --      1.0482                 1.0814                 1.0452
 Frc consts  --      5.7080                 5.9025                 5.7159
 IR Inten    --     14.3677                61.0228                 6.1888

                    100                    101                    102
                      A                      A                      A
 Frequencies --   3053.7292              3056.1253              3059.2223
 Red. masses --      1.0360                 1.0677                 1.0393
 Frc consts  --      5.6919                 5.8755                 5.7306
 IR Inten    --     14.4388                65.4763                25.3585

                    103                    104                    105
                      A                      A                      A
 Frequencies --   3079.7742              3104.2988              3108.0967
 Red. masses --      1.0618                 1.1018                 1.1011
 Frc consts  --      5.9337                 6.2559                 6.2673
 IR Inten    --     11.8826                41.1117                16.6334

                    106                    107                    108
                      A                      A                      A
 Frequencies --   3115.8241              3117.5595              3121.7612
 Red. masses --      1.1007                 1.0952                 1.1007
 Frc consts  --      6.2960                 6.2713                 6.3201
 IR Inten    --     40.0682                21.5214                 2.5264

                    109                    110                    111
                      A                      A                      A
 Frequencies --   3135.1754              3138.3742              3144.6636
 Red. masses --      1.1031                 1.1007                 1.0911
 Frc consts  --      6.3885                 6.3875                 6.3572
 IR Inten    --     22.1442                15.4104                17.6622

                    112                    113                    114
                      A                      A                      A
 Frequencies --   3149.7429              3163.0115              3165.7859
 Red. masses --      1.1029                 1.1020                 1.0918
 Frc consts  --      6.4468                 6.4956                 6.4471
 IR Inten    --     16.2358                 6.9540                15.5888

                    115                    116                    117
                      A                      A                      A
 Frequencies --   3292.2921              3469.0182              3588.6978
 Red. masses --      1.0981                 1.0676                 1.0751
 Frc consts  --      7.0125                 7.5695                 8.1577
 IR Inten    --      0.3866               572.3163                15.8438

 - Thermochemistry -
 -------------------
 Temperature   298.150 Kelvin.  Pressure   1.00000 Atm.
 Atom     1 has atomic number  6 and mass  12.00000

 Molecular mass:   286.14635 amu.
 Principal axes and moments of inertia in atomic units:
                           1         2         3
     Eigenvalues --  3039.221938036.561508357.24156
           X            0.99995   0.00651   0.00706
           Y           -0.00632   0.99963  -0.02655
           Z           -0.00723   0.02651   0.99962
 This molecule is an asymmetric top.
 Rotational symmetry number  1.
 Warning -- assumption of classical behavior for rotation
           may cause significant error
 Rotational temperatures (Kelvin)      0.02850     0.01078     0.01036
 Rotational constants (GHZ):           0.59382     0.22457     0.21595
 Zero-point vibrational energy     920510.8 (Joules/Mol)
                                  220.00737 (Kcal/Mol)
 Warning -- explicit consideration of  32 degrees of freedom as
           vibrations may cause significant error
 Vibrational temperatures:     34.62    62.29    77.15   104.13   121.67
          (Kelvin)            133.84   150.80   208.14   214.84   239.35
                              283.60   304.21   321.88   337.82   342.21
                              359.16   373.89   385.32   423.61   442.84
                              467.17   493.19   507.68   538.43   563.24
                              635.63   684.06   696.73   725.64   754.29
                              756.91   768.60   905.75   941.20   963.72
                              991.54  1029.39  1088.72  1105.59  1127.55
                             1192.87  1209.32  1297.11  1300.94  1313.39
                             1356.19  1372.64  1375.86  1390.10  1395.14
                             1419.80  1468.67  1524.85  1546.07  1586.71
                             1603.27  1609.69  1662.82  1684.47  1740.21
                             1741.70  1751.72  1772.69  1775.36  1817.38
                             1874.90  1894.06  1901.68  1923.46  1971.39
                             1983.97  1989.35  2007.10  2052.02  2053.31
                             2058.39  2061.80  2079.45  2085.11  2124.41
                             2140.37  2160.68  2167.40  2179.47  2180.11
                             2186.54  2196.02  2199.44  2199.69  2204.18
                             2206.95  2213.88  2224.29  2234.54  2545.99
                             4310.84  4374.13  4379.21  4383.37  4393.64
                             4397.08  4401.54  4431.11  4466.39  4471.86
                             4482.98  4485.47  4491.52  4510.82  4515.42
                             4524.47  4531.78  4550.87  4554.86  4736.87
                             4991.14  5163.34

 Zero-point correction=                           0.350604 (Hartree/Particle)
 Thermal correction to Energy=                    0.371114
 Thermal correction to Enthalpy=                  0.372059
 Thermal correction to Gibbs Free Energy=         0.301606
 Sum of electronic and zero-point Energies=          -1237.905476
 Sum of electronic and thermal Energies=             -1237.884966
 Sum of electronic and thermal Enthalpies=           -1237.884022
 Sum of electronic and thermal Free Energies=        -1237.954474

                     E (Thermal)             CV                S
                      KCal/Mol        Cal/Mol-Kelvin    Cal/Mol-Kelvin
 Total                  232.878             77.362            148.280
 Electronic               0.000              0.000              0.000
 Translational            0.889              2.981             42.852
 Rotational               0.889              2.981             33.678
 Vibrational            231.100             71.400             71.750
 Vibration     1          0.593              1.985              6.267
 Vibration     2          0.595              1.980              5.102
 Vibration     3          0.596              1.976              4.679
 Vibration     4          0.598              1.967              4.088
 Vibration     5          0.601              1.960              3.782
 Vibration     6          0.602              1.954              3.595
 Vibration     7          0.605              1.945              3.363
 Vibration     8          0.616              1.908              2.741
 Vibration     9          0.618              1.903              2.681
 Vibration    10          0.624              1.884              2.476
 Vibration    11          0.636              1.844              2.160
 Vibration    12          0.643              1.823              2.031
 Vibration    13          0.649              1.805              1.929
 Vibration    14          0.655              1.788              1.842
 Vibration    15          0.656              1.783              1.819
 Vibration    16          0.662              1.763              1.733
 Vibration    17          0.668              1.746              1.663
 Vibration    18          0.673              1.732              1.610
 Vibration    19          0.689              1.684              1.448
 Vibration    20          0.698              1.659              1.374
 Vibration    21          0.709              1.626              1.286
 Vibration    22          0.722              1.590              1.199
 Vibration    23          0.729              1.569              1.153
 Vibration    24          0.745              1.525              1.062
 Vibration    25          0.759              1.488              0.995
 Vibration    26          0.802              1.379              0.821
 Vibration    27          0.832              1.305              0.722
 Vibration    28          0.840              1.285              0.699
 Vibration    29          0.860              1.240              0.647
 Vibration    30          0.879              1.196              0.600
 Vibration    31          0.881              1.192              0.596
 Vibration    32          0.889              1.174              0.578

                           ! Non-Optimized Parameters !
 Normal termination of Gaussian 16 at Sun Dec 13 13:16:19 2020.

 ----------------------------------------------------------------------
 # B3LYP/6-311++G(d,p) empiricaldispersion=gd3bj scf=xqc pop=npa geom=c
 heck
 ----------------------------------------------------------------------

 --------------------------------------
 CID_81648735_JID_9448_Energie_neutraal
 --------------------------------------
 Structure from the checkpoint file:  "JID_9448.chk"
 Charge =  0 Multiplicity = 1

 SCF Done:  E(RB3LYP) =  -1238.52699681     A.U. after   14 cycles
 Normal termination of Gaussian 16 at Sun Dec 13 13:26:40 2020.

 ----------------------------------------------------------------------
 # B3LYP/6-311++G(d,p) empiricaldispersion=gd3bj scf=xqc pop=npa geom=c
 heck
 ----------------------------------------------------------------------

 ------------------------------------
 CID_81648735_JID_9448_Energie_kation
 ------------------------------------
 Structure from the checkpoint file:  "JID_9448.chk"
 Charge =  1 Multiplicity = 2

 SCF Done:  E(UB3LYP) =  -1238.21332223     A.U. after   31 cycles
 Normal termination of Gaussian 16 at Sun Dec 13 13:59:57 2020.
 Gaussian 16:  ES64L-G16RevA.03 25-Dec-2016

 ----------------------------------------------------------------------
 # B3LYP/6-311++G(d,p) empiricaldispersion=gd3bj scf=xqc pop=npa geom=c
 heck
 ----------------------------------------------------------------------

 -----------------------------------
 CID_81648735_JID_9448_Energie_anion
 -----------------------------------
 Structure from the checkpoint file:  "JID_9448.chk"
 Charge = -1 Multiplicity = 2

                         Standard orientation:
 ---------------------------------------------------------------------
 Center     Atomic      Atomic             Coordinates (Angstroms)
 Number     Number       Type             X           Y           Z
 ---------------------------------------------------------------------
      1          6           0        3.172511    0.617496    2.136150
      2          6           0        3.302693    0.384835    0.631698
      3          6           0        4.720242    0.014803    0.192978
      4          7           0        2.351474   -0.654843    0.193026
      5          6           0        2.101322   -1.863321    0.775978
      6          7           0        1.137952   -2.504020    0.150550
      7          7           0        0.748029   -1.703955   -0.899572
      8          6           0        1.476104   -0.599537   -0.863712
      9         16           0        1.338111    0.767939   -1.963469
     10          6           0       -0.333641    1.326010   -1.464749
     11          6           0       -0.425774    1.684273    0.021596
     12          8           0        0.555740    1.980126    0.697788
     13          7           0       -1.679548    1.688785    0.556520
     14          6           0       -2.933625    1.198627   -0.006096
     15          6           0       -3.362549   -0.204916    0.488634
     16          6           0       -3.599301   -0.178640    2.006442
     17          6           0       -4.662542   -0.575268   -0.241566
     18          6           0       -2.276765   -1.246434    0.184424
     19          8           0       -2.029247   -1.314440   -1.210546
     20          1           0        3.481904   -0.259855    2.715853
     21          1           0        2.140947    0.877232    2.383867
     22          1           0        3.818332    1.451772    2.427454
     23          1           0        2.973303    1.289327    0.118153
     24          1           0        5.055012   -0.909471    0.677914
     25          1           0        4.769551   -0.128802   -0.891044
     26          1           0        5.416238    0.814357    0.466700
     27          1           0        2.634229   -2.230338    1.640245
     28          1           0       -0.543200    2.214539   -2.070890
     29          1           0       -1.042845    0.540610   -1.727736
     30          1           0       -1.675827    1.927257    1.541233
     31          1           0       -3.720155    1.919604    0.249536
     32          1           0       -2.853965    1.191563   -1.092605
     33          1           0       -4.372313    0.552976    2.271000
     34          1           0       -3.933078   -1.158821    2.364128
     35          1           0       -2.685032    0.074615    2.556925
     36          1           0       -4.488661   -0.662664   -1.317830
     37          1           0       -5.041899   -1.538619    0.117147
     38          1           0       -5.442290    0.177227   -0.070410
     39          1           0       -1.358792   -0.988741    0.731250
     40          1           0       -2.612869   -2.223281    0.567801
     41          1           0       -1.117724   -1.672341   -1.315447
 ---------------------------------------------------------------------

 SCF Done:  E(UB3LYP) =  -1238.51787433     A.U. after   33 cycles
 SCF Done:  E(UB3LYP) =  -1238.51787433     a.u. after    1 cycles

 The electronic state is 2-A.
 Alpha  occ. eigenvalues --  -88.77253 -19.01329 -19.00056 -14.29594 -14.24858
 Alpha  occ. eigenvalues --  -14.24350 -14.24293 -10.19029 -10.16869 -10.14727
 Alpha  occ. eigenvalues --  -10.13869 -10.11689 -10.11675 -10.11521 -10.09591
 Alpha  occ. eigenvalues --  -10.08781 -10.07868 -10.07236 -10.06987  -7.85835
 Alpha  occ. eigenvalues --   -5.82265  -5.81873  -5.81163  -0.98258  -0.95179
 Alpha  occ. eigenvalues --   -0.91799  -0.84744  -0.83689  -0.75231  -0.72783
 Alpha  occ. eigenvalues --   -0.70838  -0.69488  -0.61553  -0.61515  -0.60560
 Alpha  occ. eigenvalues --   -0.59651  -0.57991  -0.56619  -0.53401  -0.50021
 Alpha  occ. eigenvalues --   -0.47447  -0.45905  -0.42919  -0.41952  -0.40736
 Alpha  occ. eigenvalues --   -0.40573  -0.39723  -0.39060  -0.38494  -0.36840
 Alpha  occ. eigenvalues --   -0.36362  -0.35865  -0.34186  -0.33005  -0.32683
 Alpha  occ. eigenvalues --   -0.32213  -0.31529  -0.31096  -0.30818  -0.29820
 Alpha  occ. eigenvalues --   -0.29427  -0.28690  -0.27754  -0.27554  -0.27236
 Alpha  occ. eigenvalues --   -0.26277  -0.25767  -0.24801  -0.23843  -0.22432
 Alpha  occ. eigenvalues --   -0.20872  -0.19131  -0.18318  -0.17580  -0.17407
 Alpha  occ. eigenvalues --   -0.16534  -0.15330   0.03816
 Alpha virt. eigenvalues --    0.05190   0.06142   0.06897   0.07522   0.07690
 Alpha virt. eigenvalues --    0.07959   0.08188   0.09267   0.09638   0.09823
 Alpha virt. eigenvalues --    0.09949   0.10222   0.10882   0.11098   0.11402

  Beta  occ. eigenvalues --  -88.77249 -19.01325 -19.00050 -14.29559 -14.24838
  Beta  occ. eigenvalues --  -14.24313 -14.24292 -10.19029 -10.16830 -10.14707
  Beta  occ. eigenvalues --  -10.13868 -10.11664 -10.11611 -10.11515 -10.09589
  Beta  occ. eigenvalues --  -10.08751 -10.07844 -10.07203 -10.06974  -7.85831
  Beta  occ. eigenvalues --   -5.82252  -5.81869  -5.81161  -0.98208  -0.95168
  Beta  occ. eigenvalues --   -0.91794  -0.84686  -0.83658  -0.75150  -0.72762
  Beta  occ. eigenvalues --   -0.70805  -0.69414  -0.61500  -0.61466  -0.60502
  Beta  occ. eigenvalues --   -0.59593  -0.57962  -0.56578  -0.53349  -0.49954
  Beta  occ. eigenvalues --   -0.47404  -0.45861  -0.42884  -0.41917  -0.40696
  Beta  occ. eigenvalues --   -0.40532  -0.39641  -0.39018  -0.38435  -0.36802
  Beta  occ. eigenvalues --   -0.36316  -0.35838  -0.34128  -0.32957  -0.32645
  Beta  occ. eigenvalues --   -0.32183  -0.31490  -0.31061  -0.30769  -0.29791
  Beta  occ. eigenvalues --   -0.29395  -0.28658  -0.27706  -0.27523  -0.27182
  Beta  occ. eigenvalues --   -0.26194  -0.25743  -0.24773  -0.23805  -0.22416
  Beta  occ. eigenvalues --   -0.20712  -0.19053  -0.18244  -0.17558  -0.17384
  Beta  occ. eigenvalues --   -0.16509  -0.15281
  Beta virt. eigenvalues --    0.05834   0.06119   0.06815   0.07331   0.08071
  Beta virt. eigenvalues --    0.08124   0.08370   0.08467   0.09511   0.09820
  Beta virt. eigenvalues --    0.10060   0.10275   0.10420   0.11042   0.11189

 Mulliken charges and spin densities:
               1          2
     1  C    0.320026  -0.844268
     2  C   -1.264823   1.055092
     3  C    0.459153  -0.966400
     4  N    0.300472  -0.038637
     5  C    0.209389  -0.142907
     6  N   -0.189573  -0.021138
     7  N    0.090972   0.015613
     8  C   -0.213518  -0.020856
     9  S    0.622660  -0.453917
    10  C    0.649287  -1.115875
    11  C   -0.838375   0.482749
    12  O   -0.264965   0.002104
    13  N   -0.048740   0.034477
    14  C    0.314335  -1.155054
    15  C   -0.777990   1.620545
    16  C    0.889551  -1.434163
    17  C   -0.282200  -0.070351
    18  C   -0.297609  -0.494421
    19  O   -0.248440   0.003437
    20  H   -0.111822   0.242641
    21  H    0.058010   0.140272
    22  H   -0.124417   0.274734
    23  H    0.196209   0.002174
    24  H   -0.077101   0.237657
    25  H    0.070767   0.081076
    26  H   -0.229418   0.385380
    27  H   -0.152275   0.339829
    28  H   -0.428338   0.707741
    29  H    0.305750  -0.047046
    30  H   -0.117581   0.426163
    31  H   -0.592259   0.801032
    32  H    0.216028  -0.039817
    33  H   -0.263372   0.432308
    34  H   -0.069315   0.212521
    35  H   -0.008433   0.136148
    36  H    0.108741   0.057257
    37  H    0.065498   0.078066
    38  H   -0.029906   0.170109
    39  H    0.184922  -0.067203
    40  H    0.202577  -0.033257
    41  H    0.366123   0.006181
 Sum of Mulliken charges =  -1.00000   1.00000

 Dipole moment (field-independent basis, Debye):
    X=              1.2770    Y=             -2.0218    Z=             -1.9071  Tot=              3.0587
 Quadrupole moment (field-independent basis, Debye-Ang):
   XX=           -205.6682   YY=           -173.8513   ZZ=           -166.7539
   XY=              6.1749   XZ=             -1.1852   YZ=             -4.3569

 Summary of Natural Population Analysis:

                                       Natural Population
                Natural  -----------------------------------------------
    Atom  No    Charge         Core      Valence    Rydberg      Total
 -----------------------------------------------------------------------
      C    1   -0.28930      0.99964     2.28409    0.00557     3.28930
      C    2   -0.01470      0.99959     2.00399    0.01112     3.01470
      C    3   -0.28643      0.99964     2.28155    0.00524     3.28643
      N    4   -0.20630      0.99958     2.69411    0.01261     3.70630
      C    5    0.10037      0.99963     1.88392    0.01607     2.89963
      N    6   -0.15866      0.99973     2.64659    0.01233     3.65866
      N    7   -0.18941      0.99964     2.67330    0.01647     3.68941
      C    8    0.11478      0.99954     1.86538    0.02031     2.88522
      S    9    0.13108      4.99954     2.85037    0.01901     7.86892
      C   10   -0.29491      0.99952     2.28464    0.01074     3.29491
      C   11    0.33859      0.99964     1.63855    0.02322     2.66141
      O   12   -0.32984      0.99987     3.32380    0.00616     4.32984
      N   13   -0.31384      0.99966     2.80300    0.01118     3.81384
      C   14   -0.08717      0.99954     2.07417    0.01346     3.08717
      C   15   -0.05989      0.99957     2.04814    0.01218     3.05989
      C   16   -0.28824      0.99962     2.28116    0.00745     3.28824
      C   17   -0.28677      0.99962     2.28012    0.00703     3.28677
      C   18   -0.01098      0.99951     1.99796    0.01351     3.01098
      O   19   -0.39291      0.99989     3.38718    0.00584     4.39291
      H   20    0.09487      0.00000     0.40396    0.00117     0.40513
      H   21    0.11710      0.00000     0.38143    0.00147     0.38290
      H   22    0.10408      0.00000     0.39510    0.00082     0.39592
      H   23    0.12055      0.00000     0.37745    0.00200     0.37945
      H   24    0.09879      0.00000     0.40026    0.00095     0.40121
      H   25    0.10193      0.00000     0.39733    0.00074     0.39807
      H   26    0.10486      0.00000     0.39418    0.00096     0.39514
      H   27    0.10095      0.00000     0.39754    0.00151     0.39905
      H   28    0.12035      0.00000     0.37806    0.00159     0.37965
      H   29    0.12840      0.00000     0.36926    0.00235     0.37160
      H   30    0.19701      0.00000     0.29998    0.00301     0.30299
      H   31    0.10109      0.00000     0.39706    0.00185     0.39891
      H   32    0.10647      0.00000     0.39175    0.00179     0.39353
      H   33    0.10297      0.00000     0.39579    0.00123     0.39703
      H   34    0.10162      0.00000     0.39746    0.00092     0.39838
      H   35    0.10100      0.00000     0.39770    0.00130     0.39900
      H   36    0.10803      0.00000     0.39097    0.00100     0.39197
      H   37    0.09967      0.00000     0.39960    0.00073     0.40033
      H   38    0.09885      0.00000     0.40029    0.00085     0.40115
      H   39    0.08530      0.00000     0.41296    0.00174     0.41470
      H   40    0.07903      0.00000     0.41973    0.00123     0.42097
      H   41    0.25162      0.00000     0.24521    0.00317     0.24838
 =======================================================================
   * Total *   -0.00000     22.99300    53.74509    0.26192    77.00000

 Normal termination of Gaussian 16 at Sun Dec 13 14:32:55 2020.
