 Gaussian 16, Revision A.03,

 -----------------------------------------------------------
 # opt freq B3LYP/6-31G(d) empiricaldispersion=gd3bj scf=xqc
 -----------------------------------------------------------

 ------------------------------
 CID_43610367_JID_7312_neutraal
 ------------------------------
 Symbolic Z-matrix:
 Charge =  0 Multiplicity = 1

 SCF Done:  E(RB3LYP) =  -876.397352413     A.U. after   15 cycles
 SCF Done:  E(RB3LYP) =  -876.408892206     A.U. after   13 cycles
 SCF Done:  E(RB3LYP) =  -876.408070487     A.U. after   15 cycles
 SCF Done:  E(RB3LYP) =  -876.411042891     A.U. after   13 cycles
 SCF Done:  E(RB3LYP) =  -876.411568458     A.U. after   13 cycles
 SCF Done:  E(RB3LYP) =  -876.412331477     A.U. after   13 cycles
 SCF Done:  E(RB3LYP) =  -876.413016941     A.U. after   13 cycles
 SCF Done:  E(RB3LYP) =  -876.413612329     A.U. after   11 cycles
 SCF Done:  E(RB3LYP) =  -876.414039030     A.U. after   13 cycles
 SCF Done:  E(RB3LYP) =  -876.414132249     A.U. after   12 cycles
 SCF Done:  E(RB3LYP) =  -876.414646031     A.U. after    9 cycles
 SCF Done:  E(RB3LYP) =  -876.414647872     A.U. after    9 cycles
 SCF Done:  E(RB3LYP) =  -876.414648716     A.U. after    8 cycles
 SCF Done:  E(RB3LYP) =  -876.414649669     A.U. after    8 cycles
 SCF Done:  E(RB3LYP) =  -876.414649898     A.U. after    7 cycles
 Optimization completed.
    -- Stationary point found.
 Normal termination of Gaussian 16 at Sun Dec 13 16:14:43 2020.

 --------------------------------------------------------------------
 #N Geom=AllCheck Guess=TCheck SCRF=Check GenChk RB3LYP/6-31G(d) Freq
 --------------------------------------------------------------------

 Structure from the checkpoint file:  "JID_7312.chk"
 ------------------------------
 CID_43610367_JID_7312_neutraal
 ------------------------------
 Charge =  0 Multiplicity = 1

 SCF Done:  E(RB3LYP) =  -876.414649897     A.U. after    1 cycles

  Exact polarizability: 135.559  10.106 117.381   1.017   0.071 122.599
 Approx polarizability: 179.742  24.737 183.778  -4.088   6.955 191.323

                      1                      2                      3
                      A                      A                      A
 Frequencies --     14.1320                39.3540                58.8925
 Red. masses --      5.0428                 5.8128                 4.1329
 Frc consts  --      0.0006                 0.0053                 0.0084
 IR Inten    --      0.3230                 1.0385                 0.3890

                      4                      5                      6
                      A                      A                      A
 Frequencies --     63.7273                80.4238                97.6836
 Red. masses --     10.7202                10.4449                 5.3203
 Frc consts  --      0.0257                 0.0398                 0.0299
 IR Inten    --      4.5298                 1.7012                 1.9426

                      7                      8                      9
                      A                      A                      A
 Frequencies --    115.9266               122.5294               152.3642
 Red. masses --      6.0769                 4.6032                 5.9195
 Frc consts  --      0.0481                 0.0407                 0.0810
 IR Inten    --     11.1610                 3.6155                 1.0513

                     10                     11                     12
                      A                      A                      A
 Frequencies --    180.1893               230.9512               234.2118
 Red. masses --      4.7596                 3.5192                 2.8662
 Frc consts  --      0.0911                 0.1106                 0.0926
 IR Inten    --      3.4815                 3.6246                 0.0488

                     13                     14                     15
                      A                      A                      A
 Frequencies --    283.7724               304.0422               386.1252
 Red. masses --      3.6460                 3.0206                 2.5791
 Frc consts  --      0.1730                 0.1645                 0.2266
 IR Inten    --      1.1718                 1.3977                11.0246

                     16                     17                     18
                      A                      A                      A
 Frequencies --    397.7958               430.4135               440.9544
 Red. masses --      2.1428                 2.4750                 2.5485
 Frc consts  --      0.1998                 0.2701                 0.2920
 IR Inten    --      2.4344                 3.4834                 5.3287

                     19                     20                     21
                      A                      A                      A
 Frequencies --    453.9618               498.5725               516.0600
 Red. masses --      4.3027                 3.2473                 3.3450
 Frc consts  --      0.5224                 0.4756                 0.5249
 IR Inten    --     10.1874                 2.7551                 7.3179

                     22                     23                     24
                      A                      A                      A
 Frequencies --    560.2033               569.3839               580.1660
 Red. masses --      2.4151                 2.4084                 3.0390
 Frc consts  --      0.4466                 0.4600                 0.6027
 IR Inten    --     36.5903                23.2458                18.4048

                     25                     26                     27
                      A                      A                      A
 Frequencies --    583.0687               644.0061               662.0248
 Red. masses --      1.5773                 1.8069                 1.9128
 Frc consts  --      0.3159                 0.4415                 0.4939
 IR Inten    --    159.0085               117.2036                44.0222

                     28                     29                     30
                      A                      A                      A
 Frequencies --    688.8777               741.9275               778.1816
 Red. masses --      2.3204                 3.9751                 3.8544
 Frc consts  --      0.6488                 1.2892                 1.3752
 IR Inten    --     10.6324                12.3923                38.5233

                     31                     32                     33
                      A                      A                      A
 Frequencies --    779.9091               818.5731               822.4794
 Red. masses --      3.1306                 3.1196                 1.7265
 Frc consts  --      1.1219                 1.2316                 0.6881
 IR Inten    --     98.3403                35.9254                 3.6729

                     34                     35                     36
                      A                      A                      A
 Frequencies --    838.9768               846.5892               890.8611
 Red. masses --      3.1455                 3.3859                 2.5068
 Frc consts  --      1.3045                 1.4298                 1.1722
 IR Inten    --     17.3144                 5.8524                 0.2993

                     37                     38                     39
                      A                      A                      A
 Frequencies --    905.1923               957.5840               976.9885
 Red. masses --      2.8318                 2.7841                 2.6318
 Frc consts  --      1.3671                 1.5041                 1.4801
 IR Inten    --     15.3770                10.1817                 7.3904

                     40                     41                     42
                      A                      A                      A
 Frequencies --    994.2608              1024.4223              1035.5906
 Red. masses --      2.5307                 1.9435                 1.4772
 Frc consts  --      1.4740                 1.2017                 0.9334
 IR Inten    --      0.4153                12.3507                 0.9759

                     43                     44                     45
                      A                      A                      A
 Frequencies --   1049.6741              1054.8481              1074.2459
 Red. masses --      2.1267                 2.5681                 2.3800
 Frc consts  --      1.3806                 1.6836                 1.6182
 IR Inten    --     14.0091                 8.8581                13.6594

                     46                     47                     48
                      A                      A                      A
 Frequencies --   1108.2477              1139.9574              1152.1835
 Red. masses --      1.8262                 3.6771                 1.5072
 Frc consts  --      1.3215                 2.8154                 1.1789
 IR Inten    --     55.3042                15.4785                92.4764

                     49                     50                     51
                      A                      A                      A
 Frequencies --   1180.6845              1204.7844              1223.2093
 Red. masses --      2.7432                 1.6037                 1.2435
 Frc consts  --      2.2531                 1.3715                 1.0962
 IR Inten    --     33.2321               143.5881                 7.8350

                     52                     53                     54
                      A                      A                      A
 Frequencies --   1254.3627              1256.2539              1293.5836
 Red. masses --      1.4923                 1.4619                 1.4027
 Frc consts  --      1.3834                 1.3594                 1.3830
 IR Inten    --     42.1370                81.6901                97.0576

                     55                     56                     57
                      A                      A                      A
 Frequencies --   1303.8691              1334.4579              1342.2022
 Red. masses --      1.7438                 1.2844                 1.3579
 Frc consts  --      1.7467                 1.3476                 1.4413
 IR Inten    --     92.1264                10.8521                 3.7446

                     58                     59                     60
                      A                      A                      A
 Frequencies --   1345.8666              1367.0110              1380.1856
 Red. masses --      1.3780                 1.3590                 1.4027
 Frc consts  --      1.4707                 1.4963                 1.5743
 IR Inten    --      1.3819                 9.6995                35.5757

                     61                     62                     63
                      A                      A                      A
 Frequencies --   1390.5446              1401.2203              1412.3220
 Red. masses --      1.4711                 1.7822                 1.4679
 Frc consts  --      1.6760                 2.0617                 1.7251
 IR Inten    --    105.7850                43.5072                40.6916

                     64                     65                     66
                      A                      A                      A
 Frequencies --   1415.3077              1428.8527              1439.0720
 Red. masses --      1.8286                 2.9752                 1.4492
 Frc consts  --      2.1581                 3.5789                 1.7683
 IR Inten    --     29.3427               166.0792                10.0067

                     67                     68                     69
                      A                      A                      A
 Frequencies --   1447.1532              1494.0943              1497.1596
 Red. masses --      1.3533                 1.0959                 1.3795
 Frc consts  --      1.6698                 1.4413                 1.8219
 IR Inten    --      8.4170                 4.4212                32.0128

                     70                     71                     72
                      A                      A                      A
 Frequencies --   1507.5485              1509.9574              1514.9799
 Red. masses --      1.1034                 1.1162                 1.1500
 Frc consts  --      1.4775                 1.4994                 1.5551
 IR Inten    --      1.0074                 4.9907                32.4532

                     73                     74                     75
                      A                      A                      A
 Frequencies --   1530.4408              1540.5556              1798.8680
 Red. masses --      1.0851                 1.1053                 7.4331
 Frc consts  --      1.4975                 1.5455                14.1716
 IR Inten    --      0.5808                 3.6887               441.0111

                     76                     77                     78
                      A                      A                      A
 Frequencies --   1805.3017              1845.0160              2963.2138
 Red. masses --      8.7544                 9.6466                 1.0736
 Frc consts  --     16.8103                19.3475                 5.5539
 IR Inten    --    307.8749               251.6633                46.1016

                     79                     80                     81
                      A                      A                      A
 Frequencies --   2983.1041              3056.7964              3062.5271
 Red. masses --      1.0727                 1.0600                 1.0606
 Frc consts  --      5.6244                 5.8358                 5.8607
 IR Inten    --     61.1211                17.0877                14.4017

                     82                     83                     84
                      A                      A                      A
 Frequencies --   3099.4770              3102.7842              3108.3217
 Red. masses --      1.0585                 1.1042                 1.1029
 Frc consts  --      5.9913                 6.2633                 6.2784
 IR Inten    --      8.0396                23.7376                27.2093

                     85                     86                     87
                      A                      A                      A
 Frequencies --   3110.7494              3117.9060              3121.1778
 Red. masses --      1.0640                 1.0912                 1.0924
 Frc consts  --      6.0665                 6.2502                 6.2698
 IR Inten    --      8.9408                37.8979                40.3130

                     88                     89                     90
                      A                      A                      A
 Frequencies --   3127.9904              3155.6389              3180.8912
 Red. masses --      1.0865                 1.1083                 1.1009
 Frc consts  --      6.2637                 6.5027                 6.5627
 IR Inten    --     19.7602                 3.5176                 6.8015

                     91                     92                     93
                      A                      A                      A
 Frequencies --   3571.3451              3603.4422              3664.6299
 Red. masses --      1.0750                 1.0750                 1.0639
 Frc consts  --      8.0786                 8.2242                 8.4179
 IR Inten    --     46.3136                29.6203                64.1581

 - Thermochemistry -
 -------------------
 Temperature   298.150 Kelvin.  Pressure   1.00000 Atm.
 Atom     1 has atomic number  6 and mass  12.00000

 Molecular mass:   244.10592 amu.
 Principal axes and moments of inertia in atomic units:
                           1         2         3
     Eigenvalues --  2261.610016225.577746548.40985
           X            0.99998  -0.00219   0.00589
           Y            0.00262   0.99733  -0.07303
           Z           -0.00572   0.07305   0.99731
 This molecule is an asymmetric top.
 Rotational symmetry number  1.
 Warning -- assumption of classical behavior for rotation
           may cause significant error
 Rotational temperatures (Kelvin)      0.03830     0.01391     0.01323
 Rotational constants (GHZ):           0.79799     0.28989     0.27560
 Zero-point vibrational energy     722995.3 (Joules/Mol)
                                  172.80001 (Kcal/Mol)
 Warning -- explicit consideration of  25 degrees of freedom as
           vibrations may cause significant error
 Vibrational temperatures:     20.33    56.62    84.73    91.69   115.71
          (Kelvin)            140.54   166.79   176.29   219.22   259.25
                              332.29   336.98   408.29   437.45   555.55
                              572.34   619.27   634.44   653.15   717.33
                              742.50   806.01   819.22   834.73   838.91
                              926.58   952.51   991.14  1067.47  1119.63
                             1122.12  1177.74  1183.36  1207.10  1218.05
                             1281.75  1302.37  1377.75  1405.67  1430.52
                             1473.92  1489.98  1510.25  1517.69  1545.60
                             1594.52  1640.14  1657.74  1698.74  1733.42
                             1759.93  1804.75  1807.47  1861.18  1875.98
                             1919.99  1931.13  1936.40  1966.82  1985.78
                             2000.68  2016.04  2032.02  2036.31  2055.80
                             2070.50  2082.13  2149.67  2154.08  2169.03
                             2172.49  2179.72  2201.96  2216.52  2588.17
                             2597.43  2654.57  4263.40  4292.02  4398.05
                             4406.29  4459.46  4464.21  4472.18  4475.67
                             4485.97  4490.68  4500.48  4540.26  4576.59
                             5138.37  5184.55  5272.59

 Zero-point correction=                           0.275374 (Hartree/Particle)
 Thermal correction to Energy=                    0.291813
 Thermal correction to Enthalpy=                  0.292757
 Thermal correction to Gibbs Free Energy=         0.229168
 Sum of electronic and zero-point Energies=           -876.139276
 Sum of electronic and thermal Energies=              -876.122837
 Sum of electronic and thermal Enthalpies=            -876.121893
 Sum of electronic and thermal Free Energies=         -876.185482

                     E (Thermal)             CV                S
                      KCal/Mol        Cal/Mol-Kelvin    Cal/Mol-Kelvin
 Total                  183.115             61.284            133.834
 Electronic               0.000              0.000              0.000
 Translational            0.889              2.981             42.378
 Rotational               0.889              2.981             32.889
 Vibrational            181.338             55.322             58.567
 Vibration     1          0.593              1.986              7.324
 Vibration     2          0.594              1.981              5.291
 Vibration     3          0.596              1.974              4.494
 Vibration     4          0.597              1.972              4.338
 Vibration     5          0.600              1.962              3.881
 Vibration     6          0.603              1.951              3.500
 Vibration     7          0.608              1.936              3.167
 Vibration     8          0.610              1.930              3.060
 Vibration     9          0.619              1.900              2.642
 Vibration    10          0.629              1.867              2.326
 Vibration    11          0.653              1.794              1.872
 Vibration    12          0.654              1.789              1.846
 Vibration    13          0.682              1.704              1.511
 Vibration    14          0.695              1.666              1.395
 Vibration    15          0.755              1.500              1.015
 Vibration    16          0.764              1.475              0.971
 Vibration    17          0.792              1.404              0.857
 Vibration    18          0.801              1.381              0.824
 Vibration    19          0.812              1.352              0.784
 Vibration    20          0.854              1.253              0.662
 Vibration    21          0.871              1.214              0.619
 Vibration    22          0.916              1.117              0.523
 Vibration    23          0.925              1.097              0.505
 Vibration    24          0.937              1.074              0.485
 Vibration    25          0.940              1.068              0.480

                           ! Non-Optimized Parameters !
 Normal termination of Gaussian 16 at Sun Dec 13 16:27:40 2020.

 ----------------------------------------------------------------------
 # B3LYP/6-311++G(d,p) empiricaldispersion=gd3bj scf=xqc pop=npa geom=c
 heck
 ----------------------------------------------------------------------

 --------------------------------------
 CID_43610367_JID_7312_Energie_neutraal
 --------------------------------------
 Structure from the checkpoint file:  "JID_7312.chk"
 Charge =  0 Multiplicity = 1

 SCF Done:  E(RB3LYP) =  -876.687260867     A.U. after   14 cycles
 Normal termination of Gaussian 16 at Sun Dec 13 16:33:14 2020.

 ----------------------------------------------------------------------
 # B3LYP/6-311++G(d,p) empiricaldispersion=gd3bj scf=xqc pop=npa geom=c
 heck
 ----------------------------------------------------------------------

 ------------------------------------
 CID_43610367_JID_7312_Energie_kation
 ------------------------------------
 Structure from the checkpoint file:  "JID_7312.chk"
 Charge =  1 Multiplicity = 2

 SCF Done:  E(UB3LYP) =  -876.351204654     A.U. after   30 cycles
 Normal termination of Gaussian 16 at Sun Dec 13 16:50:25 2020.
 Gaussian 16:  ES64L-G16RevA.03 25-Dec-2016

 ----------------------------------------------------------------------
 # B3LYP/6-311++G(d,p) empiricaldispersion=gd3bj scf=xqc pop=npa geom=c
 heck
 ----------------------------------------------------------------------

 -----------------------------------
 CID_43610367_JID_7312_Energie_anion
 -----------------------------------
 Structure from the checkpoint file:  "JID_7312.chk"
 Charge = -1 Multiplicity = 2

                         Standard orientation:
 ---------------------------------------------------------------------
 Center     Atomic      Atomic             Coordinates (Angstroms)
 Number     Number       Type             X           Y           Z
 ---------------------------------------------------------------------
      1          6           0        2.195716    0.494146   -1.452140
      2          6           0        3.290756    1.294973   -0.740068
      3          8           0        4.243396    0.444010   -0.121944
      4          6           0        3.649203   -0.391461    0.864311
      5          6           0        2.593390   -1.311814    0.251769
      6          6           0        1.518131   -0.498144   -0.494048
      7          7           0        0.642953    0.235232    0.433628
      8          6           0       -0.344170   -0.312614    1.199512
      9          8           0       -0.650261    0.104237    2.308466
     10          7           0       -1.022610   -1.422586    0.625847
     11          6           0       -1.797397   -1.474488   -0.542356
     12          8           0       -2.553793   -2.413194   -0.709179
     13          6           0       -1.742097   -0.324982   -1.540116
     14          6           0       -2.895559    0.680214   -1.277809
     15          6           0       -2.620135    1.418615    0.013857
     16          8           0       -1.884881    2.375876    0.116859
     17          8           0       -3.203637    0.805554    1.067483
     18          1           0        2.657831   -0.073916   -2.267108
     19          1           0        1.452763    1.171251   -1.889648
     20          1           0        3.845316    1.910626   -1.453197
     21          1           0        2.853218    1.978559    0.010156
     22          1           0        3.205063    0.226515    1.663878
     23          1           0        4.465476   -0.968608    1.306194
     24          1           0        2.125112   -1.931587    1.025201
     25          1           0        3.082831   -1.983576   -0.463791
     26          1           0        0.886892   -1.181902   -1.063084
     27          1           0        1.036019    1.054970    0.879544
     28          1           0       -1.424834   -2.021418    1.340496
     29          1           0       -0.797995    0.218122   -1.519760
     30          1           0       -1.881757   -0.769743   -2.528173
     31          1           0       -2.920952    1.406775   -2.093242
     32          1           0       -3.847403    0.146257   -1.229704
     33          1           0       -2.773596    1.150628    1.874964
 ---------------------------------------------------------------------

 SCF Done:  E(UB3LYP) =  -876.680899099     A.U. after   33 cycles
 SCF Done:  E(UB3LYP) =  -876.680899099     a.u. after    1 cycles

 The electronic state is 2-A.
 Alpha  occ. eigenvalues --  -19.06286 -19.03321 -19.00515 -18.99091 -18.98977
 Alpha  occ. eigenvalues --  -14.24082 -14.23447 -10.19358 -10.19294 -10.17292
 Alpha  occ. eigenvalues --  -10.12838 -10.12332 -10.11866 -10.09238 -10.08713
 Alpha  occ. eigenvalues --  -10.07838 -10.07281  -1.00329  -0.95856  -0.94834
 Alpha  occ. eigenvalues --   -0.93870  -0.91441  -0.83738  -0.80392  -0.70309
 Alpha  occ. eigenvalues --   -0.69647  -0.67569  -0.59653  -0.56450  -0.55217
 Alpha  occ. eigenvalues --   -0.54024  -0.51231  -0.48716  -0.46710  -0.42405
 Alpha  occ. eigenvalues --   -0.40931  -0.40576  -0.38874  -0.38509  -0.37884
 Alpha  occ. eigenvalues --   -0.37673  -0.37210  -0.36439  -0.34356  -0.34330
 Alpha  occ. eigenvalues --   -0.32677  -0.31570  -0.31018  -0.30844  -0.30056
 Alpha  occ. eigenvalues --   -0.29473  -0.28484  -0.27976  -0.27165  -0.26784
 Alpha  occ. eigenvalues --   -0.26089  -0.24554  -0.22332  -0.21790  -0.19920
 Alpha  occ. eigenvalues --   -0.17863  -0.17031  -0.16568  -0.16049  -0.15315
 Alpha  occ. eigenvalues --    0.04498
 Alpha virt. eigenvalues --    0.06507   0.07173   0.07731   0.08009   0.09129
 Alpha virt. eigenvalues --    0.09960   0.10235   0.10440   0.10735   0.10796
 Alpha virt. eigenvalues --    0.11454   0.11970   0.12492   0.12780   0.12940

  Beta  occ. eigenvalues --  -19.06259 -19.03318 -19.00415 -18.99023 -18.98836
  Beta  occ. eigenvalues --  -14.24119 -14.23441 -10.19173 -10.19162 -10.17160
  Beta  occ. eigenvalues --  -10.12831 -10.12316 -10.11844 -10.09229 -10.08688
  Beta  occ. eigenvalues --  -10.07821 -10.07259  -1.00194  -0.95659  -0.94820
  Beta  occ. eigenvalues --   -0.93632  -0.91295  -0.83648  -0.80331  -0.70193
  Beta  occ. eigenvalues --   -0.69580  -0.67537  -0.59450  -0.56385  -0.55158
  Beta  occ. eigenvalues --   -0.53802  -0.51097  -0.48631  -0.46630  -0.42294
  Beta  occ. eigenvalues --   -0.40744  -0.40511  -0.38825  -0.38372  -0.37741
  Beta  occ. eigenvalues --   -0.37526  -0.36951  -0.36372  -0.34275  -0.34184
  Beta  occ. eigenvalues --   -0.32464  -0.31175  -0.30833  -0.30673  -0.29995
  Beta  occ. eigenvalues --   -0.29306  -0.28387  -0.27891  -0.27056  -0.26731
  Beta  occ. eigenvalues --   -0.25799  -0.24428  -0.21917  -0.21758  -0.19764
  Beta  occ. eigenvalues --   -0.17777  -0.16958  -0.16388  -0.15929  -0.15176
  Beta virt. eigenvalues --    0.06857   0.07497   0.07954   0.08288   0.08767
  Beta virt. eigenvalues --    0.09436   0.10113   0.10624   0.10779   0.11093
  Beta virt. eigenvalues --    0.11306   0.11887   0.12128   0.12813   0.13257

 Mulliken charges and spin densities:
               1          2
     1  C    0.333225  -0.686274
     2  C   -0.243965  -0.182349
     3  O   -0.162854   0.050282
     4  C    0.439406  -0.950528
     5  C    0.225689  -0.378183
     6  C   -0.318857   0.364943
     7  N   -0.014642  -0.011268
     8  C    0.021870  -0.314688
     9  O   -0.318925   0.040940
    10  N   -0.233760   0.078520
    11  C   -0.008374  -0.017291
    12  O   -0.333209   0.059434
    13  C    0.214999  -0.159249
    14  C   -0.500521   0.099764
    15  C   -0.081995   0.057089
    16  O   -0.245986   0.031697
    17  O   -0.077042   0.000459
    18  H   -0.351010   0.554553
    19  H    0.066516   0.076318
    20  H   -0.121811   0.331174
    21  H    0.111296  -0.000033
    22  H    0.093075   0.040281
    23  H   -0.174679   0.382939
    24  H   -0.067280   0.222397
    25  H   -0.410828   0.604871
    26  H   -0.263697   0.488832
    27  H    0.379423  -0.045199
    28  H    0.183180   0.146039
    29  H    0.377221  -0.285546
    30  H   -0.126123   0.343633
    31  H    0.121103   0.058235
    32  H    0.199418  -0.003769
    33  H    0.289135   0.001977
 Sum of Mulliken charges =  -1.00000   1.00000

 Dipole moment (field-independent basis, Debye):
    X=             -2.8146    Y=              3.8816    Z=              1.6589  Tot=              5.0735
 Quadrupole moment (field-independent basis, Debye-Ang):
   XX=           -167.8281   YY=           -141.2005   ZZ=           -133.2569
   XY=              1.6255   XZ=              8.7125   YZ=             -6.3223

 Summary of Natural Population Analysis:

                                       Natural Population
                Natural  -----------------------------------------------
    Atom  No    Charge         Core      Valence    Rydberg      Total
 -----------------------------------------------------------------------
      C    1   -0.20838      0.99960     2.19904    0.00973     3.20838
      C    2   -0.00939      0.99958     1.99723    0.01258     3.00939
      O    3   -0.29968      0.99989     3.29035    0.00944     4.29968
      C    4   -0.01110      0.99958     1.99865    0.01287     3.01110
      C    5   -0.20771      0.99960     2.19900    0.00911     3.20771
      C    6   -0.01386      0.99957     1.99959    0.01469     3.01386
      N    7   -0.32874      0.99965     2.81937    0.00972     3.82874
      C    8    0.43003      0.99969     1.54507    0.02520     2.56997
      O    9   -0.32794      0.99987     3.32302    0.00505     4.32794
      N   10   -0.35042      0.99964     2.84178    0.00900     3.85042
      C   11    0.36766      0.99968     1.60817    0.02449     2.63234
      O   12   -0.29809      0.99987     3.29224    0.00598     4.29809
      C   13   -0.23138      0.99957     2.22371    0.00810     3.23138
      C   14   -0.23010      0.99958     2.22173    0.00879     3.23010
      C   15    0.41413      0.99972     1.55984    0.02631     2.58587
      O   16   -0.30295      0.99987     3.29673    0.00636     4.30295
      O   17   -0.34822      0.99987     3.34201    0.00633     4.34822
      H   18    0.10809      0.00000     0.38974    0.00216     0.39191
      H   19    0.10438      0.00000     0.39451    0.00111     0.39562
      H   20    0.09411      0.00000     0.40471    0.00118     0.40589
      H   21    0.07125      0.00000     0.42749    0.00126     0.42875
      H   22    0.07499      0.00000     0.42375    0.00127     0.42501
      H   23    0.09443      0.00000     0.40426    0.00131     0.40557
      H   24    0.10426      0.00000     0.39456    0.00117     0.39574
      H   25    0.10694      0.00000     0.39039    0.00267     0.39306
      H   26    0.10987      0.00000     0.38697    0.00317     0.39013
      H   27    0.19498      0.00000     0.30296    0.00206     0.30502
      H   28    0.20270      0.00000     0.29488    0.00242     0.29730
      H   29    0.11126      0.00000     0.38670    0.00204     0.38874
      H   30    0.11284      0.00000     0.38603    0.00113     0.38716
      H   31    0.10740      0.00000     0.39173    0.00087     0.39260
      H   32    0.11043      0.00000     0.38848    0.00109     0.38957
      H   33    0.24821      0.00000     0.24940    0.00240     0.25179
 =======================================================================
   * Total *   -0.00000     16.99485    47.77408    0.23107    65.00000

 Normal termination of Gaussian 16 at Sun Dec 13 17:09:34 2020.
