 Gaussian 16, Revision A.03,

 -----------------------------------------------------------
 # opt freq B3LYP/6-31G(d) empiricaldispersion=gd3bj scf=xqc
 -----------------------------------------------------------

 -------------------------------
 CID_116491821_JID_1125_neutraal
 -------------------------------
 Symbolic Z-matrix:
 Charge =  0 Multiplicity = 1

 SCF Done:  E(RB3LYP) =  -484.362488146     A.U. after   12 cycles
 SCF Done:  E(RB3LYP) =  -484.367569274     A.U. after   11 cycles
 SCF Done:  E(RB3LYP) =  -484.363684413     A.U. after   11 cycles
 SCF Done:  E(RB3LYP) =  -484.367098784     A.U. after   11 cycles
 SCF Done:  E(RB3LYP) =  -484.368308533     A.U. after    8 cycles
 SCF Done:  E(RB3LYP) =  -484.368491246     A.U. after   10 cycles
 SCF Done:  E(RB3LYP) =  -484.368968679     A.U. after   10 cycles
 SCF Done:  E(RB3LYP) =  -484.369257387     A.U. after   10 cycles
 SCF Done:  E(RB3LYP) =  -484.369417629     A.U. after   10 cycles
 SCF Done:  E(RB3LYP) =  -484.369511080     A.U. after    9 cycles
 SCF Done:  E(RB3LYP) =  -484.369528696     A.U. after    9 cycles
 SCF Done:  E(RB3LYP) =  -484.369531207     A.U. after    7 cycles
 SCF Done:  E(RB3LYP) =  -484.369532416     A.U. after    7 cycles
 SCF Done:  E(RB3LYP) =  -484.369532546     A.U. after    6 cycles
 Optimization completed.
    -- Stationary point found.
 Normal termination of Gaussian 16 at Tue Dec  8 19:17:15 2020.

 --------------------------------------------------------------------
 #N Geom=AllCheck Guess=TCheck SCRF=Check GenChk RB3LYP/6-31G(d) Freq
 --------------------------------------------------------------------

 Structure from the checkpoint file:  "JID_1125.chk"
 -------------------------------
 CID_116491821_JID_1125_neutraal
 -------------------------------
 Charge =  0 Multiplicity = 1

 SCF Done:  E(RB3LYP) =  -484.369532546     A.U. after    1 cycles

  Exact polarizability: 117.729   3.195 101.838  -1.686  -1.489  90.733
 Approx polarizability: 142.021   6.373 140.338  -3.924   0.440 137.779

                      1                      2                      3
                      A                      A                      A
 Frequencies --     66.1110                80.9886               108.9042
 Red. masses --      3.0921                 2.9889                 2.3983
 Frc consts  --      0.0080                 0.0116                 0.0168
 IR Inten    --      0.3059                 2.2970                 1.3651

                      4                      5                      6
                      A                      A                      A
 Frequencies --    128.4985               162.5137               177.7289
 Red. masses --      2.3145                 2.6356                 2.8946
 Frc consts  --      0.0225                 0.0410                 0.0539
 IR Inten    --      3.4499                 5.9481                 1.7658

                      7                      8                      9
                      A                      A                      A
 Frequencies --    200.4880               231.7242               253.3365
 Red. masses --      2.7788                 1.1070                 1.4778
 Frc consts  --      0.0658                 0.0350                 0.0559
 IR Inten    --      6.2117                 7.1605                25.0906

                     10                     11                     12
                      A                      A                      A
 Frequencies --    259.4807               291.1665               317.1928
 Red. masses --      2.9319                 2.0182                 1.0632
 Frc consts  --      0.1163                 0.1008                 0.0630
 IR Inten    --      5.6781                 7.7313                 0.6993

                     13                     14                     15
                      A                      A                      A
 Frequencies --    370.6082               382.5720               405.5325
 Red. masses --      2.4035                 2.3943                 2.4127
 Frc consts  --      0.1945                 0.2065                 0.2338
 IR Inten    --      0.4938                 0.3304                 3.4623

                     16                     17                     18
                      A                      A                      A
 Frequencies --    471.1674               555.4422               601.6856
 Red. masses --      3.2236                 3.0318                 2.6240
 Frc consts  --      0.4216                 0.5511                 0.5597
 IR Inten    --      8.7067                 2.9553                 3.1439

                     19                     20                     21
                      A                      A                      A
 Frequencies --    701.3987               738.7851               796.0546
 Red. masses --      1.9005                 2.6314                 1.2385
 Frc consts  --      0.5509                 0.8462                 0.4624
 IR Inten    --     13.2742                 1.6810                 1.0904

                     22                     23                     24
                      A                      A                      A
 Frequencies --    808.8129               841.1665               891.2486
 Red. masses --      1.8788                 1.9911                 1.4333
 Frc consts  --      0.7242                 0.8301                 0.6708
 IR Inten    --     16.2133                 5.7536                96.2808

                     25                     26                     27
                      A                      A                      A
 Frequencies --    902.1170               930.4242               939.9513
 Red. masses --      2.0985                 1.4704                 2.1932
 Frc consts  --      1.0062                 0.7500                 1.1417
 IR Inten    --      6.0948                 3.4745                 6.4262

                     28                     29                     30
                      A                      A                      A
 Frequencies --    946.9974               952.6879               955.7094
 Red. masses --      2.1553                 1.8188                 1.4311
 Frc consts  --      1.1388                 0.9726                 0.7702
 IR Inten    --      5.7408                 9.5210                 3.6177

                     31                     32                     33
                      A                      A                      A
 Frequencies --    978.9326              1000.9583              1053.2478
 Red. masses --      1.3074                 2.3167                 2.2992
 Frc consts  --      0.7382                 1.3676                 1.5027
 IR Inten    --      3.4434                 4.2260                33.4455

                     34                     35                     36
                      A                      A                      A
 Frequencies --   1084.3239              1102.1541              1134.5820
 Red. masses --      2.2570                 2.3160                 2.2450
 Frc consts  --      1.5635                 1.6576                 1.7027
 IR Inten    --     10.9912                38.3717                 2.7612

                     37                     38                     39
                      A                      A                      A
 Frequencies --   1160.3039              1191.8246              1204.5627
 Red. masses --      2.1747                 2.3168                 2.1337
 Frc consts  --      1.7250                 1.9390                 1.8240
 IR Inten    --     14.5710                 6.4938               123.3116

                     40                     41                     42
                      A                      A                      A
 Frequencies --   1207.6211              1215.5641              1231.0355
 Red. masses --      1.9282                 1.4227                 1.5577
 Frc consts  --      1.6568                 1.2386                 1.3908
 IR Inten    --      7.4458                 7.6417                45.5648

                     43                     44                     45
                      A                      A                      A
 Frequencies --   1244.3679              1268.8102              1276.8926
 Red. masses --      1.3748                 1.2942                 1.2281
 Frc consts  --      1.2543                 1.2275                 1.1797
 IR Inten    --     11.5212                 0.1812                 0.9834

                     46                     47                     48
                      A                      A                      A
 Frequencies --   1289.6312              1310.6320              1324.3935
 Red. masses --      1.5010                 1.4008                 1.3496
 Frc consts  --      1.4708                 1.4177                 1.3947
 IR Inten    --      9.3086                 0.9833                 7.7650

                     49                     50                     51
                      A                      A                      A
 Frequencies --   1363.3145              1389.2347              1420.6743
 Red. masses --      1.2795                 1.3104                 1.2404
 Frc consts  --      1.4012                 1.4901                 1.4751
 IR Inten    --      6.0316                10.4627                 7.8791

                     52                     53                     54
                      A                      A                      A
 Frequencies --   1424.0259              1429.6148              1438.5104
 Red. masses --      1.3098                 1.3166                 1.2383
 Frc consts  --      1.5649                 1.5854                 1.5097
 IR Inten    --     18.4471                10.1123                 5.8853

                     55                     56                     57
                      A                      A                      A
 Frequencies --   1441.5242              1446.6514              1509.3332
 Red. masses --      1.2856                 1.2241                 1.0903
 Frc consts  --      1.5740                 1.5094                 1.4634
 IR Inten    --      3.2945                14.0975                 0.4807

                     58                     59                     60
                      A                      A                      A
 Frequencies --   1512.2935              1514.8476              1519.2845
 Red. masses --      1.0754                 1.0832                 1.0566
 Frc consts  --      1.4491                 1.4646                 1.4370
 IR Inten    --      4.4720                 3.0888                 1.2120

                     61                     62                     63
                      A                      A                      A
 Frequencies --   1524.4869              1529.1765              1541.2053
 Red. masses --      1.0547                 1.0511                 1.1370
 Frc consts  --      1.4442                 1.4482                 1.5913
 IR Inten    --      3.8582                 1.5758                 0.8451

                     64                     65                     66
                      A                      A                      A
 Frequencies --   1548.5482              1703.2202              2996.5501
 Red. masses --      1.0529                 1.0863                 1.0699
 Frc consts  --      1.4877                 1.8568                 5.6601
 IR Inten    --      2.5723                30.6205                52.4831

                     67                     68                     69
                      A                      A                      A
 Frequencies --   3020.8268              3037.0284              3049.0695
 Red. masses --      1.0851                 1.0856                 1.0631
 Frc consts  --      5.8340                 5.8998                 5.8234
 IR Inten    --     38.3543                32.5665                40.5732

                     70                     71                     72
                      A                      A                      A
 Frequencies --   3054.4447              3061.6543              3064.9672
 Red. masses --      1.0372                 1.0388                 1.0569
 Frc consts  --      5.7015                 5.7369                 5.8496
 IR Inten    --     23.3870                21.9701                43.2572

                     73                     74                     75
                      A                      A                      A
 Frequencies --   3069.9383              3078.0762              3102.6093
 Red. masses --      1.0622                 1.0921                 1.1036
 Frc consts  --      5.8979                 6.0965                 6.2590
 IR Inten    --     40.5859                37.3758                12.6575

                     76                     77                     78
                      A                      A                      A
 Frequencies --   3112.5894              3119.2455              3121.8179
 Red. masses --      1.1053                 1.0992                 1.1041
 Frc consts  --      6.3094                 6.3010                 6.3400
 IR Inten    --     25.3389                26.6995                31.3594

                     79                     80                     81
                      A                      A                      A
 Frequencies --   3126.7690              3135.6866              3143.8711
 Red. masses --      1.0993                 1.1023                 1.0900
 Frc consts  --      6.3323                 6.3860                 6.3473
 IR Inten    --     68.4600                26.3079                35.1486

                     82                     83                     84
                      A                      A                      A
 Frequencies --   3154.0820              3490.7988              3574.0944
 Red. masses --      1.1006                 1.0506                 1.0915
 Frc consts  --      6.4507                 7.5427                 8.2147
 IR Inten    --     21.1078                 1.4904                 0.2988

 - Thermochemistry -
 -------------------
 Temperature   298.150 Kelvin.  Pressure   1.00000 Atm.
 Atom     1 has atomic number  6 and mass  12.00000

 Molecular mass:   157.14666 amu.
 Principal axes and moments of inertia in atomic units:
                           1         2         3
     Eigenvalues --  1091.531072431.709262891.73336
           X            0.99997  -0.00315  -0.00655
           Y            0.00293   0.99942  -0.03381
           Z            0.00665   0.03379   0.99941
 This molecule is an asymmetric top.
 Rotational symmetry number  1.
 Warning -- assumption of classical behavior for rotation
           may cause significant error
 Rotational temperatures (Kelvin)      0.07935     0.03562     0.02995
 Rotational constants (GHZ):           1.65340     0.74217     0.62410
 Zero-point vibrational energy     726853.4 (Joules/Mol)
                                  173.72213 (Kcal/Mol)
 Warning -- explicit consideration of  18 degrees of freedom as
           vibrations may cause significant error
 Vibrational temperatures:     95.12   116.52   156.69   184.88   233.82
          (Kelvin)            255.71   288.46   333.40   364.49   373.33
                              418.92   456.37   533.22   550.44   583.47
                              677.90   799.16   865.69  1009.16  1062.95
                             1145.34  1163.70  1210.25  1282.31  1297.95
                             1338.67  1352.38  1362.52  1370.71  1375.05
                             1408.47  1440.16  1515.39  1560.10  1585.75
                             1632.41  1669.42  1714.77  1733.10  1737.50
                             1748.93  1771.19  1790.37  1825.53  1837.16
                             1855.49  1885.71  1905.51  1961.51  1998.80
                             2044.03  2048.86  2056.90  2069.70  2074.03
                             2081.41  2171.59  2175.85  2179.53  2185.91
                             2193.40  2200.14  2217.45  2228.02  2450.55
                             4311.37  4346.30  4369.61  4386.93  4394.66
                             4405.04  4409.80  4416.96  4428.67  4463.96
                             4478.32  4487.90  4491.60  4498.72  4511.55
                             4523.33  4538.02  5022.48  5142.32

 Zero-point correction=                           0.276844 (Hartree/Particle)
 Thermal correction to Energy=                    0.289501
 Thermal correction to Enthalpy=                  0.290445
 Thermal correction to Gibbs Free Energy=         0.238757
 Sum of electronic and zero-point Energies=           -484.092689
 Sum of electronic and thermal Energies=              -484.080032
 Sum of electronic and thermal Enthalpies=            -484.079088
 Sum of electronic and thermal Free Energies=         -484.130776

                     E (Thermal)             CV                S
                      KCal/Mol        Cal/Mol-Kelvin    Cal/Mol-Kelvin
 Total                  181.664             48.098            108.787
 Electronic               0.000              0.000              0.000
 Translational            0.889              2.981             41.065
 Rotational               0.889              2.981             30.419
 Vibrational            179.887             42.137             37.303
 Vibration     1          0.598              1.970              4.266
 Vibration     2          0.600              1.962              3.867
 Vibration     3          0.606              1.942              3.288
 Vibration     4          0.611              1.925              2.968
 Vibration     5          0.623              1.888              2.520
 Vibration     6          0.628              1.870              2.352
 Vibration     7          0.638              1.839              2.129
 Vibration     8          0.653              1.792              1.866
 Vibration     9          0.665              1.757              1.707
 Vibration    10          0.668              1.747              1.665
 Vibration    11          0.687              1.690              1.467
 Vibration    12          0.704              1.641              1.325
 Vibration    13          0.743              1.533              1.077
 Vibration    14          0.752              1.507              1.029
 Vibration    15          0.771              1.458              0.943
 Vibration    16          0.828              1.314              0.734
 Vibration    17          0.911              1.128              0.533
 Vibration    18          0.960              1.028              0.447

                           ! Non-Optimized Parameters !
 Normal termination of Gaussian 16 at Tue Dec  8 19:24:50 2020.

 ----------------------------------------------------------------------
 # B3LYP/6-311++G(d,p) empiricaldispersion=gd3bj scf=xqc pop=npa geom=c
 heck
 ----------------------------------------------------------------------

 ---------------------------------------
 CID_116491821_JID_1125_Energie_neutraal
 ---------------------------------------
 Structure from the checkpoint file:  "JID_1125.chk"
 Charge =  0 Multiplicity = 1

 SCF Done:  E(RB3LYP) =  -484.514030938     A.U. after   13 cycles
 Normal termination of Gaussian 16 at Tue Dec  8 19:28:10 2020.

 ----------------------------------------------------------------------
 # B3LYP/6-311++G(d,p) empiricaldispersion=gd3bj scf=xqc pop=npa geom=c
 heck
 ----------------------------------------------------------------------

 -------------------------------------
 CID_116491821_JID_1125_Energie_kation
 -------------------------------------
 Structure from the checkpoint file:  "JID_1125.chk"
 Charge =  1 Multiplicity = 2

 SCF Done:  E(UB3LYP) =  -484.202384417     A.U. after   21 cycles
 Normal termination of Gaussian 16 at Tue Dec  8 19:35:39 2020.
 Gaussian 16:  ES64L-G16RevA.03 25-Dec-2016

 ----------------------------------------------------------------------
 # B3LYP/6-311++G(d,p) empiricaldispersion=gd3bj scf=xqc pop=npa geom=c
 heck
 ----------------------------------------------------------------------

 ------------------------------------
 CID_116491821_JID_1125_Energie_anion
 ------------------------------------
 Structure from the checkpoint file:  "JID_1125.chk"
 Charge = -1 Multiplicity = 2

                         Standard orientation:
 ---------------------------------------------------------------------
 Center     Atomic      Atomic             Coordinates (Angstroms)
 Number     Number       Type             X           Y           Z
 ---------------------------------------------------------------------
      1          6           0       -1.450562   -1.286284    1.295667
      2          6           0       -1.862698   -1.092735   -0.165719
      3          6           0       -3.133302   -0.247212   -0.321492
      4          8           0       -0.829033   -0.666184   -1.055752
      5          6           0        0.104784    0.389572   -0.794417
      6          6           0       -0.478410    1.777481   -0.467024
      7          7           0       -0.783505    2.005935    0.952382
      8          6           0        1.228516   -0.012476    0.154142
      9          6           0        2.007745   -1.314668   -0.159721
     10          6           0        3.319619   -0.575558    0.215520
     11          6           0        2.566963    0.769707    0.038625
     12          1           0       -1.212670   -0.342358    1.792307
     13          1           0       -0.576698   -1.940346    1.364313
     14          1           0       -2.274304   -1.760388    1.842133
     15          1           0       -2.103287   -2.087881   -0.561671
     16          1           0       -3.030758    0.758868    0.097909
     17          1           0       -3.381025   -0.144670   -1.382231
     18          1           0       -3.975349   -0.731303    0.186960
     19          1           0        0.560076    0.505166   -1.788215
     20          1           0        0.303910    2.497946   -0.733240
     21          1           0       -1.324887    1.963006   -1.147526
     22          1           0       -0.835230    3.006816    1.128735
     23          1           0       -1.699434    1.633485    1.187361
     24          1           0        0.887988    0.006531    1.189879
     25          1           0        1.746098   -2.213199    0.407953
     26          1           0        1.960674   -1.556821   -1.227074
     27          1           0        4.199691   -0.750672   -0.411286
     28          1           0        3.598303   -0.747380    1.260493
     29          1           0        2.707129    1.180311   -0.969382
     30          1           0        2.750646    1.563856    0.768438
 ---------------------------------------------------------------------

 SCF Done:  E(UB3LYP) =  -484.497899647     A.U. after   27 cycles

 The electronic state is 2-A.
 Alpha  occ. eigenvalues --  -19.00552 -14.18212 -10.11520 -10.10902 -10.08241
 Alpha  occ. eigenvalues --  -10.06796 -10.06273 -10.06148 -10.05976 -10.05115
 Alpha  occ. eigenvalues --  -10.05028  -0.91460  -0.77301  -0.74279  -0.67830
 Alpha  occ. eigenvalues --   -0.62280  -0.58507  -0.55697  -0.54789  -0.51336
 Alpha  occ. eigenvalues --   -0.45461  -0.43982  -0.39716  -0.38414  -0.37555
 Alpha  occ. eigenvalues --   -0.35807  -0.35007  -0.33239  -0.31759  -0.31165
 Alpha  occ. eigenvalues --   -0.29575  -0.28713  -0.28447  -0.27632  -0.25897
 Alpha  occ. eigenvalues --   -0.24881  -0.24640  -0.23385  -0.22240  -0.20603
 Alpha  occ. eigenvalues --   -0.19791  -0.18049  -0.14984  -0.13268   0.04763
 Alpha virt. eigenvalues --    0.06915   0.07211   0.08087   0.09082   0.09339
 Alpha virt. eigenvalues --    0.09619   0.10192   0.11060   0.11645   0.11779
 Alpha virt. eigenvalues --    0.12540   0.12940   0.13686   0.14123   0.14512

  Beta  occ. eigenvalues --  -19.00550 -14.18161 -10.11509 -10.10898 -10.08215
  Beta  occ. eigenvalues --  -10.06788 -10.06257 -10.06139 -10.05971 -10.05090
  Beta  occ. eigenvalues --  -10.04987  -0.91450  -0.77218  -0.74260  -0.67796
  Beta  occ. eigenvalues --   -0.62232  -0.58442  -0.55659  -0.54738  -0.51282
  Beta  occ. eigenvalues --   -0.45417  -0.43941  -0.39652  -0.38372  -0.37534
  Beta  occ. eigenvalues --   -0.35767  -0.34948  -0.33181  -0.31717  -0.31130
  Beta  occ. eigenvalues --   -0.29532  -0.28680  -0.28427  -0.27602  -0.25854
  Beta  occ. eigenvalues --   -0.24856  -0.24607  -0.23355  -0.22219  -0.20579
  Beta  occ. eigenvalues --   -0.19769  -0.18022  -0.14958  -0.13227
  Beta virt. eigenvalues --    0.06890   0.07674   0.08117   0.08513   0.09579
  Beta virt. eigenvalues --    0.09829   0.10068   0.10695   0.11338   0.11955
  Beta virt. eigenvalues --    0.12142   0.12942   0.13368   0.13883   0.14572

 Mulliken charges and spin densities:
               1          2
     1  C    0.500953  -1.014038
     2  C   -1.080956   1.073591
     3  C    1.328877  -1.868686
     4  O   -0.076570   0.019335
     5  C    0.357755  -0.514287
     6  C    1.133194  -1.708442
     7  N   -0.598366   0.207769
     8  C   -1.180754   1.698979
     9  C   -0.016129  -0.463691
    10  C   -0.498440   0.232953
    11  C    1.042435  -1.578781
    12  H   -0.087818   0.230701
    13  H    0.000559   0.157448
    14  H   -0.535332   0.696117
    15  H   -0.203042   0.372647
    16  H   -0.683416   0.805602
    17  H   -0.054257   0.208929
    18  H   -0.275566   0.412896
    19  H    0.052911   0.115932
    20  H   -0.373760   0.543541
    21  H   -0.030252   0.188579
    22  H   -0.413430   0.674031
    23  H    0.328182  -0.117517
    24  H    0.346092  -0.155067
    25  H    0.125551  -0.011289
    26  H   -0.024073   0.177449
    27  H    0.000051   0.143620
    28  H   -0.007205   0.125625
    29  H   -0.034798   0.151452
    30  H   -0.042396   0.194603
 Sum of Mulliken charges =  -1.00000   1.00000

 Dipole moment (field-independent basis, Debye):
    X=              4.5189    Y=             -3.2958    Z=             -1.4841  Tot=              5.7866
 Quadrupole moment (field-independent basis, Debye-Ang):
   XX=           -129.3851   YY=           -121.3129   ZZ=           -103.6431
   XY=             -1.9662   XZ=              4.9846   YZ=             -2.6359

 Summary of Natural Population Analysis:

                                       Natural Population
                Natural  -----------------------------------------------
    Atom  No    Charge         Core      Valence    Rydberg      Total
 -----------------------------------------------------------------------
      C    1   -0.30536      0.99964     2.29992    0.00581     3.30536
      C    2    0.06770      0.99955     1.91807    0.01469     2.93230
      C    3   -0.29434      0.99964     2.28885    0.00585     3.29434
      O    4   -0.31279      0.99988     3.30268    0.01023     4.31279
      C    5    0.06776      0.99947     1.91581    0.01697     2.93224
      C    6   -0.10412      0.99960     2.09188    0.01265     3.10412
      N    7   -0.42722      0.99976     2.91593    0.01152     3.92722
      C    8   -0.12645      0.99957     2.11434    0.01254     3.12645
      C    9   -0.18355      0.99963     2.17642    0.00750     3.18355
      C   10   -0.18998      0.99965     2.18340    0.00693     3.18998
      C   11   -0.18410      0.99963     2.17636    0.00810     3.18410
      H   12    0.10365      0.00000     0.39462    0.00174     0.39635
      H   13    0.10085      0.00000     0.39797    0.00117     0.39915
      H   14    0.10271      0.00000     0.39605    0.00124     0.39729
      H   15    0.08467      0.00000     0.41387    0.00147     0.41533
      H   16    0.09267      0.00000     0.40546    0.00188     0.40733
      H   17    0.10227      0.00000     0.39650    0.00124     0.39773
      H   18    0.10070      0.00000     0.39772    0.00158     0.39930
      H   19    0.08871      0.00000     0.40947    0.00182     0.41129
      H   20    0.09704      0.00000     0.40129    0.00167     0.40296
      H   21    0.08698      0.00000     0.41140    0.00162     0.41302
      H   22    0.18170      0.00000     0.31355    0.00475     0.31830
      H   23    0.17391      0.00000     0.32340    0.00269     0.32609
      H   24    0.10856      0.00000     0.38895    0.00249     0.39144
      H   25    0.09485      0.00000     0.40415    0.00100     0.40515
      H   26    0.09652      0.00000     0.40222    0.00126     0.40348
      H   27    0.09147      0.00000     0.40735    0.00117     0.40853
      H   28    0.09290      0.00000     0.40579    0.00131     0.40710
      H   29    0.09305      0.00000     0.40557    0.00138     0.40695
      H   30    0.09924      0.00000     0.39978    0.00097     0.40076
 =======================================================================
   * Total *    0.00000     10.99601    32.85876    0.14523    44.00000

 Normal termination of Gaussian 16 at Tue Dec  8 19:45:20 2020.
