 Gaussian 16, Revision A.03,

 -----------------------------------------------------------
 # opt freq B3LYP/6-31G(d) empiricaldispersion=gd3bj scf=xqc
 -----------------------------------------------------------

 -----------------------------
 CID_88723377_JID_105_neutraal
 -----------------------------
 Symbolic Z-matrix:
 Charge =  0 Multiplicity = 1

 SCF Done:  E(RB3LYP) =  -513.259353642     A.U. after   15 cycles
 SCF Done:  E(RB3LYP) =  -513.260378180     A.U. after   14 cycles
 SCF Done:  E(RB3LYP) =  -513.261131568     A.U. after   13 cycles
 SCF Done:  E(RB3LYP) =  -513.261380510     A.U. after   12 cycles
 SCF Done:  E(RB3LYP) =  -513.261506752     A.U. after   12 cycles
 SCF Done:  E(RB3LYP) =  -513.261520863     A.U. after   11 cycles
 SCF Done:  E(RB3LYP) =  -513.261519538     A.U. after    9 cycles
 SCF Done:  E(RB3LYP) =  -513.261523719     A.U. after   10 cycles
 SCF Done:  E(RB3LYP) =  -513.261527038     A.U. after   10 cycles
 SCF Done:  E(RB3LYP) =  -513.261527111     A.U. after    8 cycles
 Optimization completed.
    -- Stationary point found.
 Normal termination of Gaussian 16 at Tue Dec  8 10:15:54 2020.

 --------------------------------------------------------------------
 #N Geom=AllCheck Guess=TCheck SCRF=Check GenChk RB3LYP/6-31G(d) Freq
 --------------------------------------------------------------------

 Structure from the checkpoint file:  "JID_105.chk"
 -----------------------------
 CID_88723377_JID_105_neutraal
 -----------------------------
 Charge =  0 Multiplicity = 1

 SCF Done:  E(RB3LYP) =  -513.261527111     A.U. after    1 cycles

  Exact polarizability:  93.468   5.882  74.771   2.329   5.179  52.929
 Approx polarizability: 119.814  20.324 137.064  11.723  18.231  81.016

                      1                      2                      3
                      A                      A                      A
 Frequencies --     51.5319                71.8463               118.5992
 Red. masses --      8.8283                 6.4076                 5.3261
 Frc consts  --      0.0138                 0.0195                 0.0441
 IR Inten    --      1.0276                 2.6130                 0.8718

                      4                      5                      6
                      A                      A                      A
 Frequencies --    162.7995               172.4855               205.2979
 Red. masses --      4.6228                 4.5660                 1.2013
 Frc consts  --      0.0722                 0.0800                 0.0298
 IR Inten    --      2.9575                 3.4385                 1.3423

                      7                      8                      9
                      A                      A                      A
 Frequencies --    226.8453               261.3697               294.5962
 Red. masses --      4.8003                 2.4761                 3.9428
 Frc consts  --      0.1455                 0.0997                 0.2016
 IR Inten    --      1.9723                 3.2364                 2.0398

                     10                     11                     12
                      A                      A                      A
 Frequencies --    414.5655               484.9279               496.2777
 Red. masses --      3.7459                 8.6633                 6.4048
 Frc consts  --      0.3793                 1.2003                 0.9294
 IR Inten    --      7.3412                 2.7240                 4.6980

                     13                     14                     15
                      A                      A                      A
 Frequencies --    563.9805               579.4602               609.1829
 Red. masses --      4.8631                 1.1557                 4.3148
 Frc consts  --      0.9114                 0.2286                 0.9434
 IR Inten    --      3.5645                98.9674                46.2589

                     16                     17                     18
                      A                      A                      A
 Frequencies --    698.0510               737.7659               800.7310
 Red. masses --      5.2891                 4.3372                 2.7148
 Frc consts  --      1.5185                 1.3909                 1.0256
 IR Inten    --     37.7956                19.3901                 9.5494

                     19                     20                     21
                      A                      A                      A
 Frequencies --    860.8392               905.2649               947.5030
 Red. masses --      1.9919                 2.5914                 4.1637
 Frc consts  --      0.8697                 1.2512                 2.2024
 IR Inten    --     38.9056                27.3434                18.5668

                     22                     23                     24
                      A                      A                      A
 Frequencies --   1000.5634              1050.6058              1117.1576
 Red. masses --      1.1731                 2.8235                 1.7823
 Frc consts  --      0.6920                 1.8362                 1.3105
 IR Inten    --     21.4918                36.0439                11.4311

                     25                     26                     27
                      A                      A                      A
 Frequencies --   1147.6155              1209.2816              1222.4505
 Red. masses --      1.9870                 1.9574                 5.0392
 Frc consts  --      1.5419                 1.6865                 4.4369
 IR Inten    --     42.5485               400.5372               244.4320

                     28                     29                     30
                      A                      A                      A
 Frequencies --   1309.1913              1360.0341              1382.6030
 Red. masses --      1.3326                 1.3229                 1.3640
 Frc consts  --      1.3457                 1.4417                 1.5362
 IR Inten    --      2.5703                 6.7202                10.4868

                     31                     32                     33
                      A                      A                      A
 Frequencies --   1399.0776              1411.2414              1437.4407
 Red. masses --      1.8086                 1.5964                 1.2180
 Frc consts  --      2.0859                 1.8733                 1.4828
 IR Inten    --    109.7473                20.3067                 9.1470

                     34                     35                     36
                      A                      A                      A
 Frequencies --   1515.0306              1527.3676              1699.5714
 Red. masses --      1.0480                 1.0493                 5.3950
 Frc consts  --      1.4172                 1.4422                 9.1817
 IR Inten    --      6.6801                 1.4253               226.2853

                     37                     38                     39
                      A                      A                      A
 Frequencies --   1827.6971              2371.0934              3082.7178
 Red. masses --      9.0427                12.6660                 1.0361
 Frc consts  --     17.7974                41.9553                 5.8014
 IR Inten    --    401.7096                 0.3836                 6.0634

                     40                     41                     42
                      A                      A                      A
 Frequencies --   3096.3536              3154.7389              3181.3812
 Red. masses --      1.0850                 1.1038                 1.1021
 Frc consts  --      6.1289                 6.4727                 6.5719
 IR Inten    --      5.8816                 8.4319                 7.5421

                     43                     44                     45
                      A                      A                      A
 Frequencies --   3243.0194              3264.1046              3707.0250
 Red. masses --      1.0933                 1.0906                 1.0643
 Frc consts  --      6.7748                 6.8460                 8.6173
 IR Inten    --      0.4306                 4.0138                69.4180

 - Thermochemistry -
 -------------------
 Temperature   298.150 Kelvin.  Pressure   1.00000 Atm.
 Atom     1 has atomic number  6 and mass  12.00000

 Molecular mass:   141.04259 amu.
 Principal axes and moments of inertia in atomic units:
                           1         2         3
     Eigenvalues --   801.632182453.325012740.98249
           X            0.99969   0.00904  -0.02301
           Y           -0.00934   0.99987  -0.01316
           Z            0.02289   0.01337   0.99965
 This molecule is an asymmetric top.
 Rotational symmetry number  1.
 Warning -- assumption of classical behavior for rotation
           may cause significant error
 Rotational temperatures (Kelvin)      0.10805     0.03530     0.03160
 Rotational constants (GHZ):           2.25133     0.73563     0.65843
 Zero-point vibrational energy     337235.0 (Joules/Mol)
                                   80.60109 (Kcal/Mol)
 Warning -- explicit consideration of  15 degrees of freedom as
           vibrations may cause significant error
 Vibrational temperatures:     74.14   103.37   170.64   234.23   248.17
          (Kelvin)            295.38   326.38   376.05   423.86   596.47
                              697.70   714.03   811.44   833.71   876.48
                             1004.34  1061.48  1152.07  1238.56  1302.47
                             1363.25  1439.59  1511.59  1607.34  1651.16
                             1739.89  1758.83  1883.63  1956.79  1989.26
                             2012.96  2030.46  2068.16  2179.79  2197.54
                             2445.30  2629.65  3411.47  4435.34  4454.96
                             4538.97  4577.30  4665.98  4696.32  5333.58

 Zero-point correction=                           0.128446 (Hartree/Particle)
 Thermal correction to Energy=                    0.138716
 Thermal correction to Enthalpy=                  0.139660
 Thermal correction to Gibbs Free Energy=         0.092043
 Sum of electronic and zero-point Energies=           -513.133081
 Sum of electronic and thermal Energies=              -513.122812
 Sum of electronic and thermal Enthalpies=            -513.121867
 Sum of electronic and thermal Free Energies=         -513.169484

                     E (Thermal)             CV                S
                      KCal/Mol        Cal/Mol-Kelvin    Cal/Mol-Kelvin
 Total                   87.045             36.048            100.217
 Electronic               0.000              0.000              0.000
 Translational            0.889              2.981             40.743
 Rotational               0.889              2.981             30.067
 Vibrational             85.268             30.087             29.407
 Vibration     1          0.596              1.977              4.758
 Vibration     2          0.598              1.967              4.102
 Vibration     3          0.609              1.934              3.123
 Vibration     4          0.623              1.888              2.517
 Vibration     5          0.626              1.876              2.408
 Vibration     6          0.640              1.832              2.085
 Vibration     7          0.651              1.800              1.904
 Vibration     8          0.669              1.743              1.653
 Vibration     9          0.689              1.684              1.447
 Vibration    10          0.778              1.439              0.911
 Vibration    11          0.841              1.283              0.697
 Vibration    12          0.852              1.258              0.667
 Vibration    13          0.920              1.109              0.516
 Vibration    14          0.936              1.076              0.486
 Vibration    15          0.968              1.012              0.434

 Optimization completed.
    -- Stationary point found.
 Normal termination of Gaussian 16 at Tue Dec  8 10:18:10 2020.

 ----------------------------------------------------------------------
 # B3LYP/6-311++G(d,p) empiricaldispersion=gd3bj scf=xqc pop=npa geom=c
 heck
 ----------------------------------------------------------------------

 -------------------------------------
 CID_88723377_JID_105_Energie_neutraal
 -------------------------------------
 Structure from the checkpoint file:  "JID_105.chk"
 Charge =  0 Multiplicity = 1

 SCF Done:  E(RB3LYP) =  -513.422969442     A.U. after   15 cycles
 Normal termination of Gaussian 16 at Tue Dec  8 10:18:50 2020.

 ----------------------------------------------------------------------
 # B3LYP/6-311++G(d,p) empiricaldispersion=gd3bj scf=xqc pop=npa geom=c
 heck
 ----------------------------------------------------------------------

 -----------------------------------
 CID_88723377_JID_105_Energie_kation
 -----------------------------------
 Structure from the checkpoint file:  "JID_105.chk"
 Charge =  1 Multiplicity = 2

 SCF Done:  E(UB3LYP) =  -513.065129270     A.U. after   27 cycles
 Normal termination of Gaussian 16 at Tue Dec  8 10:20:39 2020.
 Gaussian 16:  ES64L-G16RevA.03 25-Dec-2016

 ----------------------------------------------------------------------
 # B3LYP/6-311++G(d,p) empiricaldispersion=gd3bj scf=xqc pop=npa geom=c
 heck
 ----------------------------------------------------------------------

 ----------------------------------
 CID_88723377_JID_105_Energie_anion
 ----------------------------------
 Structure from the checkpoint file:  "JID_105.chk"
 Charge = -1 Multiplicity = 2

                         Standard orientation:
 ---------------------------------------------------------------------
 Center     Atomic      Atomic             Coordinates (Angstroms)
 Number     Number       Type             X           Y           Z
 ---------------------------------------------------------------------
      1          6           0       -2.116434   -0.655867    1.471745
      2          6           0       -2.106322   -0.473652   -0.048768
      3          6           0       -2.089002    0.947945   -0.449387
      4          7           0       -2.113092    2.067763   -0.750225
      5          8           0       -1.074283   -1.232241   -0.693942
      6          6           0        0.232778   -0.926128   -0.532092
      7          6           0        0.794151    0.114689    0.106082
      8          6           0        2.250197    0.280678    0.173092
      9          8           0        2.810249    1.194189    0.745347
     10          8           0        2.945163   -0.702280   -0.469931
     11          1           0       -1.218646   -0.247635    1.937227
     12          1           0       -2.177469   -1.724337    1.694937
     13          1           0       -2.991006   -0.153570    1.894977
     14          1           0       -3.021287   -0.906380   -0.464490
     15          1           0        0.841774   -1.674536   -1.026876
     16          1           0        0.232598    0.901315    0.590544
     17          1           0        3.884426   -0.472524   -0.350563
 ---------------------------------------------------------------------

 SCF Done:  E(UB3LYP) =  -513.420853285     A.U. after   32 cycles

 The electronic state is 2-A.
 Alpha  occ. eigenvalues --  -19.05807 -19.04489 -18.97246 -14.21225 -10.16720
 Alpha  occ. eigenvalues --  -10.16341 -10.10775 -10.10672 -10.06864 -10.04268
 Alpha  occ. eigenvalues --   -0.97992  -0.97244  -0.88618  -0.80704  -0.70061
 Alpha  occ. eigenvalues --   -0.65631  -0.57660  -0.52451  -0.48139  -0.43510
 Alpha  occ. eigenvalues --   -0.40985  -0.36879  -0.35948  -0.34470  -0.32433
 Alpha  occ. eigenvalues --   -0.30933  -0.30558  -0.28577  -0.27931  -0.27540
 Alpha  occ. eigenvalues --   -0.25597  -0.24817  -0.22733  -0.22251  -0.20347
 Alpha  occ. eigenvalues --   -0.15433  -0.13303   0.04675
 Alpha virt. eigenvalues --    0.07016   0.08238   0.09047   0.10236   0.10967
 Alpha virt. eigenvalues --    0.11566   0.12411   0.13016   0.13916   0.15045
 Alpha virt. eigenvalues --    0.15828   0.16556   0.16986   0.17242   0.18308

  Beta  occ. eigenvalues --  -19.05750 -19.04469 -18.97059 -14.21201 -10.16692
  Beta  occ. eigenvalues --  -10.16167 -10.10757 -10.10305 -10.06788 -10.04277
  Beta  occ. eigenvalues --   -0.97827  -0.97053  -0.88359  -0.80646  -0.69836
  Beta  occ. eigenvalues --   -0.65348  -0.57456  -0.52089  -0.48016  -0.43255
  Beta  occ. eigenvalues --   -0.40777  -0.36712  -0.35737  -0.34242  -0.31733
  Beta  occ. eigenvalues --   -0.30829  -0.30439  -0.28441  -0.27707  -0.27380
  Beta  occ. eigenvalues --   -0.25165  -0.24729  -0.22645  -0.22087  -0.19713
  Beta  occ. eigenvalues --   -0.15264  -0.12406
  Beta virt. eigenvalues --    0.07879   0.08424   0.09589   0.09896   0.10812
  Beta virt. eigenvalues --    0.11253   0.11707   0.12789   0.13460   0.14208
  Beta virt. eigenvalues --    0.15000   0.15935   0.16532   0.17079   0.17298

 Mulliken charges and spin densities:
               1          2
     1  C    1.818196  -2.379520
     2  C   -1.511909   1.712734
     3  C    1.224752  -1.234645
     4  N   -0.383571   0.049142
     5  O   -0.032823  -0.023421
     6  C   -0.340606   0.035597
     7  C    0.075355   0.100806
     8  C    0.236653  -0.169615
     9  O   -0.380109   0.057714
    10  O   -0.247181   0.006044
    11  H   -0.035154   0.189620
    12  H   -0.433488   0.613230
    13  H   -0.426522   0.586701
    14  H   -1.067218   1.331516
    15  H    0.128989   0.047497
    16  H    0.126397   0.068052
    17  H    0.248239   0.008546
 Sum of Mulliken charges =  -1.00000   1.00000

 Dipole moment (field-independent basis, Debye):
    X=              5.4446    Y=             -1.1226    Z=             -1.6280  Tot=              5.7926
 Quadrupole moment (field-independent basis, Debye-Ang):
   XX=           -111.4567   YY=            -89.3873   ZZ=            -80.9498
   XY=            -11.4461   XZ=              0.7500   YZ=              2.2708

 Summary of Natural Population Analysis:

                                       Natural Population
                Natural  -----------------------------------------------
    Atom  No    Charge         Core      Valence    Rydberg      Total
 -----------------------------------------------------------------------
      C    1   -0.28937      0.99964     2.28346    0.00626     3.28937
      C    2    0.01309      0.99946     1.97054    0.01692     2.98691
      C    3    0.14986      0.99963     1.83286    0.01765     2.85014
      N    4   -0.17374      0.99979     2.66292    0.01102     3.67374
      O    5   -0.26096      0.99987     3.25073    0.01036     4.26096
      C    6    0.18114      0.99945     1.80460    0.01481     2.81886
      C    7   -0.23335      0.99949     2.22466    0.00920     3.23335
      C    8    0.40528      0.99970     1.57047    0.02455     2.59472
      O    9   -0.30935      0.99987     3.30321    0.00628     4.30935
      O   10   -0.36081      0.99988     3.35438    0.00655     4.36081
      H   11    0.10762      0.00000     0.39101    0.00136     0.39238
      H   12    0.10945      0.00000     0.38850    0.00204     0.39055
      H   13    0.10938      0.00000     0.38770    0.00292     0.39062
      H   14    0.11895      0.00000     0.37514    0.00590     0.38105
      H   15    0.09048      0.00000     0.40822    0.00130     0.40952
      H   16    0.10942      0.00000     0.38906    0.00152     0.39058
      H   17    0.23290      0.00000     0.26307    0.00403     0.26710
 =======================================================================
   * Total *    0.00000      9.99678    26.86054    0.14268    37.00000

 Normal termination of Gaussian 16 at Tue Dec  8 10:22:47 2020.
