 Gaussian 16, Revision A.03,

 -----------------------------------------------------------
 # opt freq B3LYP/6-31G(d) empiricaldispersion=gd3bj scf=xqc
 -----------------------------------------------------------

 ------------------------------
 CID_90861377_JID_3962_neutraal
 ------------------------------
 Symbolic Z-matrix:
 Charge =  0 Multiplicity = 1

 SCF Done:  E(RB3LYP) =  -607.732110954     A.U. after   15 cycles
 SCF Done:  E(RB3LYP) =  -607.734322615     A.U. after   12 cycles
 SCF Done:  E(RB3LYP) =  -607.734566179     A.U. after   11 cycles
 SCF Done:  E(RB3LYP) =  -607.734607845     A.U. after    9 cycles
 SCF Done:  E(RB3LYP) =  -607.734611292     A.U. after    9 cycles
 SCF Done:  E(RB3LYP) =  -607.734611907     A.U. after    8 cycles
 Optimization completed.
    -- Stationary point found.
 Normal termination of Gaussian 16 at Sun Dec 13 20:01:30 2020.

 --------------------------------------------------------------------
 #N Geom=AllCheck Guess=TCheck SCRF=Check GenChk RB3LYP/6-31G(d) Freq
 --------------------------------------------------------------------

 Structure from the checkpoint file:  "JID_3962.chk"
 ------------------------------
 CID_90861377_JID_3962_neutraal
 ------------------------------
 Charge =  0 Multiplicity = 1

 SCF Done:  E(RB3LYP) =  -607.734611907     A.U. after    1 cycles

  Exact polarizability: 183.141  -1.699 109.486   0.006  -0.002  45.789
 Approx polarizability: 257.730  -3.915 208.609   0.013  -0.017  71.221

                      1                      2                      3
                      A                      A                      A
 Frequencies --     53.2115                79.5395               126.7515
 Red. masses --      7.6739                 4.4946                 6.0460
 Frc consts  --      0.0128                 0.0168                 0.0572
 IR Inten    --      4.5372                 0.3688                 1.7362

                      4                      5                      6
                      A                      A                      A
 Frequencies --    163.1935               177.4402               254.1383
 Red. masses --      1.0754                 3.3867                 5.6716
 Frc consts  --      0.0169                 0.0628                 0.2158
 IR Inten    --      3.6312                 0.1621                 3.3348

                      7                      8                      9
                      A                      A                      A
 Frequencies --    300.1297               302.7075               317.8850
 Red. masses --      1.2974                 3.8356                 4.9958
 Frc consts  --      0.0689                 0.2071                 0.2974
 IR Inten    --     70.4251                 1.3807                 0.1315

                     10                     11                     12
                      A                      A                      A
 Frequencies --    355.5683               374.5533               462.8213
 Red. masses --      2.8299                 6.8443                 3.1424
 Frc consts  --      0.2108                 0.5657                 0.3966
 IR Inten    --     30.8090                 7.1770                 0.8424

                     13                     14                     15
                      A                      A                      A
 Frequencies --    519.1529               563.8778               610.3205
 Red. masses --      4.9421                 4.7293                 5.7701
 Frc consts  --      0.7848                 0.8860                 1.2663
 IR Inten    --      6.5980                 1.2683                 0.0009

                     16                     17                     18
                      A                      A                      A
 Frequencies --    653.3173               656.4975               712.4939
 Red. masses --      4.3688                 5.9788                 4.2192
 Frc consts  --      1.0986                 1.5182                 1.2620
 IR Inten    --     11.0738                 3.1034                 0.7908

                     19                     20                     21
                      A                      A                      A
 Frequencies --    739.9112               772.3964               817.4366
 Red. masses --      4.3492                 4.8526                 1.3921
 Frc consts  --      1.4029                 1.7057                 0.5481
 IR Inten    --     22.7601                 7.3573                 0.0613

                     22                     23                     24
                      A                      A                      A
 Frequencies --    830.5858               907.7669               909.9607
 Red. masses --      1.4758                 6.1626                 1.4291
 Frc consts  --      0.5998                 2.9920                 0.6972
 IR Inten    --     18.6327                21.7326                15.9830

                     25                     26                     27
                      A                      A                      A
 Frequencies --    946.4335               968.1610               975.6658
 Red. masses --      1.2824                 5.0655                11.8590
 Frc consts  --      0.6768                 2.7975                 6.6512
 IR Inten    --      0.0300                20.4831                 8.5529

                     28                     29                     30
                      A                      A                      A
 Frequencies --   1013.1453              1025.5042              1070.2380
 Red. masses --      2.7908                 2.6106                 1.4713
 Frc consts  --      1.6878                 1.6176                 0.9929
 IR Inten    --     17.2180                22.6817                 2.6271

                     31                     32                     33
                      A                      A                      A
 Frequencies --   1094.5500              1131.8139              1162.3495
 Red. masses --      2.7693                 4.1369                 1.5922
 Frc consts  --      1.9548                 3.1223                 1.2674
 IR Inten    --      4.0718                32.5362                 7.2006

                     34                     35                     36
                      A                      A                      A
 Frequencies --   1207.7189              1237.8156              1267.6287
 Red. masses --      1.3805                 2.2147                 1.8989
 Frc consts  --      1.1864                 1.9993                 1.7978
 IR Inten    --     43.6351                38.1640                63.6247

                     37                     38                     39
                      A                      A                      A
 Frequencies --   1306.4960              1329.7727              1349.9716
 Red. masses --      2.9009                 1.3746                 5.3188
 Frc consts  --      2.9174                 1.4321                 5.7110
 IR Inten    --     15.3686                35.1801                16.5536

                     40                     41                     42
                      A                      A                      A
 Frequencies --   1389.2178              1440.7983              1494.7057
 Red. masses --      4.7616                 1.2914                 2.5375
 Frc consts  --      5.4144                 1.5794                 3.3401
 IR Inten    --     73.3159                 2.8212                44.8793

                     43                     44                     45
                      A                      A                      A
 Frequencies --   1519.6376              1532.4506              1541.5968
 Red. masses --      1.0427                 1.3576                 2.6765
 Frc consts  --      1.4187                 1.8784                 3.7476
 IR Inten    --      7.4000                19.5505                82.4143

                     46                     47                     48
                      A                      A                      A
 Frequencies --   1559.5647              1604.2957              1639.9596
 Red. masses --      5.4296                 7.2089                 6.9402
 Frc consts  --      7.7808                10.9317                10.9973
 IR Inten    --     32.7364                59.6565                43.4788

                     49                     50                     51
                      A                      A                      A
 Frequencies --   1686.8373              3021.4302              3065.4175
 Red. masses --      6.1002                 1.0417                 1.1010
 Frc consts  --     10.2268                 5.6031                 6.0956
 IR Inten    --      4.1711                35.0091                21.0768

                     52                     53                     54
                      A                      A                      A
 Frequencies --   3135.9541              3188.6808              3229.7563
 Red. masses --      1.0954                 1.0894                 1.0927
 Frc consts  --      6.3469                 6.5262                 6.7158
 IR Inten    --      9.9998                15.9284                 3.2754

                     55                     56                     57
                      A                      A                      A
 Frequencies --   3238.4999              3313.9330              3768.7598
 Red. masses --      1.0917                 1.1001                 1.0654
 Frc consts  --      6.7459                 7.1182                 8.9160
 IR Inten    --      0.9263                 0.2276                53.3169

 - Thermochemistry -
 -------------------
 Temperature   298.150 Kelvin.  Pressure   1.00000 Atm.
 Atom     1 has atomic number  6 and mass  12.00000

 Molecular mass:   176.05858 amu.
 Principal axes and moments of inertia in atomic units:
                           1         2         3
     Eigenvalues --   769.615114131.585024889.88122
           X            1.00000  -0.00230  -0.00000
           Y            0.00230   1.00000   0.00003
           Z            0.00000  -0.00003   1.00000
 This molecule is an asymmetric top.
 Rotational symmetry number  1.
 Warning -- assumption of classical behavior for rotation
           may cause significant error
 Rotational temperatures (Kelvin)      0.11254     0.02096     0.01771
 Rotational constants (GHZ):           2.34499     0.43682     0.36908
 Zero-point vibrational energy     419413.2 (Joules/Mol)
                                  100.24217 (Kcal/Mol)
 Warning -- explicit consideration of  15 degrees of freedom as
           vibrations may cause significant error
 Vibrational temperatures:     76.56   114.44   182.37   234.80   255.30
          (Kelvin)            365.65   431.82   435.53   457.37   511.58
                              538.90   665.90   746.95   811.29   878.12
                              939.98   944.55  1025.12  1064.57  1111.31
                             1176.11  1195.03  1306.07  1309.23  1361.71
                             1392.97  1403.77  1457.69  1475.47  1539.83
                             1574.81  1628.43  1672.36  1737.64  1780.94
                             1823.83  1879.76  1913.25  1942.31  1998.77
                             2072.99  2150.55  2186.42  2204.85  2218.01
                             2243.87  2308.22  2359.54  2426.98  4347.16
                             4410.45  4511.94  4587.80  4646.90  4659.48
                             4768.01  5422.40

 Zero-point correction=                           0.159746 (Hartree/Particle)
 Thermal correction to Energy=                    0.170501
 Thermal correction to Enthalpy=                  0.171445
 Thermal correction to Gibbs Free Energy=         0.122732
 Sum of electronic and zero-point Energies=           -607.574866
 Sum of electronic and thermal Energies=              -607.564111
 Sum of electronic and thermal Enthalpies=            -607.563167
 Sum of electronic and thermal Free Energies=         -607.611880

                     E (Thermal)             CV                S
                      KCal/Mol        Cal/Mol-Kelvin    Cal/Mol-Kelvin
 Total                  106.991             41.037            102.525
 Electronic               0.000              0.000              0.000
 Translational            0.889              2.981             41.404
 Rotational               0.889              2.981             31.120
 Vibrational            105.213             35.076             30.001
 Vibration     1          0.596              1.976              4.694
 Vibration     2          0.600              1.963              3.902
 Vibration     3          0.611              1.926              2.995
 Vibration     4          0.623              1.888              2.512
 Vibration     5          0.628              1.870              2.355
 Vibration     6          0.665              1.756              1.702
 Vibration     7          0.693              1.673              1.416
 Vibration     8          0.694              1.669              1.402
 Vibration     9          0.704              1.639              1.321
 Vibration    10          0.731              1.564              1.141
 Vibration    11          0.746              1.524              1.061
 Vibration    12          0.820              1.333              0.758
 Vibration    13          0.874              1.208              0.612
 Vibration    14          0.920              1.109              0.516
 Vibration    15          0.969              1.010              0.432

                           ! Non-Optimized Parameters !
 Normal termination of Gaussian 16 at Sun Dec 13 20:06:08 2020.

 ----------------------------------------------------------------------
 # B3LYP/6-311++G(d,p) empiricaldispersion=gd3bj scf=xqc pop=npa geom=c
 heck
 ----------------------------------------------------------------------

 --------------------------------------
 CID_90861377_JID_3962_Energie_neutraal
 --------------------------------------
 Structure from the checkpoint file:  "JID_3962.chk"
 Charge =  0 Multiplicity = 1

 SCF Done:  E(RB3LYP) =  -607.903641887     A.U. after   14 cycles
 Normal termination of Gaussian 16 at Sun Dec 13 20:08:00 2020.

 ----------------------------------------------------------------------
 # B3LYP/6-311++G(d,p) empiricaldispersion=gd3bj scf=xqc pop=npa geom=c
 heck
 ----------------------------------------------------------------------

 ------------------------------------
 CID_90861377_JID_3962_Energie_kation
 ------------------------------------
 Structure from the checkpoint file:  "JID_3962.chk"
 Charge =  1 Multiplicity = 2

 SCF Done:  E(UB3LYP) =  -607.596379203     A.U. after   22 cycles
 Normal termination of Gaussian 16 at Sun Dec 13 20:12:08 2020.
 Gaussian 16:  ES64L-G16RevA.03 25-Dec-2016

 ----------------------------------------------------------------------
 # B3LYP/6-311++G(d,p) empiricaldispersion=gd3bj scf=xqc pop=npa geom=c
 heck
 ----------------------------------------------------------------------

 -----------------------------------
 CID_90861377_JID_3962_Energie_anion
 -----------------------------------
 Structure from the checkpoint file:  "JID_3962.chk"
 Charge = -1 Multiplicity = 2

                         Standard orientation:
 ---------------------------------------------------------------------
 Center     Atomic      Atomic             Coordinates (Angstroms)
 Number     Number       Type             X           Y           Z
 ---------------------------------------------------------------------
      1          6           0        3.974067   -0.651720   -0.000267
      2          6           0        2.476065   -0.482441   -0.000177
      3          6           0        1.906061    0.805809    0.000193
      4          6           0        0.525344    0.980293    0.000179
      5          6           0       -0.315464   -0.138538   -0.000044
      6          6           0        0.230243   -1.429367   -0.000218
      7          6           0        1.612984   -1.581690   -0.000286
      8          6           0       -1.756760    0.068016   -0.000099
      9          7           0       -2.420819    1.187654   -0.001025
     10          7           0       -3.778215    0.850366   -0.000553
     11          6           0       -3.821788   -0.440230    0.000473
     12          8           0       -2.592162   -1.019671    0.000932
     13          8           0        2.670979    1.938121    0.000422
     14          1           0        4.439622   -0.195293   -0.885500
     15          1           0        4.439184   -0.200511    0.887883
     16          1           0        4.246885   -1.710139   -0.003352
     17          1           0        0.109035    1.980849    0.000389
     18          1           0       -0.420522   -2.296089   -0.000362
     19          1           0        2.041069   -2.580662   -0.000555
     20          1           0       -4.685543   -1.086923    0.001104
     21          1           0        3.608468    1.694229    0.002087
 ---------------------------------------------------------------------

 SCF Done:  E(UB3LYP) =  -607.906518938     A.U. after   29 cycles

 The electronic state is 2-A.
 Alpha  occ. eigenvalues --  -19.04267 -19.02524 -14.18955 -14.15983 -10.10555
 Alpha  occ. eigenvalues --  -10.08830 -10.08491 -10.06072 -10.02811 -10.02389
 Alpha  occ. eigenvalues --  -10.02042 -10.01790 -10.00704  -0.99724  -0.93501
 Alpha  occ. eigenvalues --   -0.81970  -0.71483  -0.68125  -0.63684  -0.59691
 Alpha  occ. eigenvalues --   -0.56710  -0.50472  -0.48393  -0.45796  -0.45484
 Alpha  occ. eigenvalues --   -0.40225  -0.36967  -0.35238  -0.33977  -0.32845
 Alpha  occ. eigenvalues --   -0.31598  -0.29668  -0.29291  -0.28070  -0.26697
 Alpha  occ. eigenvalues --   -0.26639  -0.25321  -0.22113  -0.20792  -0.20140
 Alpha  occ. eigenvalues --   -0.19371  -0.17071  -0.15044  -0.12571  -0.09603
 Alpha  occ. eigenvalues --   -0.08443   0.05695
 Alpha virt. eigenvalues --    0.07348   0.09408   0.09804   0.11070   0.11205
 Alpha virt. eigenvalues --    0.13101   0.13118   0.13786   0.14239   0.14457
 Alpha virt. eigenvalues --    0.16054   0.16769   0.17130   0.18107   0.18132

  Beta  occ. eigenvalues --  -19.03986 -19.02528 -14.19061 -14.15700 -10.10380
  Beta  occ. eigenvalues --  -10.08600 -10.08572 -10.06103 -10.02841 -10.02013
  Beta  occ. eigenvalues --  -10.01831 -10.01702 -10.00466  -0.99308  -0.93510
  Beta  occ. eigenvalues --   -0.81669  -0.71045  -0.67691  -0.63322  -0.59389
  Beta  occ. eigenvalues --   -0.56395  -0.50261  -0.47897  -0.45592  -0.45269
  Beta  occ. eigenvalues --   -0.39933  -0.36737  -0.35093  -0.32812  -0.32596
  Beta  occ. eigenvalues --   -0.31230  -0.29536  -0.29105  -0.27896  -0.26502
  Beta  occ. eigenvalues --   -0.26491  -0.25196  -0.21914  -0.19988  -0.19822
  Beta  occ. eigenvalues --   -0.18314  -0.17005  -0.13606  -0.12269  -0.08389
  Beta  occ. eigenvalues --   -0.06986
  Beta virt. eigenvalues --    0.07281   0.09343   0.09700   0.10752   0.11110
  Beta virt. eigenvalues --    0.11925   0.13037   0.13658   0.13720   0.14332
  Beta virt. eigenvalues --    0.14599   0.15945   0.16717   0.17355   0.18037

 Mulliken charges and spin densities:
               1          2
     1  C   -0.635309  -0.039010
     2  C    1.397587   0.202067
     3  C   -0.815572  -0.037943
     4  C   -0.924480   0.222831
     5  C    0.917560   0.070128
     6  C   -0.745261   0.120150
     7  C   -0.569819   0.017873
     8  C   -0.212164   0.112118
     9  N   -0.147723   0.137920
    10  N   -0.103266  -0.060062
    11  C    0.075934   0.158052
    12  O   -0.096520   0.052745
    13  O   -0.253965  -0.002941
    14  H    0.094419   0.037343
    15  H    0.094526   0.037786
    16  H    0.155420   0.000436
    17  H    0.181860  -0.014328
    18  H    0.132012  -0.004929
    19  H    0.061201   0.000319
    20  H    0.131139  -0.010489
    21  H    0.262421  -0.000065
 Sum of Mulliken charges =  -1.00000   1.00000

 Dipole moment (field-independent basis, Debye):
    X=              4.4033    Y=             -3.5258    Z=              0.0035  Tot=              5.6409
 Quadrupole moment (field-independent basis, Debye-Ang):
   XX=           -107.1283   YY=            -92.3814   ZZ=            -84.4689
   XY=             11.3329   XZ=             -0.0067   YZ=              0.0119

 Summary of Natural Population Analysis:

                                       Natural Population
                Natural  -----------------------------------------------
    Atom  No    Charge         Core      Valence    Rydberg      Total
 -----------------------------------------------------------------------
      C    1   -0.30408      0.99965     2.29865    0.00578     3.30408
      C    2    0.00166      0.99948     1.98959    0.00927     2.99834
      C    3    0.13792      0.99935     1.85086    0.01187     2.86208
      C    4   -0.05988      0.99951     2.05096    0.00942     3.05988
      C    5   -0.02262      0.99948     2.01421    0.00893     3.02262
      C    6   -0.08737      0.99955     2.07907    0.00874     3.08737
      C    7   -0.11154      0.99955     2.10327    0.00873     3.11154
      C    8    0.28489      0.99956     1.69593    0.01962     2.71511
      N    9   -0.14215      0.99967     2.62856    0.01393     3.64215
      N   10   -0.19648      0.99973     2.68113    0.01561     3.69648
      C   11    0.18509      0.99957     1.79386    0.02148     2.81491
      O   12   -0.22630      0.99986     3.21708    0.00936     4.22630
      O   13   -0.35031      0.99988     3.34338    0.00706     4.35031
      H   14    0.09550      0.00000     0.40289    0.00161     0.40450
      H   15    0.09554      0.00000     0.40285    0.00161     0.40446
      H   16    0.10189      0.00000     0.39728    0.00083     0.39811
      H   17    0.10629      0.00000     0.39187    0.00184     0.39371
      H   18    0.09727      0.00000     0.40139    0.00133     0.40273
      H   19    0.08738      0.00000     0.41162    0.00100     0.41262
      H   20    0.07858      0.00000     0.41962    0.00181     0.42142
      H   21    0.22892      0.00000     0.26870    0.00238     0.27108
 =======================================================================
   * Total *    0.00018     12.99485    32.84277    0.16221    45.99982

 Normal termination of Gaussian 16 at Sun Dec 13 20:17:33 2020.
