 Gaussian 16, Revision A.03,

 -----------------------------------------------------------
 # opt freq B3LYP/6-31G(d) empiricaldispersion=gd3bj scf=xqc
 -----------------------------------------------------------

 -------------------------------
 CID_17400942_JID_10401_neutraal
 -------------------------------
 Symbolic Z-matrix:
 Charge =  0 Multiplicity = 1

 SCF Done:  E(RB3LYP) =  -1275.26547358     A.U. after   15 cycles
 SCF Done:  E(RB3LYP) =  -1275.27273869     A.U. after   13 cycles
 SCF Done:  E(RB3LYP) =  -1275.27350396     A.U. after   12 cycles
 SCF Done:  E(RB3LYP) =  -1275.27365294     A.U. after   11 cycles
 SCF Done:  E(RB3LYP) =  -1275.27376838     A.U. after   11 cycles
 SCF Done:  E(RB3LYP) =  -1275.27378197     A.U. after   11 cycles
 SCF Done:  E(RB3LYP) =  -1275.27378673     A.U. after   10 cycles
 SCF Done:  E(RB3LYP) =  -1275.27379083     A.U. after   10 cycles
 SCF Done:  E(RB3LYP) =  -1275.27379814     A.U. after   11 cycles
 SCF Done:  E(RB3LYP) =  -1275.27380267     A.U. after   11 cycles
 SCF Done:  E(RB3LYP) =  -1275.27380676     A.U. after   10 cycles
 SCF Done:  E(RB3LYP) =  -1275.27380693     A.U. after   10 cycles
 SCF Done:  E(RB3LYP) =  -1275.27380701     A.U. after    9 cycles
 SCF Done:  E(RB3LYP) =  -1275.27380703     A.U. after    8 cycles
 SCF Done:  E(RB3LYP) =  -1275.27380703     A.U. after    8 cycles
 Optimization completed.
    -- Stationary point found.
 Normal termination of Gaussian 16 at Sat Dec 12 15:28:04 2020.

 --------------------------------------------------------------------
 #N Geom=AllCheck Guess=TCheck SCRF=Check GenChk RB3LYP/6-31G(d) Freq
 --------------------------------------------------------------------

 Structure from the checkpoint file:  "JID_10401.chk"
 -------------------------------
 CID_17400942_JID_10401_neutraal
 -------------------------------
 Charge =  0 Multiplicity = 1

 SCF Done:  E(RB3LYP) =  -1275.27380703     A.U. after    1 cycles

  Exact polarizability: 251.922   7.447 173.268  21.814 -10.081 114.512
 Approx polarizability: 324.137  13.058 289.013  42.835 -26.944 193.242

                      1                      2                      3
                      A                      A                      A
 Frequencies --      2.6605                15.3401                18.2310
 Red. masses --      5.6737                 5.2958                 3.5163
 Frc consts  --      0.0000                 0.0007                 0.0007
 IR Inten    --      3.8273                 0.3998                 0.2674

                      4                      5                      6
                      A                      A                      A
 Frequencies --     32.6725                48.5893                81.0956
 Red. masses --      5.4936                 7.3377                 5.5374
 Frc consts  --      0.0035                 0.0102                 0.0215
 IR Inten    --      0.9493                 1.0062                 0.1476

                      7                      8                      9
                      A                      A                      A
 Frequencies --    131.8002               146.8139               172.9549
 Red. masses --      4.3070                 4.2995                 4.2247
 Frc consts  --      0.0441                 0.0546                 0.0745
 IR Inten    --      0.5409                 1.1865                 0.4003

                     10                     11                     12
                      A                      A                      A
 Frequencies --    210.6715               231.5720               265.8066
 Red. masses --      4.5019                 3.6825                 6.2364
 Frc consts  --      0.1177                 0.1163                 0.2596
 IR Inten    --      1.2474                 9.1263                 0.7650

                     13                     14                     15
                      A                      A                      A
 Frequencies --    291.3640               326.3523               350.5759
 Red. masses --      4.4185                 4.0713                 4.8307
 Frc consts  --      0.2210                 0.2555                 0.3498
 IR Inten    --      3.1488                 1.8625                 6.0345

                     16                     17                     18
                      A                      A                      A
 Frequencies --    394.8815               413.1208               419.5991
 Red. masses --      4.2949                 6.1336                 4.0775
 Frc consts  --      0.3946                 0.6168                 0.4230
 IR Inten    --      2.1990                 1.2685                 1.6746

                     19                     20                     21
                      A                      A                      A
 Frequencies --    429.0141               472.6929               513.7914
 Red. masses --      4.7957                 3.3364                 7.6113
 Frc consts  --      0.5200                 0.4392                 1.1838
 IR Inten    --      2.0062                 1.1759                 0.3642

                     22                     23                     24
                      A                      A                      A
 Frequencies --    527.0554               548.8308               564.4202
 Red. masses --      7.5518                 5.3516                 4.9228
 Frc consts  --      1.2360                 0.9497                 0.9240
 IR Inten    --      2.1489                 1.0595                 0.1915

                     25                     26                     27
                      A                      A                      A
 Frequencies --    581.4739               674.0701               687.7206
 Red. masses --      5.9820                 2.8122                 8.2291
 Frc consts  --      1.1917                 0.7529                 2.2931
 IR Inten    --      1.0195                 4.1730                 2.2816

                     28                     29                     30
                      A                      A                      A
 Frequencies --    712.7624               716.0742               745.2475
 Red. masses --      5.0431                 4.0872                 6.1890
 Frc consts  --      1.5095                 1.2348                 2.0252
 IR Inten    --      2.8265                 4.1247                 2.2459

                     31                     32                     33
                      A                      A                      A
 Frequencies --    756.6794               764.1905               776.7639
 Red. masses --      5.4581                 1.2559                 3.1340
 Frc consts  --      1.8413                 0.4321                 1.1141
 IR Inten    --     16.9931                54.8942                 6.4731

                     34                     35                     36
                      A                      A                      A
 Frequencies --    807.9903               829.5470               836.8061
 Red. masses --      1.0806                 1.6790                 3.0190
 Frc consts  --      0.4157                 0.6807                 1.2455
 IR Inten    --      0.6950                 7.0702                 3.6776

                     37                     38                     39
                      A                      A                      A
 Frequencies --    853.9834               858.8743               912.0598
 Red. masses --      4.2002                 1.4651                 2.8366
 Frc consts  --      1.8048                 0.6367                 1.3903
 IR Inten    --     18.8673                 1.1700                12.3137

                     40                     41                     42
                      A                      A                      A
 Frequencies --    919.5758               930.7222               961.9232
 Red. masses --      3.5922                 1.3416                 1.2170
 Frc consts  --      1.7897                 0.6847                 0.6634
 IR Inten    --     31.4214                 3.4574                 0.3878

                     43                     44                     45
                      A                      A                      A
 Frequencies --    964.8033               971.2173               976.8819
 Red. masses --      2.1532                 2.8218                13.6961
 Frc consts  --      1.1809                 1.5682                 7.7007
 IR Inten    --     47.8255                24.8824                 8.8888

                     46                     47                     48
                      A                      A                      A
 Frequencies --    992.1626              1044.8386              1057.7311
 Red. masses --      8.9711                 3.7584                 2.3067
 Frc consts  --      5.2031                 2.4174                 1.5205
 IR Inten    --      3.1754                11.6284                 0.1919

                     49                     50                     51
                      A                      A                      A
 Frequencies --   1066.3546              1079.2181              1102.0819
 Red. masses --      3.1640                 1.2655                 1.3300
 Frc consts  --      2.1198                 0.8684                 0.9518
 IR Inten    --      4.2924                 9.2203                 4.7430

                     52                     53                     54
                      A                      A                      A
 Frequencies --   1105.9871              1122.1626              1128.0767
 Red. masses --      2.8094                 2.2015                 1.3022
 Frc consts  --      2.0247                 1.6333                 0.9763
 IR Inten    --    103.2492                35.3791                22.6881

                     55                     56                     57
                      A                      A                      A
 Frequencies --   1131.8984              1141.5550              1148.3592
 Red. masses --      1.7325                 4.5563                 1.6764
 Frc consts  --      1.3078                 3.4983                 1.3025
 IR Inten    --     51.1405                41.5986                19.9378

                     58                     59                     60
                      A                      A                      A
 Frequencies --   1185.6197              1202.8856              1220.5773
 Red. masses --      1.1027                 1.3031                 1.3685
 Frc consts  --      0.9132                 1.1109                 1.2012
 IR Inten    --      3.7679                 1.5006                 0.3203

                     61                     62                     63
                      A                      A                      A
 Frequencies --   1223.1173              1231.9026              1267.5426
 Red. masses --      2.5810                 2.3669                 2.5520
 Frc consts  --      2.2749                 2.1164                 2.4157
 IR Inten    --     28.4504                 5.4474                12.3173

                     64                     65                     66
                      A                      A                      A
 Frequencies --   1286.4291              1296.4893              1314.2176
 Red. masses --      1.6604                 1.3482                 1.5819
 Frc consts  --      1.6190                 1.3352                 1.6098
 IR Inten    --    147.7640                18.6992                18.1638

                     67                     68                     69
                      A                      A                      A
 Frequencies --   1321.4170              1359.1600              1391.6455
 Red. masses --      1.8568                 4.3353                 1.8149
 Frc consts  --      1.9102                 4.7186                 2.0709
 IR Inten    --    221.8727                 9.0712                21.7453

                     70                     71                     72
                      A                      A                      A
 Frequencies --   1409.7113              1417.9481              1458.4414
 Red. masses --      1.3209                 1.3546                 2.0359
 Frc consts  --      1.5467                 1.6046                 2.5514
 IR Inten    --      3.1122                 8.3109                11.1110

                     73                     74                     75
                      A                      A                      A
 Frequencies --   1487.8319              1492.6006              1508.7428
 Red. masses --      1.0876                 1.1024                 2.1709
 Frc consts  --      1.4185                 1.4470                 2.9116
 IR Inten    --      2.7921                 8.7493                 1.8981

                     76                     77                     78
                      A                      A                      A
 Frequencies --   1523.7798              1528.1457              1530.4210
 Red. masses --      1.3736                 1.4691                 5.7749
 Frc consts  --      1.8791                 2.0213                 7.9692
 IR Inten    --     54.1480                 8.0949                32.2608

                     79                     80                     81
                      A                      A                      A
 Frequencies --   1547.0565              1612.5742              1650.1944
 Red. masses --      2.6731                10.2136                 7.0822
 Frc consts  --      3.7695                15.6484                11.3629
 IR Inten    --    200.5743               124.2527                31.9772

                     82                     83                     84
                      A                      A                      A
 Frequencies --   1668.1763              3054.0241              3100.1579
 Red. masses --      6.4838                 1.0697                 1.0813
 Frc consts  --     10.6308                 5.8783                 6.1229
 IR Inten    --      3.3134                33.0491                15.0343

                     85                     86                     87
                      A                      A                      A
 Frequencies --   3107.3022              3159.7612              3161.1507
 Red. masses --      1.0634                 1.0513                 1.0975
 Frc consts  --      6.0495                 6.1841                 6.4616
 IR Inten    --     15.9489                10.6005                12.9931

                     88                     89                     90
                      A                      A                      A
 Frequencies --   3162.4530              3164.2811              3194.3390
 Red. masses --      1.0575                 1.1081                 1.0854
 Frc consts  --      6.2315                 6.5372                 6.5255
 IR Inten    --      9.6437                 0.9633                 1.0961

                     91                     92                     93
                      A                      A                      A
 Frequencies --   3205.8562              3205.9008              3214.8805
 Red. masses --      1.0894                 1.0904                 1.0932
 Frc consts  --      6.5967                 6.6027                 6.6568
 IR Inten    --     13.1531                 1.6149                14.7908

                     94                     95                     96
                      A                      A                      A
 Frequencies --   3221.4621              3243.4559              3256.8701
 Red. masses --      1.0973                 1.1209                 1.1170
 Frc consts  --      6.7096                 6.9477                 6.9805
 IR Inten    --     12.7685                 0.6922                 6.9132

 - Thermochemistry -
 -------------------
 Temperature   298.150 Kelvin.  Pressure   1.00000 Atm.
 Atom     1 has atomic number  6 and mass  12.00000

 Molecular mass:   290.07251 amu.
 Principal axes and moments of inertia in atomic units:
                           1         2         3
     Eigenvalues --  2381.51110********************
           X            0.99995   0.01033   0.00172
           Y           -0.01031   0.99984  -0.01446
           Z           -0.00187   0.01444   0.99989
 This molecule is an asymmetric top.
 Rotational symmetry number  1.
 Warning -- assumption of classical behavior for rotation
           may cause significant error
 Rotational temperatures (Kelvin)      0.03637     0.00668     0.00603
 Rotational constants (GHZ):           0.75781     0.13912     0.12560
 Zero-point vibrational energy     697173.0 (Joules/Mol)
                                  166.62834 (Kcal/Mol)
 Warning -- explicit consideration of  25 degrees of freedom as
           vibrations may cause significant error
 Vibrational temperatures:      3.83    22.07    26.23    47.01    69.91
          (Kelvin)            116.68   189.63   211.23   248.84   303.11
                              333.18   382.44   419.21   469.55   504.40
                              568.15   594.39   603.71   617.26   680.10
                              739.23   758.32   789.65   812.07   836.61
                              969.84   989.48  1025.51  1030.27  1072.24
                             1088.69  1099.50  1117.59  1162.52  1193.53
                             1203.98  1228.69  1235.73  1312.25  1323.06
                             1339.10  1383.99  1388.14  1397.37  1405.52
                             1427.50  1503.29  1521.84  1534.25  1552.75
                             1585.65  1591.27  1614.54  1623.05  1628.55
                             1642.44  1652.23  1705.84  1730.68  1756.14
                             1759.79  1772.43  1823.71  1850.88  1865.36
                             1890.87  1901.22  1955.53  2002.27  2028.26
                             2040.11  2098.37  2140.66  2147.52  2170.74
                             2192.38  2198.66  2201.93  2225.87  2320.13
                             2374.26  2400.13  4394.06  4460.44  4470.71
                             4546.19  4548.19  4550.06  4552.69  4595.94
                             4612.51  4612.58  4625.50  4634.97  4666.61
                             4685.91

 Zero-point correction=                           0.265539 (Hartree/Particle)
 Thermal correction to Energy=                    0.282625
 Thermal correction to Enthalpy=                  0.283569
 Thermal correction to Gibbs Free Energy=         0.214108
 Sum of electronic and zero-point Energies=          -1275.008268
 Sum of electronic and thermal Energies=             -1274.991182
 Sum of electronic and thermal Enthalpies=           -1274.990238
 Sum of electronic and thermal Free Energies=        -1275.059699

                     E (Thermal)             CV                S
                      KCal/Mol        Cal/Mol-Kelvin    Cal/Mol-Kelvin
 Total                  177.350             65.160            146.193
 Electronic               0.000              0.000              0.000
 Translational            0.889              2.981             42.892
 Rotational               0.889              2.981             34.450
 Vibrational            175.572             59.198             68.850
 Vibration     1          0.592              1.987             10.642
 Vibration     2          0.593              1.986              7.161
 Vibration     3          0.593              1.986              6.818
 Vibration     4          0.594              1.983              5.660
 Vibration     5          0.595              1.978              4.874
 Vibration     6          0.600              1.962              3.864
 Vibration     7          0.612              1.922              2.920
 Vibration     8          0.617              1.906              2.713
 Vibration     9          0.626              1.876              2.403
 Vibration    10          0.643              1.825              2.038
 Vibration    11          0.653              1.793              1.867
 Vibration    12          0.672              1.736              1.623
 Vibration    13          0.687              1.690              1.466
 Vibration    14          0.710              1.623              1.278
 Vibration    15          0.727              1.574              1.164
 Vibration    16          0.762              1.481              0.982
 Vibration    17          0.777              1.442              0.916
 Vibration    18          0.782              1.428              0.893
 Vibration    19          0.790              1.407              0.862
 Vibration    20          0.830              1.311              0.730
 Vibration    21          0.869              1.219              0.625
 Vibration    22          0.882              1.190              0.594
 Vibration    23          0.904              1.142              0.547
 Vibration    24          0.920              1.108              0.515
 Vibration    25          0.938              1.071              0.483

                           ! Non-Optimized Parameters !
 Normal termination of Gaussian 16 at Sat Dec 12 15:43:00 2020.

 ----------------------------------------------------------------------
 # B3LYP/6-311++G(d,p) empiricaldispersion=gd3bj scf=xqc pop=npa geom=c
 heck
 ----------------------------------------------------------------------

 ---------------------------------------
 CID_17400942_JID_10401_Energie_neutraal
 ---------------------------------------
 Structure from the checkpoint file:  "JID_10401.chk"
 Charge =  0 Multiplicity = 1

 SCF Done:  E(RB3LYP) =  -1275.53333970     A.U. after   15 cycles
 Normal termination of Gaussian 16 at Sat Dec 12 15:48:54 2020.

 ----------------------------------------------------------------------
 # B3LYP/6-311++G(d,p) empiricaldispersion=gd3bj scf=xqc pop=npa geom=c
 heck
 ----------------------------------------------------------------------

 -------------------------------------
 CID_17400942_JID_10401_Energie_kation
 -------------------------------------
 Structure from the checkpoint file:  "JID_10401.chk"
 Charge =  1 Multiplicity = 2

 SCF Done:  E(UB3LYP) =  -1275.24455978     A.U. after   27 cycles
 Normal termination of Gaussian 16 at Sat Dec 12 16:02:43 2020.
 Gaussian 16:  ES64L-G16RevA.03 25-Dec-2016

 ----------------------------------------------------------------------
 # B3LYP/6-311++G(d,p) empiricaldispersion=gd3bj scf=xqc pop=npa geom=c
 heck
 ----------------------------------------------------------------------

 ------------------------------------
 CID_17400942_JID_10401_Energie_anion
 ------------------------------------
 Structure from the checkpoint file:  "JID_10401.chk"
 Charge = -1 Multiplicity = 2

                         Standard orientation:
 ---------------------------------------------------------------------
 Center     Atomic      Atomic             Coordinates (Angstroms)
 Number     Number       Type             X           Y           Z
 ---------------------------------------------------------------------
      1          6           0        5.006931    2.209377    0.670176
      2          6           0        5.963365    1.329472   -0.068403
      3          6           0        4.496186    1.326229   -0.461023
      4          6           0        3.687661    0.154045   -0.122877
      5          7           0        3.838064   -0.686149    0.857329
      6          7           0        2.774437   -1.591887    0.774554
      7          6           0        2.077660   -1.246284   -0.262888
      8          8           0        2.596860   -0.136166   -0.890755
      9         16           0        0.670087   -2.039898   -0.934575
     10          6           0       -0.495967   -0.616607   -0.921607
     11          6           0       -0.820811   -0.115430    0.489394
     12          6           0       -1.607911   -1.117174    1.325988
     13          8           0       -2.849307   -1.419042    0.689971
     14          6           0       -3.549429   -0.295317    0.317162
     15          6           0       -4.915635   -0.411008    0.065618
     16          6           0       -5.651279    0.706360   -0.324166
     17          6           0       -5.021192    1.946611   -0.455600
     18          6           0       -3.653800    2.064342   -0.214792
     19          6           0       -2.912327    0.946314    0.164766
     20          8           0       -1.561891    1.106604    0.383222
     21          1           0        5.027165    3.279534    0.487455
     22          1           0        4.720402    1.914896    1.674703
     23          1           0        6.658078    1.781136   -0.769900
     24          1           0        6.324368    0.438682    0.435484
     25          1           0        4.213138    1.806936   -1.391106
     26          1           0       -0.081904    0.198586   -1.517806
     27          1           0       -1.397438   -0.987922   -1.415736
     28          1           0        0.102761    0.151177    1.011494
     29          1           0       -1.070312   -2.060695    1.425345
     30          1           0       -1.790589   -0.692438    2.321511
     31          1           0       -5.378436   -1.385200    0.187509
     32          1           0       -6.715272    0.608829   -0.516262
     33          1           0       -5.590924    2.821994   -0.751798
     34          1           0       -3.135953    3.012355   -0.320859
 ---------------------------------------------------------------------

 SCF Done:  E(UB3LYP) =  -1275.52675218     A.U. after   33 cycles
 SCF Done:  E(UB3LYP) =  -1275.52675218     a.u. after    1 cycles

 The electronic state is 2-A.
 Alpha  occ. eigenvalues --  -88.76891 -19.10046 -19.07643 -19.07395 -14.23136
 Alpha  occ. eigenvalues --  -14.23026 -10.17026 -10.16333 -10.15685 -10.15362
 Alpha  occ. eigenvalues --  -10.15272 -10.14983 -10.11254 -10.10857 -10.09503
 Alpha  occ. eigenvalues --  -10.09436 -10.09335 -10.09271 -10.09249 -10.09197
 Alpha  occ. eigenvalues --   -7.85417  -5.81829  -5.81450  -5.80786  -1.05185
 Alpha  occ. eigenvalues --   -1.01049  -0.97403  -0.87440  -0.79286  -0.77982
 Alpha  occ. eigenvalues --   -0.74855  -0.71697  -0.67935  -0.67264  -0.63409
 Alpha  occ. eigenvalues --   -0.60445  -0.58502  -0.56305  -0.54089  -0.52155
 Alpha  occ. eigenvalues --   -0.50474  -0.48628  -0.47708  -0.46739  -0.43756
 Alpha  occ. eigenvalues --   -0.42899  -0.42731  -0.40215  -0.39919  -0.39005
 Alpha  occ. eigenvalues --   -0.37908  -0.37433  -0.35919  -0.35568  -0.35332
 Alpha  occ. eigenvalues --   -0.32992  -0.31940  -0.31700  -0.30739  -0.30509
 Alpha  occ. eigenvalues --   -0.29007  -0.28824  -0.28516  -0.27343  -0.25244
 Alpha  occ. eigenvalues --   -0.24541  -0.24473  -0.23665  -0.22957  -0.22645
 Alpha  occ. eigenvalues --   -0.22136  -0.18247  -0.17623  -0.16244  -0.14490
 Alpha  occ. eigenvalues --   -0.13622   0.03952
 Alpha virt. eigenvalues --    0.05271   0.05826   0.06553   0.07064   0.07413
 Alpha virt. eigenvalues --    0.07946   0.08218   0.08457   0.09033   0.09351
 Alpha virt. eigenvalues --    0.09635   0.09996   0.10854   0.10986   0.11655

  Beta  occ. eigenvalues --  -88.76884 -19.09874 -19.07638 -19.07388 -14.23075
  Beta  occ. eigenvalues --  -14.23022 -10.16860 -10.16196 -10.15677 -10.15358
  Beta  occ. eigenvalues --  -10.15271 -10.14981 -10.11125 -10.10861 -10.09497
  Beta  occ. eigenvalues --  -10.09410 -10.09327 -10.09239 -10.09226 -10.09187
  Beta  occ. eigenvalues --   -7.85409  -5.81798  -5.81452  -5.80780  -1.04929
  Beta  occ. eigenvalues --   -1.01037  -0.97391  -0.87271  -0.79173  -0.77960
  Beta  occ. eigenvalues --   -0.74655  -0.71595  -0.67885  -0.67191  -0.63358
  Beta  occ. eigenvalues --   -0.60358  -0.58387  -0.56169  -0.54068  -0.52064
  Beta  occ. eigenvalues --   -0.50330  -0.48506  -0.47649  -0.46716  -0.43712
  Beta  occ. eigenvalues --   -0.42812  -0.42688  -0.40109  -0.39537  -0.38808
  Beta  occ. eigenvalues --   -0.37776  -0.37301  -0.35873  -0.35548  -0.35241
  Beta  occ. eigenvalues --   -0.32911  -0.31916  -0.31658  -0.30633  -0.30377
  Beta  occ. eigenvalues --   -0.28957  -0.28766  -0.28473  -0.27090  -0.25080
  Beta  occ. eigenvalues --   -0.24398  -0.23965  -0.23461  -0.22854  -0.22621
  Beta  occ. eigenvalues --   -0.22084  -0.18096  -0.17413  -0.16207  -0.14267
  Beta  occ. eigenvalues --   -0.13509
  Beta virt. eigenvalues --    0.05797   0.06458   0.06551   0.07200   0.07324
  Beta virt. eigenvalues --    0.07589   0.08324   0.08476   0.08735   0.09235
  Beta virt. eigenvalues --    0.09452   0.09778   0.10272   0.11100   0.11138

 Mulliken charges and spin densities:
               1          2
     1  C    0.631056  -1.119020
     2  C   -0.110007  -0.404108
     3  C   -1.047338   1.644988
     4  C    0.834377  -0.923555
     5  N   -0.130319  -0.036553
     6  N    0.113339   0.041657
     7  C   -0.370811  -0.136158
     8  O    0.134056   0.032802
     9  S   -0.117745  -0.037099
    10  C   -0.069236  -0.554913
    11  C   -0.244891   0.290855
    12  C    0.095887  -0.405061
    13  O   -0.043838  -0.000458
    14  C    0.740541  -0.582776
    15  C   -1.464934   0.911875
    16  C    0.284261  -0.679394
    17  C    0.534248  -0.787424
    18  C   -1.524294   1.102460
    19  C    1.344498  -0.678529
    20  O   -0.020073  -0.018705
    21  H   -0.420590   0.582766
    22  H    0.113695   0.041016
    23  H   -0.002914   0.149677
    24  H    0.123173   0.036177
    25  H   -0.527791   0.800593
    26  H    0.241941   0.045189
    27  H   -0.017680   0.235215
    28  H    0.260396   0.062710
    29  H    0.213518  -0.023178
    30  H    0.091987   0.075857
    31  H    0.006056   0.177546
    32  H   -0.300557   0.455486
    33  H   -0.217839   0.381558
    34  H   -0.132168   0.318503
 Sum of Mulliken charges =  -1.00000   1.00000

 Dipole moment (field-independent basis, Debye):
    X=             -1.8935    Y=             -2.9140    Z=              1.3383  Tot=              3.7239
 Quadrupole moment (field-independent basis, Debye-Ang):
   XX=           -234.4194   YY=           -172.7534   ZZ=           -148.8105
   XY=             -2.9809   XZ=             -6.4383   YZ=              4.5813

 Summary of Natural Population Analysis:

                                       Natural Population
                Natural  -----------------------------------------------
    Atom  No    Charge         Core      Valence    Rydberg      Total
 -----------------------------------------------------------------------
      C    1   -0.18237      0.99963     2.17442    0.00831     3.18237
      C    2   -0.18514      0.99963     2.17762    0.00790     3.18514
      C    3   -0.15050      0.99956     2.13862    0.01232     3.15050
      C    4    0.27870      0.99956     1.69985    0.02188     2.72130
      N    5   -0.18777      0.99967     2.67759    0.01052     3.68777
      N    6   -0.15158      0.99964     2.63995    0.01198     3.65158
      C    7    0.16961      0.99958     1.80481    0.02599     2.83039
      O    8   -0.23203      0.99985     3.22447    0.00771     4.23203
      S    9    0.13041      4.99952     2.84980    0.02027     7.86959
      C   10   -0.24871      0.99955     2.23685    0.01231     3.24871
      C   11    0.04289      0.99951     1.94277    0.01482     2.95711
      C   12   -0.02512      0.99954     2.01465    0.01093     3.02512
      O   13   -0.27575      0.99987     3.26711    0.00876     4.27575
      C   14    0.12020      0.99933     1.86598    0.01449     2.87980
      C   15   -0.11440      0.99953     2.10551    0.00936     3.11440
      C   16   -0.10865      0.99957     2.09923    0.00985     3.10865
      C   17   -0.10659      0.99957     2.09729    0.00973     3.10659
      C   18   -0.11348      0.99953     2.10442    0.00953     3.11348
      C   19    0.12471      0.99933     1.86146    0.01450     2.87529
      O   20   -0.27360      0.99987     3.26410    0.00963     4.27360
      H   21    0.10649      0.00000     0.39111    0.00240     0.39351
      H   22    0.10784      0.00000     0.39104    0.00112     0.39216
      H   23    0.10238      0.00000     0.39683    0.00079     0.39762
      H   24    0.10902      0.00000     0.38979    0.00119     0.39098
      H   25    0.11839      0.00000     0.38002    0.00158     0.38161
      H   26    0.11347      0.00000     0.38490    0.00163     0.38653
      H   27    0.11232      0.00000     0.38622    0.00146     0.38768
      H   28    0.10508      0.00000     0.39345    0.00147     0.39492
      H   29    0.10704      0.00000     0.39174    0.00121     0.39296
      H   30    0.08804      0.00000     0.41096    0.00100     0.41196
      H   31    0.10652      0.00000     0.39227    0.00121     0.39348
      H   32    0.10186      0.00000     0.39706    0.00108     0.39814
      H   33    0.10222      0.00000     0.39674    0.00104     0.39778
      H   34    0.10851      0.00000     0.39028    0.00121     0.39149
 =======================================================================
   * Total *   -0.00000     23.99185    51.73894    0.26921    76.00000

 Normal termination of Gaussian 16 at Sat Dec 12 16:20:06 2020.
