 Gaussian 16, Revision A.03,

 -----------------------------------------------------------
 # opt freq B3LYP/6-31G(d) empiricaldispersion=gd3bj scf=xqc
 -----------------------------------------------------------

 -------------------------------
 CID_105902821_JID_9441_neutraal
 -------------------------------
 Symbolic Z-matrix:
 Charge =  0 Multiplicity = 1

 SCF Done:  E(RB3LYP) =  -1222.16451378     A.U. after   15 cycles
 SCF Done:  E(RB3LYP) =  -1222.17223907     A.U. after   13 cycles
 SCF Done:  E(RB3LYP) =  -1222.17296138     A.U. after   13 cycles
 SCF Done:  E(RB3LYP) =  -1222.17424349     A.U. after   12 cycles
 SCF Done:  E(RB3LYP) =  -1222.17477795     A.U. after   12 cycles
 SCF Done:  E(RB3LYP) =  -1222.17513949     A.U. after   11 cycles
 SCF Done:  E(RB3LYP) =  -1222.17549979     A.U. after   12 cycles
 SCF Done:  E(RB3LYP) =  -1222.17571000     A.U. after   12 cycles
 SCF Done:  E(RB3LYP) =  -1222.17587432     A.U. after   12 cycles
 SCF Done:  E(RB3LYP) =  -1222.17598220     A.U. after   11 cycles
 SCF Done:  E(RB3LYP) =  -1222.17602675     A.U. after   10 cycles
 SCF Done:  E(RB3LYP) =  -1222.17602693     A.U. after    8 cycles
 SCF Done:  E(RB3LYP) =  -1222.17602733     A.U. after    8 cycles
 SCF Done:  E(RB3LYP) =  -1222.17602738     A.U. after    8 cycles
 SCF Done:  E(RB3LYP) =  -1222.17602738     A.U. after    7 cycles
 Optimization completed.
    -- Stationary point found.
 Normal termination of Gaussian 16 at Mon Dec 14 13:32:34 2020.

 --------------------------------------------------------------------
 #N Geom=AllCheck Guess=TCheck SCRF=Check GenChk RB3LYP/6-31G(d) Freq
 --------------------------------------------------------------------

 Structure from the checkpoint file:  "JID_9441.chk"
 -------------------------------
 CID_105902821_JID_9441_neutraal
 -------------------------------
 Charge =  0 Multiplicity = 1

 SCF Done:  E(RB3LYP) =  -1222.17602738     A.U. after    1 cycles

  Exact polarizability: 205.363   4.332 175.168 -23.022   3.376 147.611
 Approx polarizability: 276.440   2.779 285.930 -42.725   4.411 229.663

                      1                      2                      3
                      A                      A                      A
 Frequencies --     26.3765                31.9682                36.4100
 Red. masses --      4.3977                 3.9212                 3.2463
 Frc consts  --      0.0018                 0.0024                 0.0025
 IR Inten    --      0.3891                 0.1123                 0.0612

                      4                      5                      6
                      A                      A                      A
 Frequencies --     56.9149                95.1383               102.4039
 Red. masses --      4.1975                 4.3854                 5.1013
 Frc consts  --      0.0080                 0.0234                 0.0315
 IR Inten    --      0.2064                 0.5162                 1.2431

                      7                      8                      9
                      A                      A                      A
 Frequencies --    140.8323               147.0586               158.3330
 Red. masses --      4.9274                 3.9420                 3.8955
 Frc consts  --      0.0576                 0.0502                 0.0575
 IR Inten    --      1.8180                 0.1028                 5.8466

                     10                     11                     12
                      A                      A                      A
 Frequencies --    204.0380               229.0878               241.8629
 Red. masses --      3.1282                 2.4468                 1.9409
 Frc consts  --      0.0767                 0.0757                 0.0669
 IR Inten    --      2.8768                 3.0060                 0.5407

                     13                     14                     15
                      A                      A                      A
 Frequencies --    249.6436               254.5371               262.4809
 Red. masses --      1.0914                 1.4011                 3.3269
 Frc consts  --      0.0401                 0.0535                 0.1350
 IR Inten    --      1.5952                 0.4431                10.1329

                     16                     17                     18
                      A                      A                      A
 Frequencies --    285.9727               310.9534               329.6734
 Red. masses --      1.2952                 3.2296                 2.0402
 Frc consts  --      0.0624                 0.1840                 0.1306
 IR Inten    --      3.3519                 3.0085                 0.7371

                     19                     20                     21
                      A                      A                      A
 Frequencies --    336.1148               376.2047               378.9508
 Red. masses --      2.4453                 2.1697                 2.2178
 Frc consts  --      0.1628                 0.1809                 0.1876
 IR Inten    --      4.3507                13.5463                 6.6909

                     22                     23                     24
                      A                      A                      A
 Frequencies --    384.7147               391.1231               408.9893
 Red. masses --      2.3775                 2.1370                 1.8404
 Frc consts  --      0.2073                 0.1926                 0.1814
 IR Inten    --      8.4203                14.0248                10.0210

                     25                     26                     27
                      A                      A                      A
 Frequencies --    419.6079               440.2663               478.4784
 Red. masses --      3.1045                 2.1722                 2.8659
 Frc consts  --      0.3221                 0.2481                 0.3866
 IR Inten    --     17.4386                 1.6787                 8.5328

                     28                     29                     30
                      A                      A                      A
 Frequencies --    491.6753               493.2019               521.6347
 Red. masses --      2.8417                 3.7373                 3.1366
 Frc consts  --      0.4048                 0.5356                 0.5029
 IR Inten    --     16.8507                 6.8161                 5.4952

                     31                     32                     33
                      A                      A                      A
 Frequencies --    564.2477               568.9253               592.7527
 Red. masses --      3.4509                 3.2574                 7.1934
 Frc consts  --      0.6473                 0.6212                 1.4891
 IR Inten    --      7.5214                41.1995                33.5851

                     34                     35                     36
                      A                      A                      A
 Frequencies --    623.7965               636.9237               654.3250
 Red. masses --      2.7787                 1.8079                 4.9515
 Frc consts  --      0.6371                 0.4321                 1.2490
 IR Inten    --      1.3746                65.9184                 7.4055

                     37                     38                     39
                      A                      A                      A
 Frequencies --    700.5559               721.9831               763.4164
 Red. masses --      2.6448                 3.0873                 2.9769
 Frc consts  --      0.7648                 0.9482                 1.0222
 IR Inten    --     86.0895                 7.5005               164.9455

                     40                     41                     42
                      A                      A                      A
 Frequencies --    787.8092               797.7730               812.0873
 Red. masses --      6.1035                 3.5259                 1.6536
 Frc consts  --      2.2319                 1.3222                 0.6425
 IR Inten    --     38.1376                46.4603                 0.1239

                     43                     44                     45
                      A                      A                      A
 Frequencies --    865.4464               874.6350               910.3497
 Red. masses --      3.1022                 2.1229                 2.8649
 Frc consts  --      1.3690                 0.9568                 1.3989
 IR Inten    --      3.5334                 5.7919                 5.9246

                     46                     47                     48
                      A                      A                      A
 Frequencies --    925.9797               944.7434               953.6919
 Red. masses --      2.1751                 1.4168                 1.2510
 Frc consts  --      1.0988                 0.7450                 0.6704
 IR Inten    --     30.0292                 1.8100                 4.5872

                     49                     50                     51
                      A                      A                      A
 Frequencies --    964.5721               985.0529              1015.5739
 Red. masses --      1.9230                 3.6792                 2.6373
 Frc consts  --      1.0542                 2.1034                 1.6026
 IR Inten    --     15.4518                17.2143                 8.5255

                     52                     53                     54
                      A                      A                      A
 Frequencies --   1019.2771              1023.6887              1053.0996
 Red. masses --      1.7674                 1.6368                 1.6471
 Frc consts  --      1.0819                 1.0106                 1.0762
 IR Inten    --      6.7502                 3.1472                 6.6300

                     55                     56                     57
                      A                      A                      A
 Frequencies --   1073.9094              1113.4120              1144.8598
 Red. masses --      1.7750                 2.9494                 1.9397
 Frc consts  --      1.2061                 2.1542                 1.4980
 IR Inten    --     14.7302                14.1398                23.5330

                     58                     59                     60
                      A                      A                      A
 Frequencies --   1147.6905              1159.7908              1162.8978
 Red. masses --      3.8944                 2.4067                 2.2725
 Frc consts  --      3.0223                 1.9073                 1.8106
 IR Inten    --     43.2279                11.1958                59.6589

                     61                     62                     63
                      A                      A                      A
 Frequencies --   1173.3326              1209.0039              1214.1485
 Red. masses --      2.0874                 2.6210                 2.2333
 Frc consts  --      1.6932                 2.2572                 1.9398
 IR Inten    --     95.9452                31.9392                18.1327

                     64                     65                     66
                      A                      A                      A
 Frequencies --   1219.5657              1230.9509              1249.6706
 Red. masses --      2.5576                 2.4525                 1.2064
 Frc consts  --      2.2413                 2.1895                 1.1101
 IR Inten    --     36.0833                16.8658                 8.2594

                     67                     68                     69
                      A                      A                      A
 Frequencies --   1281.6068              1326.9350              1340.3011
 Red. masses --      1.3153                 2.1751                 1.3258
 Frc consts  --      1.2729                 2.2565                 1.4032
 IR Inten    --     45.6458                71.3533                 4.1099

                     70                     71                     72
                      A                      A                      A
 Frequencies --   1347.8857              1364.1552              1384.6942
 Red. masses --      1.5122                 1.5456                 1.3233
 Frc consts  --      1.6187                 1.6946                 1.4949
 IR Inten    --      3.6265                31.0701                 2.9842

                     73                     74                     75
                      A                      A                      A
 Frequencies --   1387.3497              1396.5472              1405.8922
 Red. masses --      1.3518                 1.2645                 1.3585
 Frc consts  --      1.5330                 1.4531                 1.5820
 IR Inten    --      3.6278                 1.5780                 3.3056

                     76                     77                     78
                      A                      A                      A
 Frequencies --   1411.8538              1426.4154              1435.0036
 Red. masses --      1.2288                 1.3546                 1.3354
 Frc consts  --      1.4431                 1.6239                 1.6202
 IR Inten    --     10.0571                 1.9922                17.0484

                     79                     80                     81
                      A                      A                      A
 Frequencies --   1448.1625              1448.3485              1450.8669
 Red. masses --      1.2807                 1.2388                 1.2975
 Frc consts  --      1.5825                 1.5311                 1.6092
 IR Inten    --      4.0593                25.2494                18.0026

                     82                     83                     84
                      A                      A                      A
 Frequencies --   1476.9456              1496.4318              1500.7588
 Red. masses --      1.9918                 1.9792                 1.1733
 Frc consts  --      2.5599                 2.6112                 1.5570
 IR Inten    --     60.6260               175.6851                39.6822

                     85                     86                     87
                      A                      A                      A
 Frequencies --   1504.5414              1514.7862              1518.5490
 Red. masses --      1.2071                 1.0515                 1.0931
 Frc consts  --      1.6099                 1.4215                 1.4851
 IR Inten    --     14.2609                 2.2166                10.8636

                     88                     89                     90
                      A                      A                      A
 Frequencies --   1522.6123              1527.5958              1529.2858
 Red. masses --      1.1168                 1.0542                 1.0582
 Frc consts  --      1.5254                 1.4494                 1.4581
 IR Inten    --     31.8574                 3.3686                 9.6241

                     91                     92                     93
                      A                      A                      A
 Frequencies --   1530.5841              1533.0672              1544.2710
 Red. masses --      1.0732                 1.0808                 1.0882
 Frc consts  --      1.4813                 1.4967                 1.5290
 IR Inten    --      8.2592                 1.7428                18.0666

                     94                     95                     96
                      A                      A                      A
 Frequencies --   1545.0611              1561.3035              1641.7546
 Red. masses --      1.0979                 3.3459                 3.5022
 Frc consts  --      1.5442                 4.8054                 5.5618
 IR Inten    --      1.4445                38.7632               110.5897

                     97                     98                     99
                      A                      A                      A
 Frequencies --   1672.1038              3011.3195              3026.1940
 Red. masses --      1.4138                 1.0694                 1.0633
 Frc consts  --      2.3290                 5.7134                 5.7372
 IR Inten    --    177.4189                37.8459                29.3048

                    100                    101                    102
                      A                      A                      A
 Frequencies --   3037.5769              3042.6187              3049.3005
 Red. masses --      1.0412                 1.0621                 1.0580
 Frc consts  --      5.6603                 5.7929                 5.7963
 IR Inten    --      4.8633                24.1714                67.5014

                    103                    104                    105
                      A                      A                      A
 Frequencies --   3052.8916              3054.7130              3060.9522
 Red. masses --      1.0369                 1.0624                 1.0785
 Frc consts  --      5.6938                 5.8412                 5.9536
 IR Inten    --     18.2636                27.3246                29.3475

                    106                    107                    108
                      A                      A                      A
 Frequencies --   3064.9166              3073.8077              3088.6577
 Red. masses --      1.0422                 1.0978                 1.1012
 Frc consts  --      5.7680                 6.1113                 6.1894
 IR Inten    --     14.8251                31.5362                 7.8593

                    109                    110                    111
                      A                      A                      A
 Frequencies --   3092.2580              3099.4069              3104.1918
 Red. masses --      1.1014                 1.0960                 1.1021
 Frc consts  --      6.2051                 6.2033                 6.2569
 IR Inten    --     32.5420                49.2768                45.5537

                    112                    113                    114
                      A                      A                      A
 Frequencies --   3112.9167              3119.4900              3120.4823
 Red. masses --      1.1035                 1.1018                 1.1013
 Frc consts  --      6.3003                 6.3174                 6.3185
 IR Inten    --     34.7876                20.3561                43.3998

                    115                    116                    117
                      A                      A                      A
 Frequencies --   3131.8186              3141.9801              3145.9675
 Red. masses --      1.1015                 1.1034                 1.1025
 Frc consts  --      6.3657                 6.4181                 6.4287
 IR Inten    --     30.5628                12.1492                22.7522

                    118                    119                    120
                      A                      A                      A
 Frequencies --   3535.5308              3577.1706              3640.2072
 Red. masses --      1.0472                 1.0741                 1.0981
 Frc consts  --      7.7125                 8.0982                 8.5730
 IR Inten    --     15.9191                11.9178                17.9849

 - Thermochemistry -
 -------------------
 Temperature   298.150 Kelvin.  Pressure   1.00000 Atm.
 Atom     1 has atomic number  6 and mass  12.00000

 Molecular mass:   285.15110 amu.
 Principal axes and moments of inertia in atomic units:
                           1         2         3
     Eigenvalues --  3426.552837462.878458225.52323
           X            0.99971   0.02289  -0.00693
           Y           -0.02248   0.99822   0.05525
           Z            0.00819  -0.05508   0.99845
 This molecule is an asymmetric top.
 Rotational symmetry number  1.
 Warning -- assumption of classical behavior for rotation
           may cause significant error
 Rotational temperatures (Kelvin)      0.02528     0.01161     0.01053
 Rotational constants (GHZ):           0.52669     0.24183     0.21941
 Zero-point vibrational energy     957040.2 (Joules/Mol)
                                  228.73809 (Kcal/Mol)
 Warning -- explicit consideration of  33 degrees of freedom as
           vibrations may cause significant error
 Vibrational temperatures:     37.95    46.00    52.39    81.89   136.88
          (Kelvin)            147.34   202.63   211.58   227.81   293.57
                              329.61   347.99   359.18   366.22   377.65
                              411.45   447.39   474.33   483.59   541.27
                              545.23   553.52   562.74   588.44   603.72
                              633.45   688.42   707.41   709.61   750.52
                              811.83   818.56   852.84   897.50   916.39
                              941.43  1007.94  1038.77  1098.39  1133.48
                             1147.82  1168.41  1245.18  1258.40  1309.79
                             1332.28  1359.28  1372.15  1387.80  1417.27
                             1461.18  1466.51  1472.86  1515.18  1545.12
                             1601.95  1647.20  1651.27  1668.68  1673.15
                             1688.16  1739.49  1746.89  1754.68  1771.06
                             1798.00  1843.95  1909.16  1928.39  1939.31
                             1962.72  1992.27  1996.09  2009.32  2022.77
                             2031.34  2052.29  2064.65  2083.58  2083.85
                             2087.47  2125.00  2153.03  2159.26  2164.70
                             2179.44  2184.85  2190.70  2197.87  2200.30
                             2202.17  2205.74  2221.86  2223.00  2246.37
                             2362.12  2405.78  4332.62  4354.02  4370.40
                             4377.65  4387.26  4392.43  4395.05  4404.03
                             4409.73  4422.52  4443.89  4449.07  4459.36
                             4466.24  4478.79  4488.25  4489.68  4505.99
                             4520.61  4526.35  5086.84  5146.75  5237.45

 Zero-point correction=                           0.364517 (Hartree/Particle)
 Thermal correction to Energy=                    0.384317
 Thermal correction to Enthalpy=                  0.385261
 Thermal correction to Gibbs Free Energy=         0.316144
 Sum of electronic and zero-point Energies=          -1221.811510
 Sum of electronic and thermal Energies=             -1221.791711
 Sum of electronic and thermal Enthalpies=           -1221.790766
 Sum of electronic and thermal Free Energies=        -1221.859883

                     E (Thermal)             CV                S
                      KCal/Mol        Cal/Mol-Kelvin    Cal/Mol-Kelvin
 Total                  241.162             76.980            145.468
 Electronic               0.000              0.000              0.000
 Translational            0.889              2.981             42.841
 Rotational               0.889              2.981             33.708
 Vibrational            239.385             71.018             68.918
 Vibration     1          0.593              1.985              6.085
 Vibration     2          0.594              1.983              5.703
 Vibration     3          0.594              1.982              5.445
 Vibration     4          0.596              1.975              4.561
 Vibration     5          0.603              1.953              3.552
 Vibration     6          0.604              1.947              3.408
 Vibration     7          0.615              1.912              2.793
 Vibration     8          0.617              1.906              2.710
 Vibration     9          0.621              1.893              2.570
 Vibration    10          0.640              1.834              2.096
 Vibration    11          0.652              1.797              1.886
 Vibration    12          0.658              1.776              1.789
 Vibration    13          0.662              1.763              1.733
 Vibration    14          0.665              1.755              1.699
 Vibration    15          0.670              1.742              1.645
 Vibration    16          0.684              1.700              1.498
 Vibration    17          0.700              1.653              1.357
 Vibration    18          0.712              1.616              1.262
 Vibration    19          0.717              1.603              1.231
 Vibration    20          0.747              1.521              1.054
 Vibration    21          0.749              1.515              1.043
 Vibration    22          0.754              1.503              1.021
 Vibration    23          0.759              1.489              0.996
 Vibration    24          0.773              1.451              0.930
 Vibration    25          0.782              1.428              0.893
 Vibration    26          0.800              1.382              0.826
 Vibration    27          0.835              1.298              0.714
 Vibration    28          0.847              1.268              0.679
 Vibration    29          0.849              1.265              0.675
 Vibration    30          0.877              1.202              0.606
 Vibration    31          0.920              1.109              0.515
 Vibration    32          0.925              1.098              0.506
 Vibration    33          0.950              1.047              0.462

                           ! Non-Optimized Parameters !
 Normal termination of Gaussian 16 at Mon Dec 14 13:57:10 2020.

 ----------------------------------------------------------------------
 # B3LYP/6-311++G(d,p) empiricaldispersion=gd3bj scf=xqc pop=npa geom=c
 heck
 ----------------------------------------------------------------------

 ---------------------------------------
 CID_105902821_JID_9441_Energie_neutraal
 ---------------------------------------
 Structure from the checkpoint file:  "JID_9441.chk"
 Charge =  0 Multiplicity = 1

 SCF Done:  E(RB3LYP) =  -1222.44012326     A.U. after   15 cycles
 Normal termination of Gaussian 16 at Mon Dec 14 14:07:18 2020.

 ----------------------------------------------------------------------
 # B3LYP/6-311++G(d,p) empiricaldispersion=gd3bj scf=xqc pop=npa geom=c
 heck
 ----------------------------------------------------------------------

 -------------------------------------
 CID_105902821_JID_9441_Energie_kation
 -------------------------------------
 Structure from the checkpoint file:  "JID_9441.chk"
 Charge =  1 Multiplicity = 2

 SCF Done:  E(UB3LYP) =  -1222.16917393     A.U. after   27 cycles
 Normal termination of Gaussian 16 at Mon Dec 14 14:31:56 2020.
 Gaussian 16:  ES64L-G16RevA.03 25-Dec-2016

 ----------------------------------------------------------------------
 # B3LYP/6-311++G(d,p) empiricaldispersion=gd3bj scf=xqc pop=npa geom=c
 heck
 ----------------------------------------------------------------------

 ------------------------------------
 CID_105902821_JID_9441_Energie_anion
 ------------------------------------
 Structure from the checkpoint file:  "JID_9441.chk"
 Charge = -1 Multiplicity = 2

                         Standard orientation:
 ---------------------------------------------------------------------
 Center     Atomic      Atomic             Coordinates (Angstroms)
 Number     Number       Type             X           Y           Z
 ---------------------------------------------------------------------
      1          6           0       -4.132396   -1.809333    0.216440
      2          6           0       -2.760121   -1.847750   -0.447754
      3          6           0       -2.793081   -1.340759   -1.884820
      4          8           0       -1.782239   -1.146050    0.386195
      5          6           0       -1.519224    0.177923    0.113534
      6          6           0       -0.421790    0.574290   -0.619942
      7         16           0       -0.370350    2.318454   -0.651497
      8          7           0       -1.751492    2.506347    0.336570
      9          6           0       -2.224557    1.312999    0.635760
     10          7           0       -3.373930    1.184171    1.405607
     11          7           0        0.452382   -0.265373   -1.254548
     12          6           0        1.826104    0.090778   -1.578332
     13          6           0        2.934132   -0.115994   -0.509602
     14          6           0        2.816721    0.840201    0.705770
     15          6           0        1.882321    0.354761    1.816588
     16          8           0        2.215420   -0.967187    2.228259
     17          6           0        2.028390   -1.883299    1.163146
     18          6           0        2.979931   -1.580945   -0.002212
     19          6           0        4.252315    0.194818   -1.244605
     20          1           0       -4.533914   -0.791693    0.219236
     21          1           0       -4.062979   -2.163332    1.250560
     22          1           0       -4.831849   -2.460553   -0.320409
     23          1           0       -2.387001   -2.878228   -0.436118
     24          1           0       -3.182982   -0.319632   -1.934350
     25          1           0       -1.798469   -1.348966   -2.339875
     26          1           0       -3.449852   -1.985890   -2.478310
     27          1           0       -3.591778    2.033210    1.915522
     28          1           0       -3.359995    0.367151    2.006068
     29          1           0        0.296561   -1.235116   -1.006225
     30          1           0        2.104049   -0.498465   -2.460956
     31          1           0        1.827156    1.139601   -1.896474
     32          1           0        3.815789    0.939511    1.148495
     33          1           0        2.512099    1.840480    0.374979
     34          1           0        0.829014    0.394184    1.510147
     35          1           0        1.995940    0.985967    2.702762
     36          1           0        0.972069   -1.874641    0.852111
     37          1           0        2.242954   -2.876215    1.570998
     38          1           0        2.794577   -2.278158   -0.832557
     39          1           0        3.996828   -1.784979    0.354859
     40          1           0        4.402536   -0.478627   -2.097410
     41          1           0        4.261700    1.224848   -1.622089
     42          1           0        5.106507    0.078010   -0.569853
 ---------------------------------------------------------------------

 SCF Done:  E(UB3LYP) =  -1222.43017420     A.U. after   33 cycles
 SCF Done:  E(UB3LYP) =  -1222.43017420     a.u. after    1 cycles

 The electronic state is 2-A.
 Alpha  occ. eigenvalues --  -88.79719 -19.05163 -19.03036 -14.24899 -14.23868
 Alpha  occ. eigenvalues --  -14.21943 -10.15350 -10.15146 -10.13601 -10.12617
 Alpha  occ. eigenvalues --  -10.12170 -10.12116 -10.12030 -10.10335 -10.08018
 Alpha  occ. eigenvalues --  -10.07748 -10.07685 -10.06800 -10.06787  -7.88154
 Alpha  occ. eigenvalues --   -5.84570  -5.84132  -5.83583  -0.96132  -0.94577
 Alpha  occ. eigenvalues --   -0.88128  -0.85847  -0.80378  -0.74153  -0.70175
 Alpha  occ. eigenvalues --   -0.67555  -0.66919  -0.63442  -0.62693  -0.60117
 Alpha  occ. eigenvalues --   -0.59866  -0.55284  -0.52539  -0.52098  -0.50036
 Alpha  occ. eigenvalues --   -0.48818  -0.45951  -0.43574  -0.41938  -0.41362
 Alpha  occ. eigenvalues --   -0.39490  -0.38945  -0.38685  -0.37358  -0.36912
 Alpha  occ. eigenvalues --   -0.36178  -0.35749  -0.35400  -0.34461  -0.32381
 Alpha  occ. eigenvalues --   -0.31938  -0.31191  -0.30784  -0.30157  -0.29533
 Alpha  occ. eigenvalues --   -0.29108  -0.28208  -0.28103  -0.27632  -0.26793
 Alpha  occ. eigenvalues --   -0.26547  -0.26182  -0.24501  -0.24169  -0.22505
 Alpha  occ. eigenvalues --   -0.21943  -0.21589  -0.19863  -0.18277  -0.16470
 Alpha  occ. eigenvalues --   -0.13367  -0.11729   0.03957
 Alpha virt. eigenvalues --    0.05525   0.06332   0.07321   0.07500   0.07771
 Alpha virt. eigenvalues --    0.08117   0.08391   0.08794   0.09334   0.09461
 Alpha virt. eigenvalues --    0.10066   0.10185   0.10991   0.11134   0.11324

  Beta  occ. eigenvalues --  -88.79717 -19.05162 -19.03031 -14.24885 -14.23854
  Beta  occ. eigenvalues --  -14.21935 -10.15348 -10.15136 -10.13582 -10.12618
  Beta  occ. eigenvalues --  -10.12149 -10.12113 -10.12017 -10.10335 -10.08008
  Beta  occ. eigenvalues --  -10.07721 -10.07662 -10.06772 -10.06762  -7.88152
  Beta  occ. eigenvalues --   -5.84567  -5.84130  -5.83579  -0.96125  -0.94566
  Beta  occ. eigenvalues --   -0.88114  -0.85819  -0.80359  -0.74132  -0.70143
  Beta  occ. eigenvalues --   -0.67534  -0.66892  -0.63424  -0.62662  -0.60065
  Beta  occ. eigenvalues --   -0.59822  -0.55247  -0.52500  -0.52061  -0.50011
  Beta  occ. eigenvalues --   -0.48783  -0.45919  -0.43549  -0.41909  -0.41329
  Beta  occ. eigenvalues --   -0.39443  -0.38914  -0.38668  -0.37325  -0.36887
  Beta  occ. eigenvalues --   -0.36153  -0.35720  -0.35367  -0.34430  -0.32357
  Beta  occ. eigenvalues --   -0.31911  -0.31166  -0.30765  -0.30130  -0.29506
  Beta  occ. eigenvalues --   -0.29072  -0.28182  -0.28078  -0.27609  -0.26760
  Beta  occ. eigenvalues --   -0.26521  -0.26154  -0.24473  -0.24132  -0.22482
  Beta  occ. eigenvalues --   -0.21918  -0.21571  -0.19840  -0.18258  -0.16436
  Beta  occ. eigenvalues --   -0.13351  -0.11707
  Beta virt. eigenvalues --    0.05950   0.06107   0.07087   0.07704   0.07767
  Beta virt. eigenvalues --    0.08155   0.08402   0.08569   0.09054   0.09608
  Beta virt. eigenvalues --    0.09872   0.10266   0.10485   0.11169   0.11404

 Mulliken charges and spin densities:
               1          2
     1  C    0.616298  -1.270217
     2  C   -0.718341   0.895568
     3  C    0.550234  -1.065271
     4  O   -0.098002   0.000694
     5  C    0.031788  -0.279627
     6  C    0.997013  -0.817488
     7  S    0.336641  -0.332750
     8  N   -0.199194  -0.012659
     9  C   -0.835300   0.242912
    10  N   -0.331063   0.028877
    11  N   -0.120700   0.276666
    12  C    0.702823  -1.501105
    13  C   -0.841543   1.604881
    14  C   -0.257782   0.080547
    15  C   -0.387812  -0.303632
    16  O   -0.079554   0.012878
    17  C    0.033893  -0.400381
    18  C    0.149910  -0.640034
    19  C    0.390588  -0.746257
    20  H    0.068731   0.115968
    21  H   -0.098677   0.254075
    22  H   -0.149902   0.285448
    23  H   -0.702979   0.902595
    24  H    0.080719   0.078061
    25  H    0.044549   0.108470
    26  H   -0.383285   0.556741
    27  H    0.207814   0.087670
    28  H    0.106952   0.138347
    29  H   -0.113097   0.386218
    30  H   -0.299609   0.507868
    31  H    0.152743  -0.001506
    32  H    0.071375   0.115920
    33  H    0.125137  -0.008238
    34  H    0.270108   0.077677
    35  H    0.099878   0.073538
    36  H    0.585066  -0.440318
    37  H   -0.282509   0.484991
    38  H   -0.516308   0.698047
    39  H    0.065886   0.100874
    40  H   -0.201614   0.355009
    41  H   -0.025627   0.160309
    42  H   -0.045247   0.188633
 Sum of Mulliken charges =  -1.00000   1.00000

 Dipole moment (field-independent basis, Debye):
    X=              0.6121    Y=              6.4242    Z=              2.9865  Tot=              7.1109
 Quadrupole moment (field-independent basis, Debye-Ang):
   XX=           -197.8057   YY=           -185.1971   ZZ=           -168.4006
   XY=             -0.3425   XZ=             -1.2335   YZ=             -7.2335

 Summary of Natural Population Analysis:

                                       Natural Population
                Natural  -----------------------------------------------
    Atom  No    Charge         Core      Valence    Rydberg      Total
 -----------------------------------------------------------------------
      C    1   -0.30112      0.99964     2.29498    0.00650     3.30112
      C    2    0.06700      0.99954     1.91921    0.01424     2.93300
      C    3   -0.30486      0.99964     2.29911    0.00610     3.30486
      O    4   -0.29743      0.99987     3.28810    0.00946     4.29743
      C    5    0.05590      0.99919     1.92806    0.01685     2.94410
      C    6    0.01135      0.99941     1.97214    0.01710     2.98865
      S    7    0.25907      4.99944     2.71892    0.02257     7.74093
      N    8   -0.34972      0.99969     2.83959    0.01044     3.84972
      C    9    0.17523      0.99951     1.80775    0.01750     2.82477
      N   10   -0.39841      0.99971     2.88950    0.00920     3.89841
      N   11   -0.31868      0.99964     2.80438    0.01466     3.81868
      C   12   -0.08220      0.99955     2.06878    0.01388     3.08220
      C   13   -0.04869      0.99955     2.03652    0.01262     3.04869
      C   14   -0.20485      0.99958     2.19688    0.00838     3.20485
      C   15   -0.01203      0.99957     2.00045    0.01202     3.01203
      O   16   -0.29920      0.99989     3.29117    0.00815     4.29920
      C   17   -0.01211      0.99958     1.99890    0.01364     3.01211
      C   18   -0.20755      0.99958     2.19654    0.01143     3.20755
      C   19   -0.28163      0.99963     2.27475    0.00725     3.28163
      H   20    0.10396      0.00000     0.39447    0.00158     0.39604
      H   21    0.10104      0.00000     0.39784    0.00112     0.39896
      H   22    0.10285      0.00000     0.39609    0.00106     0.39715
      H   23    0.09004      0.00000     0.40737    0.00259     0.40996
      H   24    0.10133      0.00000     0.39738    0.00130     0.39867
      H   25    0.10781      0.00000     0.39048    0.00171     0.39219
      H   26    0.10723      0.00000     0.39173    0.00104     0.39277
      H   27    0.18825      0.00000     0.30972    0.00203     0.31175
      H   28    0.19076      0.00000     0.30744    0.00180     0.30924
      H   29    0.19775      0.00000     0.29795    0.00430     0.30225
      H   30    0.10308      0.00000     0.39543    0.00149     0.39692
      H   31    0.09672      0.00000     0.40184    0.00144     0.40328
      H   32    0.09876      0.00000     0.40002    0.00122     0.40124
      H   33    0.10383      0.00000     0.39484    0.00133     0.39617
      H   34    0.08568      0.00000     0.41218    0.00215     0.41432
      H   35    0.08853      0.00000     0.41047    0.00100     0.41147
      H   36    0.08059      0.00000     0.41719    0.00221     0.41941
      H   37    0.09166      0.00000     0.40709    0.00125     0.40834
      H   38    0.10640      0.00000     0.39132    0.00228     0.39360
      H   39    0.10080      0.00000     0.39781    0.00139     0.39920
      H   40    0.10344      0.00000     0.39545    0.00111     0.39656
      H   41    0.09828      0.00000     0.40088    0.00083     0.40172
      H   42    0.10114      0.00000     0.39789    0.00097     0.39886
 =======================================================================
   * Total *   -0.00000     22.99221    53.73861    0.26918    77.00000

 Normal termination of Gaussian 16 at Mon Dec 14 15:01:53 2020.
