 Gaussian 16, Revision A.03,

 -----------------------------------------------------------
 # opt freq B3LYP/6-31G(d) empiricaldispersion=gd3bj scf=xqc
 -----------------------------------------------------------

 ----------------------------
 CID_325820_JID_1060_neutraal
 ----------------------------
 Symbolic Z-matrix:
 Charge =  0 Multiplicity = 1

 SCF Done:  E(RB3LYP) =  -527.757329402     A.U. after   15 cycles
 SCF Done:  E(RB3LYP) =  -527.762378921     A.U. after   13 cycles
 SCF Done:  E(RB3LYP) =  -527.763032109     A.U. after   12 cycles
 SCF Done:  E(RB3LYP) =  -527.763675090     A.U. after   11 cycles
 SCF Done:  E(RB3LYP) =  -527.763751509     A.U. after   11 cycles
 SCF Done:  E(RB3LYP) =  -527.763801030     A.U. after   10 cycles
 SCF Done:  E(RB3LYP) =  -527.763806045     A.U. after    9 cycles
 SCF Done:  E(RB3LYP) =  -527.763809571     A.U. after    8 cycles
 SCF Done:  E(RB3LYP) =  -527.763814246     A.U. after    9 cycles
 SCF Done:  E(RB3LYP) =  -527.763820490     A.U. after   10 cycles
 SCF Done:  E(RB3LYP) =  -527.764392829     A.U. after   10 cycles
 SCF Done:  E(RB3LYP) =  -527.764401943     A.U. after   10 cycles
 SCF Done:  E(RB3LYP) =  -527.764404425     A.U. after   10 cycles
 SCF Done:  E(RB3LYP) =  -527.764405250     A.U. after    8 cycles
 SCF Done:  E(RB3LYP) =  -527.764405329     A.U. after    7 cycles
 Optimization completed.
    -- Stationary point found.
 Normal termination of Gaussian 16 at Tue Dec  8 19:16:55 2020.

 --------------------------------------------------------------------
 #N Geom=AllCheck Guess=TCheck SCRF=Check GenChk RB3LYP/6-31G(d) Freq
 --------------------------------------------------------------------

 Structure from the checkpoint file:  "JID_1060.chk"
 ----------------------------
 CID_325820_JID_1060_neutraal
 ----------------------------
 Charge =  0 Multiplicity = 1

 SCF Done:  E(RB3LYP) =  -527.764405329     A.U. after    1 cycles

  Exact polarizability: 132.305  -0.542  99.173   0.024   0.004  39.920
 Approx polarizability: 197.645   5.139 160.633   0.058   0.027  60.376

                      1                      2                      3
                      A                      A                      A
 Frequencies --     14.8192                69.0717                79.1752
 Red. masses --     10.3197                 1.5736                 2.0109
 Frc consts  --      0.0013                 0.0044                 0.0074
 IR Inten    --     11.0947                 0.0014                 0.8653

                      4                      5                      6
                      A                      A                      A
 Frequencies --    163.3106               186.5498               195.3513
 Red. masses --      4.5775                 2.6174                 3.3424
 Frc consts  --      0.0719                 0.0537                 0.0752
 IR Inten    --      0.9293                31.0296                 7.8518

                      7                      8                      9
                      A                      A                      A
 Frequencies --    291.3144               333.1029               395.3411
 Red. masses --      1.5406                 3.5044                 8.7018
 Frc consts  --      0.0770                 0.2291                 0.8013
 IR Inten    --    168.0268                19.8941                 0.0326

                     10                     11                     12
                      A                      A                      A
 Frequencies --    419.8433               448.5984               554.0424
 Red. masses --      3.6947                 3.3234                 5.6818
 Frc consts  --      0.3837                 0.3940                 1.0276
 IR Inten    --      9.0529                 0.2617                 8.7965

                     13                     14                     15
                      A                      A                      A
 Frequencies --    586.1443               624.5157               641.1461
 Red. masses --      3.2340                 2.2246                 1.3331
 Frc consts  --      0.6546                 0.5112                 0.3229
 IR Inten    --     23.5064                11.0841                78.9507

                     16                     17                     18
                      A                      A                      A
 Frequencies --    684.8760               708.3713               763.2173
 Red. masses --      1.2700                 6.4113                 4.0010
 Frc consts  --      0.3510                 1.8955                 1.3731
 IR Inten    --      5.8100                 1.8026                43.8794

                     19                     20                     21
                      A                      A                      A
 Frequencies --    795.0733               809.4564               826.2987
 Red. masses --      5.6655                 7.7068                 1.1847
 Frc consts  --      2.1101                 2.9752                 0.4766
 IR Inten    --      6.0862                15.7298                13.3265

                     22                     23                     24
                      A                      A                      A
 Frequencies --    950.0008               998.1300               999.1461
 Red. masses --      3.5073                 1.4079                 3.9590
 Frc consts  --      1.8649                 0.8264                 2.3286
 IR Inten    --     10.4381                 0.0789                 3.4148

                     25                     26                     27
                      A                      A                      A
 Frequencies --   1028.9346              1075.5478              1091.2681
 Red. masses --      2.5927                 1.6029                 2.6397
 Frc consts  --      1.6172                 1.0925                 1.8521
 IR Inten    --     12.6527                 7.3767                10.0999

                     28                     29                     30
                      A                      A                      A
 Frequencies --   1129.1667              1155.7117              1264.6073
 Red. masses --      1.5712                 1.9002                 2.7402
 Frc consts  --      1.1803                 1.4953                 2.5819
 IR Inten    --      3.7722                 6.6183                19.7193

                     31                     32                     33
                      A                      A                      A
 Frequencies --   1281.4672              1339.2203              1390.8430
 Red. masses --      2.6034                 2.6473                 2.4617
 Frc consts  --      2.5188                 2.7974                 2.8057
 IR Inten    --      6.7588                31.3076               436.8736

                     34                     35                     36
                      A                      A                      A
 Frequencies --   1435.0163              1444.1204              1498.0638
 Red. masses --      1.2561                 1.8627                 2.9513
 Frc consts  --      1.5241                 2.2888                 3.9024
 IR Inten    --      5.0863                23.3761                12.5772

                     37                     38                     39
                      A                      A                      A
 Frequencies --   1505.9110              1516.0769              1545.6724
 Red. masses --      1.0446                 1.2921                 3.4673
 Frc consts  --      1.3958                 1.7498                 4.8807
 IR Inten    --      7.3793                 9.9759               379.4088

                     40                     41                     42
                      A                      A                      A
 Frequencies --   1623.8090              1633.6152              1648.1893
 Red. masses --      1.4562                 5.4558                 4.2350
 Frc consts  --      2.2623                 8.5785                 6.7782
 IR Inten    --    407.7935               243.8821               193.5805

                     43                     44                     45
                      A                      A                      A
 Frequencies --   1834.1844              3059.9846              3119.4936
 Red. masses --      7.8877                 1.0367                 1.1007
 Frc consts  --     15.6345                 5.7191                 6.3108
 IR Inten    --    548.7767                 8.5196                 8.9257

                     46                     47                     48
                      A                      A                      A
 Frequencies --   3149.6570              3176.6643              3231.6083
 Red. masses --      1.1027                 1.0908                 1.0941
 Frc consts  --      6.4452                 6.4855                 6.7319
 IR Inten    --     15.6915                26.5569                 6.6938

                     49                     50                     51
                      A                      A                      A
 Frequencies --   3508.6259              3627.9769              3714.7324
 Red. masses --      1.0552                 1.0767                 1.0969
 Frc consts  --      7.6537                 8.3498                 8.9180
 IR Inten    --    169.2707                71.7941               126.4469

 - Thermochemistry -
 -------------------
 Temperature   298.150 Kelvin.  Pressure   1.00000 Atm.
 Atom     1 has atomic number  6 and mass  12.00000

 Molecular mass:   152.06981 amu.
 Principal axes and moments of inertia in atomic units:
                           1         2         3
     Eigenvalues --   806.895542417.934923213.63574
           X            0.99994   0.01102  -0.00000
           Y           -0.01102   0.99994  -0.00006
           Z            0.00000   0.00006   1.00000
 This molecule is an asymmetric top.
 Rotational symmetry number  1.
 Warning -- assumption of classical behavior for rotation
           may cause significant error
 Rotational temperatures (Kelvin)      0.10734     0.03582     0.02695
 Rotational constants (GHZ):           2.23665     0.74640     0.56159
 Zero-point vibrational energy     392178.1 (Joules/Mol)
                                   93.73283 (Kcal/Mol)
 Warning -- explicit consideration of  13 degrees of freedom as
           vibrations may cause significant error
 Vibrational temperatures:     21.32    99.38   113.92   234.97   268.40
          (Kelvin)            281.07   419.14   479.26   568.81   604.06
                              645.43   797.14   843.33   898.54   922.47
                              985.38  1019.19  1098.10  1143.93  1164.63
                             1188.86  1366.84  1436.09  1437.55  1480.41
                             1547.47  1570.09  1624.62  1662.81  1819.49
                             1843.75  1926.84  2001.11  2064.67  2077.77
                             2155.38  2166.67  2181.30  2223.88  2336.30
                             2350.41  2371.38  2638.98  4402.64  4488.26
                             4531.65  4570.51  4649.56  5048.13  5219.85
                             5344.67

 Zero-point correction=                           0.149373 (Hartree/Particle)
 Thermal correction to Energy=                    0.159654
 Thermal correction to Enthalpy=                  0.160598
 Thermal correction to Gibbs Free Energy=         0.111695
 Sum of electronic and zero-point Energies=           -527.615033
 Sum of electronic and thermal Energies=              -527.604752
 Sum of electronic and thermal Enthalpies=            -527.603807
 Sum of electronic and thermal Free Energies=         -527.652710

                     E (Thermal)             CV                S
                      KCal/Mol        Cal/Mol-Kelvin    Cal/Mol-Kelvin
 Total                  100.184             37.262            102.925
 Electronic               0.000              0.000              0.000
 Translational            0.889              2.981             40.967
 Rotational               0.889              2.981             30.218
 Vibrational             98.407             31.300             31.740
 Vibration     1          0.593              1.986              7.230
 Vibration     2          0.598              1.969              4.180
 Vibration     3          0.600              1.963              3.911
 Vibration     4          0.623              1.887              2.511
 Vibration     5          0.632              1.858              2.262
 Vibration     6          0.636              1.846              2.176
 Vibration     7          0.687              1.690              1.466
 Vibration     8          0.715              1.609              1.245
 Vibration     9          0.762              1.480              0.980
 Vibration    10          0.783              1.427              0.893
 Vibration    11          0.808              1.364              0.800
 Vibration    12          0.909              1.131              0.536
 Vibration    13          0.943              1.061              0.474

                           ! Non-Optimized Parameters !
 Normal termination of Gaussian 16 at Tue Dec  8 19:20:02 2020.

 ----------------------------------------------------------------------
 # B3LYP/6-311++G(d,p) empiricaldispersion=gd3bj scf=xqc pop=npa geom=c
 heck
 ----------------------------------------------------------------------

 ------------------------------------
 CID_325820_JID_1060_Energie_neutraal
 ------------------------------------
 Structure from the checkpoint file:  "JID_1060.chk"
 Charge =  0 Multiplicity = 1

 SCF Done:  E(RB3LYP) =  -527.922400597     A.U. after   15 cycles
 Normal termination of Gaussian 16 at Tue Dec  8 19:21:12 2020.

 ----------------------------------------------------------------------
 # B3LYP/6-311++G(d,p) empiricaldispersion=gd3bj scf=xqc pop=npa geom=c
 heck
 ----------------------------------------------------------------------

 ----------------------------------
 CID_325820_JID_1060_Energie_kation
 ----------------------------------
 Structure from the checkpoint file:  "JID_1060.chk"
 Charge =  1 Multiplicity = 2

 SCF Done:  E(UB3LYP) =  -527.597330234     A.U. after   27 cycles
 Normal termination of Gaussian 16 at Tue Dec  8 19:24:20 2020.
 Gaussian 16:  ES64L-G16RevA.03 25-Dec-2016

 ----------------------------------------------------------------------
 # B3LYP/6-311++G(d,p) empiricaldispersion=gd3bj scf=xqc pop=npa geom=c
 heck
 ----------------------------------------------------------------------

 ---------------------------------
 CID_325820_JID_1060_Energie_anion
 ---------------------------------
 Structure from the checkpoint file:  "JID_1060.chk"
 Charge = -1 Multiplicity = 2

                         Standard orientation:
 ---------------------------------------------------------------------
 Center     Atomic      Atomic             Coordinates (Angstroms)
 Number     Number       Type             X           Y           Z
 ---------------------------------------------------------------------
      1          6           0        2.414217    2.044983   -0.001093
      2          6           0        1.830986    0.659897   -0.000529
      3          7           0        0.490470    0.577011   -0.000343
      4          6           0       -0.049704   -0.651473    0.000340
      5          7           0        0.627650   -1.818463    0.000643
      6          6           0        1.953284   -1.712241    0.000432
      7          6           0        2.622455   -0.487543   -0.000107
      8          7           0       -1.417865   -0.791753    0.000513
      9          6           0       -2.477383    0.145233   -0.000008
     10          8           0       -3.627842   -0.266802   -0.002844
     11          7           0       -2.111260    1.449828    0.004005
     12          1           0        2.071441    2.598049   -0.882607
     13          1           0        2.072655    2.598175    0.880831
     14          1           0        3.506866    2.022625   -0.001784
     15          1           0        2.507036   -2.649685    0.000677
     16          1           0        3.704567   -0.431174   -0.000259
     17          1           0       -1.743638   -1.749464   -0.000271
     18          1           0       -1.128752    1.705638    0.000543
     19          1           0       -2.853534    2.130754   -0.002321
 ---------------------------------------------------------------------

 SCF Done:  E(UB3LYP) =  -527.919426389     A.U. after   33 cycles
 SCF Done:  E(UB3LYP) =  -527.919426389     a.u. after    1 cycles

 The electronic state is 2-A.
 Alpha  occ. eigenvalues --  -18.95829 -14.20455 -14.19684 -14.12877 -14.12321
 Alpha  occ. eigenvalues --  -10.17415 -10.11378 -10.02995 -10.02682 -10.02106
 Alpha  occ. eigenvalues --  -10.00766  -0.92545  -0.83962  -0.78325  -0.75667
 Alpha  occ. eigenvalues --   -0.71682  -0.62438  -0.56909  -0.51656  -0.47678
 Alpha  occ. eigenvalues --   -0.46167  -0.41683  -0.39252  -0.35906  -0.32649
 Alpha  occ. eigenvalues --   -0.32089  -0.31627  -0.29762  -0.28866  -0.26543
 Alpha  occ. eigenvalues --   -0.25396  -0.24687  -0.22722  -0.17125  -0.15342
 Alpha  occ. eigenvalues --   -0.15190  -0.14734  -0.14390  -0.08833  -0.08654
 Alpha  occ. eigenvalues --    0.06753
 Alpha virt. eigenvalues --    0.08746   0.09897   0.10542   0.12163   0.12210
 Alpha virt. eigenvalues --    0.12960   0.13755   0.14199   0.16273   0.16825
 Alpha virt. eigenvalues --    0.16907   0.17722   0.17884   0.18956   0.19375

  Beta  occ. eigenvalues --  -18.95834 -14.20462 -14.19675 -14.12516 -14.11950
  Beta  occ. eigenvalues --  -10.17418 -10.11440 -10.02733 -10.02422 -10.01601
  Beta  occ. eigenvalues --  -10.00945  -0.92549  -0.83648  -0.78171  -0.75425
  Beta  occ. eigenvalues --   -0.70789  -0.61924  -0.56622  -0.51614  -0.47481
  Beta  occ. eigenvalues --   -0.45569  -0.41506  -0.39060  -0.35605  -0.32461
  Beta  occ. eigenvalues --   -0.31937  -0.31451  -0.29738  -0.28056  -0.26300
  Beta  occ. eigenvalues --   -0.24632  -0.24426  -0.22353  -0.16220  -0.15207
  Beta  occ. eigenvalues --   -0.14873  -0.14367  -0.11863  -0.08396  -0.07677
  Beta virt. eigenvalues --    0.08736   0.09787   0.10549   0.12131   0.12162
  Beta virt. eigenvalues --    0.12931   0.13627   0.14072   0.15205   0.16198
  Beta virt. eigenvalues --    0.16767   0.16792   0.17634   0.18093   0.18851

 Mulliken charges and spin densities:
               1          2
     1  C   -0.534667  -0.102536
     2  C    0.521033   0.289907
     3  N   -0.302492   0.214538
     4  C   -0.187658  -0.033149
     5  N   -0.208143   0.140462
     6  C   -0.165693   0.432781
     7  C   -0.480382  -0.097547
     8  N   -0.372359  -0.004907
     9  C    0.290354   0.003562
    10  O   -0.421438  -0.002048
    11  N   -0.513701   0.000031
    12  H    0.048504   0.095069
    13  H    0.047519   0.096209
    14  H    0.115867  -0.000392
    15  H    0.121660  -0.036129
    16  H    0.075363   0.011048
    17  H    0.316304  -0.001563
    18  H    0.363371  -0.004796
    19  H    0.286559  -0.000541
 Sum of Mulliken charges =  -1.00000   1.00000

 Dipole moment (field-independent basis, Debye):
    X=              0.2955    Y=              2.6444    Z=             -0.0114  Tot=              2.6608
 Quadrupole moment (field-independent basis, Debye-Ang):
   XX=           -100.3925   YY=            -80.5766   ZZ=            -74.4681
   XY=             -3.7357   XZ=              0.0012   YZ=             -0.0359

 Summary of Natural Population Analysis:

                                       Natural Population
                Natural  -----------------------------------------------
    Atom  No    Charge         Core      Valence    Rydberg      Total
 -----------------------------------------------------------------------
      C    1   -0.29976      0.99964     2.29524    0.00488     3.29976
      C    2    0.21551      0.99957     1.77235    0.01257     2.78449
      N    3   -0.26616      0.99961     2.75384    0.01271     3.76616
      C    4    0.28508      0.99961     1.69453    0.02077     2.71492
      N    5   -0.24060      0.99968     2.72932    0.01160     3.74060
      C    6    0.13319      0.99962     1.85244    0.01475     2.86681
      C    7   -0.20289      0.99951     2.19404    0.00934     3.20289
      N    8   -0.31962      0.99962     2.81155    0.00845     3.81962
      C    9    0.40135      0.99975     1.57694    0.02196     2.59865
      O   10   -0.35545      0.99987     3.34891    0.00667     4.35545
      N   11   -0.42036      0.99970     2.91373    0.00694     3.92036
      H   12    0.10277      0.00000     0.39571    0.00152     0.39723
      H   13    0.10280      0.00000     0.39567    0.00153     0.39720
      H   14    0.09119      0.00000     0.40821    0.00060     0.40881
      H   15    0.06997      0.00000     0.42834    0.00169     0.43003
      H   16    0.09262      0.00000     0.40653    0.00085     0.40738
      H   17    0.20323      0.00000     0.29526    0.00151     0.29677
      H   18    0.21984      0.00000     0.27847    0.00169     0.28016
      H   19    0.18729      0.00000     0.31138    0.00132     0.31271
 =======================================================================
   * Total *    0.00000     10.99619    28.86246    0.14135    40.00000

 Normal termination of Gaussian 16 at Tue Dec  8 19:28:18 2020.
