 Gaussian 16, Revision A.03,

 -----------------------------------------------------------
 # opt freq B3LYP/6-31G(d) empiricaldispersion=gd3bj scf=xqc
 -----------------------------------------------------------

 -------------------------------
 CID_116417742_JID_5749_neutraal
 -------------------------------
 Symbolic Z-matrix:
 Charge =  0 Multiplicity = 1

 SCF Done:  E(RB3LYP) =  -620.567406790     A.U. after   13 cycles
 SCF Done:  E(RB3LYP) =  -620.571495813     A.U. after   11 cycles
 SCF Done:  E(RB3LYP) =  -620.572200383     A.U. after   10 cycles
 SCF Done:  E(RB3LYP) =  -620.572765088     A.U. after   11 cycles
 SCF Done:  E(RB3LYP) =  -620.573547464     A.U. after   11 cycles
 SCF Done:  E(RB3LYP) =  -620.574399728     A.U. after   10 cycles
 SCF Done:  E(RB3LYP) =  -620.574467099     A.U. after   10 cycles
 SCF Done:  E(RB3LYP) =  -620.573187519     A.U. after   11 cycles
 SCF Done:  E(RB3LYP) =  -620.574709247     A.U. after   11 cycles
 SCF Done:  E(RB3LYP) =  -620.574896952     A.U. after   11 cycles
 SCF Done:  E(RB3LYP) =  -620.575054112     A.U. after    9 cycles
 SCF Done:  E(RB3LYP) =  -620.575053567     A.U. after    8 cycles
 SCF Done:  E(RB3LYP) =  -620.575055052     A.U. after    9 cycles
 SCF Done:  E(RB3LYP) =  -620.575055059     A.U. after    7 cycles
 SCF Done:  E(RB3LYP) =  -620.575055072     A.U. after    7 cycles
 SCF Done:  E(RB3LYP) =  -620.575055090     A.U. after    6 cycles
 Optimization completed.
    -- Stationary point found.
 Normal termination of Gaussian 16 at Thu Dec 10 17:18:10 2020.

 --------------------------------------------------------------------
 #N Geom=AllCheck Guess=TCheck SCRF=Check GenChk RB3LYP/6-31G(d) Freq
 --------------------------------------------------------------------

 Structure from the checkpoint file:  "JID_5749.chk"
 -------------------------------
 CID_116417742_JID_5749_neutraal
 -------------------------------
 Charge =  0 Multiplicity = 1

 SCF Done:  E(RB3LYP) =  -620.575055090     A.U. after    1 cycles

  Exact polarizability: 168.590  -3.210 134.945   0.804  -0.119 131.811
 Approx polarizability: 204.172  -1.821 197.118   3.886   0.116 198.913

                      1                      2                      3
                      A                      A                      A
 Frequencies --     23.2026                33.3183                49.0444
 Red. masses --      3.6080                 3.8550                 2.8663
 Frc consts  --      0.0011                 0.0025                 0.0041
 IR Inten    --      0.0208                 0.0611                 0.0449

                      4                      5                      6
                      A                      A                      A
 Frequencies --     87.8634               115.7270               152.7652
 Red. masses --      3.2150                 2.8167                 2.9178
 Frc consts  --      0.0146                 0.0222                 0.0401
 IR Inten    --      0.3115                 0.0797                 0.0560

                      7                      8                      9
                      A                      A                      A
 Frequencies --    167.2072               205.0808               214.5508
 Red. masses --      2.8124                 2.4796                 1.2608
 Frc consts  --      0.0463                 0.0614                 0.0342
 IR Inten    --      0.8655                 2.0613                 0.7102

                     10                     11                     12
                      A                      A                      A
 Frequencies --    231.2940               244.5381               263.6644
 Red. masses --      1.2915                 1.6168                 2.2055
 Frc consts  --      0.0407                 0.0570                 0.0903
 IR Inten    --      5.0351                 3.7999                 2.5221

                     13                     14                     15
                      A                      A                      A
 Frequencies --    286.3318               311.2014               320.8860
 Red. masses --      1.6758                 2.1961                 1.5510
 Frc consts  --      0.0809                 0.1253                 0.0941
 IR Inten    --     31.2909                 1.2422                10.2188

                     16                     17                     18
                      A                      A                      A
 Frequencies --    351.6050               359.2395               364.2254
 Red. masses --      2.6432                 2.3221                 2.2979
 Frc consts  --      0.1925                 0.1766                 0.1796
 IR Inten    --      6.7689                 2.7440                 2.8108

                     19                     20                     21
                      A                      A                      A
 Frequencies --    389.6742               450.2998               458.6781
 Red. masses --      2.0810                 2.2702                 2.7810
 Frc consts  --      0.1862                 0.2712                 0.3447
 IR Inten    --      0.1920                 7.6502                 0.9246

                     22                     23                     24
                      A                      A                      A
 Frequencies --    480.8503               542.6625               556.1442
 Red. masses --      2.4714                 3.0355                 2.6998
 Frc consts  --      0.3367                 0.5267                 0.4920
 IR Inten    --      1.9037                 3.1600                 1.4162

                     25                     26                     27
                      A                      A                      A
 Frequencies --    587.9708               671.2073               718.6254
 Red. masses --      2.5384                 2.3131                 2.0098
 Frc consts  --      0.5170                 0.6140                 0.6115
 IR Inten    --      1.8250                 7.3736                17.7560

                     28                     29                     30
                      A                      A                      A
 Frequencies --    750.9381               778.7456               793.5364
 Red. masses --      2.2909                 1.3206                 1.6775
 Frc consts  --      0.7611                 0.4719                 0.6224
 IR Inten    --      0.1794                 0.9222                 1.7874

                     31                     32                     33
                      A                      A                      A
 Frequencies --    835.3535               842.4157               856.6498
 Red. masses --      1.4088                 1.6934                 1.8250
 Frc consts  --      0.5792                 0.7081                 0.7891
 IR Inten    --      2.1409                11.7038                 4.3682

                     34                     35                     36
                      A                      A                      A
 Frequencies --    882.0795               891.7451               920.1048
 Red. masses --      2.3998                 1.7028                 2.4829
 Frc consts  --      1.1001                 0.7978                 1.2385
 IR Inten    --     15.1574                12.2251                 4.2090

                     37                     38                     39
                      A                      A                      A
 Frequencies --    927.1888               947.8243               968.2182
 Red. masses --      1.4972                 2.2005                 1.9705
 Frc consts  --      0.7584                 1.1648                 1.0884
 IR Inten    --    145.9890                27.3635                 5.8450

                     40                     41                     42
                      A                      A                      A
 Frequencies --    993.3022              1007.0708              1015.0335
 Red. masses --      1.8700                 1.9593                 1.6285
 Frc consts  --      1.0871                 1.1708                 0.9886
 IR Inten    --      2.2286                 1.2208                 5.8150

                     43                     44                     45
                      A                      A                      A
 Frequencies --   1034.0720              1041.4484              1053.1258
 Red. masses --      1.6698                 1.5808                 1.7182
 Frc consts  --      1.0520                 1.0102                 1.1227
 IR Inten    --      2.7105                 9.5797                 3.6683

                     46                     47                     48
                      A                      A                      A
 Frequencies --   1061.9812              1064.4201              1079.1593
 Red. masses --      1.4575                 1.7245                 1.5833
 Frc consts  --      0.9685                 1.1512                 1.0864
 IR Inten    --     10.2328                 1.4671                 4.7783

                     49                     50                     51
                      A                      A                      A
 Frequencies --   1081.0178              1109.0179              1118.4721
 Red. masses --      1.6983                 2.0813                 2.0017
 Frc consts  --      1.1693                 1.5082                 1.4754
 IR Inten    --      3.9844                38.8363                 8.8301

                     52                     53                     54
                      A                      A                      A
 Frequencies --   1134.3699              1148.2447              1161.1136
 Red. masses --      2.7367                 1.1869                 1.5662
 Frc consts  --      2.0749                 0.9220                 1.2440
 IR Inten    --     14.3774                 0.8273                16.0508

                     55                     56                     57
                      A                      A                      A
 Frequencies --   1166.3807              1190.6440              1197.1634
 Red. masses --      1.6860                 1.8567                 1.9297
 Frc consts  --      1.3514                 1.5508                 1.6295
 IR Inten    --      0.7706                15.1651                15.1377

                     58                     59                     60
                      A                      A                      A
 Frequencies --   1212.7874              1231.1044              1237.9508
 Red. masses --      1.4178                 1.6039                 1.7219
 Frc consts  --      1.2287                 1.4322                 1.5547
 IR Inten    --      1.4726                 4.3790                 4.0123

                     61                     62                     63
                      A                      A                      A
 Frequencies --   1259.9600              1268.0393              1283.6934
 Red. masses --      1.5129                 1.5716                 1.5118
 Frc consts  --      1.4150                 1.4889                 1.4678
 IR Inten    --      1.6342                 6.3497                 5.3108

                     64                     65                     66
                      A                      A                      A
 Frequencies --   1313.1492              1331.0526              1343.9864
 Red. masses --      1.4069                 1.4077                 1.2758
 Frc consts  --      1.4294                 1.4694                 1.3578
 IR Inten    --      6.0886                 8.5639                 0.9426

                     67                     68                     69
                      A                      A                      A
 Frequencies --   1346.6013              1365.0991              1374.9817
 Red. masses --      1.3997                 1.2462                 1.2981
 Frc consts  --      1.4955                 1.3682                 1.4460
 IR Inten    --      0.4767                 4.6809                13.0711

                     70                     71                     72
                      A                      A                      A
 Frequencies --   1391.8394              1397.1765              1407.6702
 Red. masses --      1.4876                 1.2520                 1.4296
 Frc consts  --      1.6979                 1.4399                 1.6690
 IR Inten    --      2.0837                13.4984                11.3661

                     73                     74                     75
                      A                      A                      A
 Frequencies --   1409.8184              1420.4424              1433.1761
 Red. masses --      1.3603                 1.4371                 1.2486
 Frc consts  --      1.5930                 1.7084                 1.5111
 IR Inten    --      8.8735                33.0836                 7.7936

                     76                     77                     78
                      A                      A                      A
 Frequencies --   1434.3803              1438.8113              1445.7124
 Red. masses --      1.3087                 1.4405                 1.4245
 Frc consts  --      1.5864                 1.7570                 1.7541
 IR Inten    --     10.6443                 5.6175                 4.1242

                     79                     80                     81
                      A                      A                      A
 Frequencies --   1453.2842              1495.7640              1504.4117
 Red. masses --      1.3634                 1.0911                 1.0967
 Frc consts  --      1.6966                 1.4383                 1.4625
 IR Inten    --      2.1137                 1.7088                 6.4661

                     82                     83                     84
                      A                      A                      A
 Frequencies --   1510.9342              1516.5013              1517.7923
 Red. masses --      1.0842                 1.0905                 1.0823
 Frc consts  --      1.4583                 1.4776                 1.4690
 IR Inten    --      0.8865                 1.4792                12.0124

                     85                     86                     87
                      A                      A                      A
 Frequencies --   1526.4787              1530.3810              1536.0169
 Red. masses --      1.0754                 1.0616                 1.0613
 Frc consts  --      1.4763                 1.4649                 1.4754
 IR Inten    --      7.9370                 3.9986                 1.4086

                     88                     89                     90
                      A                      A                      A
 Frequencies --   1537.7350              1542.7503              1545.4979
 Red. masses --      1.3435                 1.0799                 1.0508
 Frc consts  --      1.8717                 1.5144                 1.4788
 IR Inten    --      1.1280                 2.4110                 6.6890

                     91                     92                     93
                      A                      A                      A
 Frequencies --   1700.2448              2956.7823              3027.7398
 Red. masses --      1.0887                 1.0730                 1.0731
 Frc consts  --      1.8542                 5.5268                 5.7958
 IR Inten    --     25.5146                65.5952                15.2708

                     94                     95                     96
                      A                      A                      A
 Frequencies --   3029.0321              3031.3260              3036.2603
 Red. masses --      1.0627                 1.0699                 1.0702
 Frc consts  --      5.7446                 5.7922                 5.8126
 IR Inten    --     31.4916                38.8154                12.1549

                     97                     98                     99
                      A                      A                      A
 Frequencies --   3040.8399              3041.1437              3044.2436
 Red. masses --      1.0776                 1.0694                 1.0805
 Frc consts  --      5.8705                 5.8270                 5.9000
 IR Inten    --     10.2796                56.8566                20.6683

                    100                    101                    102
                      A                      A                      A
 Frequencies --   3055.4593              3059.4525              3062.4972
 Red. masses --      1.0391                 1.0428                 1.1012
 Frc consts  --      5.7159                 5.7508                 6.0852
 IR Inten    --     26.1248                19.7873                 8.4026

                    103                    104                    105
                      A                      A                      A
 Frequencies --   3070.8629              3089.6689              3097.6579
 Red. masses --      1.0967                 1.0958                 1.0906
 Frc consts  --      6.0935                 6.1631                 6.1658
 IR Inten    --     94.6505                27.2219                46.3749

                    106                    107                    108
                      A                      A                      A
 Frequencies --   3101.2030              3114.5906              3123.5230
 Red. masses --      1.0953                 1.1001                 1.1006
 Frc consts  --      6.2064                 6.2876                 6.3266
 IR Inten    --     43.1806                31.7014                39.0964

                    109                    110                    111
                      A                      A                      A
 Frequencies --   3131.4568              3134.1641              3138.1810
 Red. masses --      1.1013                 1.1027                 1.0507
 Frc consts  --      6.3628                 6.3819                 6.0967
 IR Inten    --     31.3210                46.5219                24.7254

                    112                    113                    114
                      A                      A                      A
 Frequencies --   3142.9919              3154.5727              3211.3596
 Red. masses --      1.0582                 1.0889                 1.1192
 Frc consts  --      6.1590                 6.3847                 6.8002
 IR Inten    --     20.2571                18.8134                 0.3883

                    115                    116                    117
                      A                      A                      A
 Frequencies --   3226.2842              3453.0586              3534.8300
 Red. masses --      1.1157                 1.0496                 1.0915
 Frc consts  --      6.8423                 7.3734                 8.0356
 IR Inten    --     30.5630                 3.2030                 1.2780

 - Thermochemistry -
 -------------------
 Temperature   298.150 Kelvin.  Pressure   1.00000 Atm.
 Atom     1 has atomic number  6 and mass  12.00000

 Molecular mass:   210.20960 amu.
 Principal axes and moments of inertia in atomic units:
                           1         2         3
     Eigenvalues --  1488.936066201.452626414.10603
           X            1.00000  -0.00144  -0.00112
           Y            0.00147   0.99973   0.02318
           Z            0.00108  -0.02318   0.99973
 This molecule is an asymmetric top.
 Rotational symmetry number  1.
 Warning -- assumption of classical behavior for rotation
           may cause significant error
 Rotational temperatures (Kelvin)      0.05817     0.01397     0.01350
 Rotational constants (GHZ):           1.21210     0.29102     0.28137
 Zero-point vibrational energy    1005240.6 (Joules/Mol)
                                  240.25827 (Kcal/Mol)
 Warning -- explicit consideration of  25 degrees of freedom as
           vibrations may cause significant error
 Vibrational temperatures:     33.38    47.94    70.56   126.42   166.51
          (Kelvin)            219.79   240.57   295.07   308.69   332.78
                              351.84   379.35   411.97   447.75   461.68
                              505.88   516.87   524.04   560.65   647.88
                              659.94   691.84   780.77   800.17   845.96
                              965.72  1033.94  1080.43  1120.44  1141.72
                             1201.89  1212.05  1232.53  1269.12  1283.02
                             1323.83  1334.02  1363.71  1393.05  1429.14
                             1448.95  1460.41  1487.80  1498.41  1515.21
                             1527.95  1531.46  1552.67  1555.34  1595.63
                             1609.23  1632.11  1652.07  1670.58  1678.16
                             1713.07  1722.45  1744.93  1771.28  1781.14
                             1812.80  1824.43  1846.95  1889.33  1915.09
                             1933.70  1937.46  1964.07  1978.29  2002.55
                             2010.23  2025.32  2028.41  2043.70  2062.02
                             2063.75  2070.13  2080.06  2090.95  2152.07
                             2164.51  2173.90  2181.91  2183.76  2196.26
                             2201.88  2209.99  2212.46  2219.67  2223.63
                             2446.27  4254.15  4356.24  4358.10  4361.40
                             4368.50  4375.09  4375.53  4379.99  4396.12
                             4401.87  4406.25  4418.29  4445.34  4456.84
                             4461.94  4481.20  4494.05  4505.47  4509.36
                             4515.14  4522.06  4538.73  4620.43  4641.90
                             4968.18  5085.83

 Zero-point correction=                           0.382876 (Hartree/Particle)
 Thermal correction to Energy=                    0.399231
 Thermal correction to Enthalpy=                  0.400175
 Thermal correction to Gibbs Free Energy=         0.338714
 Sum of electronic and zero-point Energies=           -620.192179
 Sum of electronic and thermal Energies=              -620.175824
 Sum of electronic and thermal Enthalpies=            -620.174880
 Sum of electronic and thermal Free Energies=         -620.236341

                     E (Thermal)             CV                S
                      KCal/Mol        Cal/Mol-Kelvin    Cal/Mol-Kelvin
 Total                  250.521             64.188            129.356
 Electronic               0.000              0.000              0.000
 Translational            0.889              2.981             41.933
 Rotational               0.889              2.981             32.449
 Vibrational            248.744             58.227             54.975
 Vibration     1          0.593              1.985              6.339
 Vibration     2          0.594              1.983              5.621
 Vibration     3          0.595              1.978              4.856
 Vibration     4          0.601              1.958              3.707
 Vibration     5          0.608              1.936              3.171
 Vibration     6          0.619              1.900              2.638
 Vibration     7          0.624              1.883              2.467
 Vibration     8          0.640              1.833              2.087
 Vibration     9          0.644              1.819              2.005
 Vibration    10          0.653              1.793              1.869
 Vibration    11          0.660              1.772              1.770
 Vibration    12          0.670              1.739              1.637
 Vibration    13          0.684              1.699              1.496
 Vibration    14          0.700              1.652              1.356
 Vibration    15          0.706              1.634              1.306
 Vibration    16          0.728              1.572              1.159
 Vibration    17          0.734              1.556              1.125
 Vibration    18          0.738              1.546              1.104
 Vibration    19          0.758              1.492              1.001
 Vibration    20          0.809              1.360              0.795
 Vibration    21          0.817              1.342              0.770
 Vibration    22          0.837              1.293              0.708
 Vibration    23          0.898              1.156              0.560
 Vibration    24          0.912              1.126              0.532
 Vibration    25          0.945              1.057              0.471

 Optimization completed.
    -- Stationary point found.
 Normal termination of Gaussian 16 at Thu Dec 10 17:33:57 2020.

 ----------------------------------------------------------------------
 # B3LYP/6-311++G(d,p) empiricaldispersion=gd3bj scf=xqc pop=npa geom=c
 heck
 ----------------------------------------------------------------------

 ---------------------------------------
 CID_116417742_JID_5749_Energie_neutraal
 ---------------------------------------
 Structure from the checkpoint file:  "JID_5749.chk"
 Charge =  0 Multiplicity = 1

 SCF Done:  E(RB3LYP) =  -620.751567334     A.U. after   14 cycles
 Normal termination of Gaussian 16 at Thu Dec 10 17:40:50 2020.

 ----------------------------------------------------------------------
 # B3LYP/6-311++G(d,p) empiricaldispersion=gd3bj scf=xqc pop=npa geom=c
 heck
 ----------------------------------------------------------------------

 -------------------------------------
 CID_116417742_JID_5749_Energie_kation
 -------------------------------------
 Structure from the checkpoint file:  "JID_5749.chk"
 Charge =  1 Multiplicity = 2

 SCF Done:  E(UB3LYP) =  -620.481035259     A.U. after   21 cycles
 Normal termination of Gaussian 16 at Thu Dec 10 17:55:15 2020.
 Gaussian 16:  ES64L-G16RevA.03 25-Dec-2016

 ----------------------------------------------------------------------
 # B3LYP/6-311++G(d,p) empiricaldispersion=gd3bj scf=xqc pop=npa geom=c
 heck
 ----------------------------------------------------------------------

 ------------------------------------
 CID_116417742_JID_5749_Energie_anion
 ------------------------------------
 Structure from the checkpoint file:  "JID_5749.chk"
 Charge = -1 Multiplicity = 2

                         Standard orientation:
 ---------------------------------------------------------------------
 Center     Atomic      Atomic             Coordinates (Angstroms)
 Number     Number       Type             X           Y           Z
 ---------------------------------------------------------------------
      1          6           0        2.093280    0.854630   -1.903230
      2          6           0        2.161745    1.042000   -0.380271
      3          6           0        0.750096    1.035778    0.274985
      4          7           0        0.142437   -0.298229    0.397231
      5          6           0        1.022987   -1.272415    1.036469
      6          6           0        2.403606   -1.372812    0.366103
      7          6           0        3.080324    0.007218    0.307306
      8          7           0        4.412745    0.016391   -0.312569
      9          6           0       -0.568886   -0.813463   -0.770472
     10          6           0       -1.797067   -1.650403   -0.383542
     11          6           0       -2.761535   -0.929040    0.567400
     12          6           0       -3.262132    0.397505    0.033289
     13          6           0       -4.320715    0.428537   -1.042870
     14          6           0       -4.651752    0.880750    0.360450
     15          6           0        0.748559    1.739648    1.640385
     16          1           0        1.400030    1.578647   -2.346482
     17          1           0        1.748358   -0.143310   -2.191478
     18          1           0        3.074799    1.021482   -2.358294
     19          1           0        2.610017    2.028091   -0.201375
     20          1           0        0.083143    1.613939   -0.376345
     21          1           0        0.521358   -2.245070    1.041048
     22          1           0        1.157857   -0.992923    2.089869
     23          1           0        2.300552   -1.778192   -0.649750
     24          1           0        3.040608   -2.074675    0.921891
     25          1           0        3.231436    0.343563    1.342066
     26          1           0        5.038132   -0.570767    0.238995
     27          1           0        4.359761   -0.430557   -1.227698
     28          1           0       -0.901043    0.043806   -1.363903
     29          1           0        0.073571   -1.415887   -1.437185
     30          1           0       -2.320825   -1.924406   -1.309558
     31          1           0       -1.476926   -2.593899    0.078567
     32          1           0       -3.620863   -1.584225    0.765829
     33          1           0       -2.257565   -0.761572    1.525966
     34          1           0       -2.500924    1.172722   -0.029051
     35          1           0       -4.252759    1.178933   -1.825810
     36          1           0       -4.727720   -0.523152   -1.376568
     37          1           0       -5.282653    0.234948    0.966398
     38          1           0       -4.806126    1.941772    0.536772
     39          1           0        1.084943    2.777146    1.537022
     40          1           0       -0.263563    1.736625    2.055809
     41          1           0        1.409072    1.252243    2.364625
 ---------------------------------------------------------------------

 SCF Done:  E(UB3LYP) =  -620.736529286     A.U. after   31 cycles

 The electronic state is 2-A.
 Alpha  occ. eigenvalues --  -14.19600 -14.18984 -10.09840 -10.09318 -10.08986
 Alpha  occ. eigenvalues --  -10.08845 -10.08162 -10.07935 -10.07741 -10.06869
 Alpha  occ. eigenvalues --  -10.06782 -10.06545 -10.05966 -10.05747 -10.05624
 Alpha  occ. eigenvalues --   -0.82726  -0.78520  -0.76792  -0.69700  -0.67271
 Alpha  occ. eigenvalues --   -0.65616  -0.62651  -0.58337  -0.56209  -0.52677
 Alpha  occ. eigenvalues --   -0.51146  -0.50745  -0.48770  -0.45949  -0.43245
 Alpha  occ. eigenvalues --   -0.40931  -0.39853  -0.38846  -0.37616  -0.36245
 Alpha  occ. eigenvalues --   -0.34856  -0.34371  -0.33196  -0.32374  -0.32192
 Alpha  occ. eigenvalues --   -0.31474  -0.29984  -0.29337  -0.28191  -0.27775
 Alpha  occ. eigenvalues --   -0.27629  -0.26975  -0.25997  -0.25647  -0.25148
 Alpha  occ. eigenvalues --   -0.23995  -0.23175  -0.22967  -0.21562  -0.20806
 Alpha  occ. eigenvalues --   -0.19928  -0.18847  -0.14267  -0.10511   0.04394
 Alpha virt. eigenvalues --    0.06084   0.06767   0.06976   0.07748   0.08279
 Alpha virt. eigenvalues --    0.08401   0.09431   0.09645   0.10168   0.10454
 Alpha virt. eigenvalues --    0.10616   0.11214   0.11847   0.12386   0.12767

  Beta  occ. eigenvalues --  -14.19603 -14.18951 -10.09832 -10.09309 -10.08975
  Beta  occ. eigenvalues --  -10.08828 -10.08156 -10.07924 -10.07721 -10.06862
  Beta  occ. eigenvalues --  -10.06778 -10.06532 -10.05953 -10.05715 -10.05599
  Beta  occ. eigenvalues --   -0.82713  -0.78470  -0.76777  -0.69675  -0.67245
  Beta  occ. eigenvalues --   -0.65575  -0.62625  -0.58302  -0.56163  -0.52623
  Beta  occ. eigenvalues --   -0.51097  -0.50700  -0.48735  -0.45916  -0.43200
  Beta  occ. eigenvalues --   -0.40899  -0.39817  -0.38798  -0.37587  -0.36219
  Beta  occ. eigenvalues --   -0.34829  -0.34336  -0.33172  -0.32343  -0.32162
  Beta  occ. eigenvalues --   -0.31435  -0.29950  -0.29313  -0.28164  -0.27739
  Beta  occ. eigenvalues --   -0.27605  -0.26951  -0.25972  -0.25619  -0.25118
  Beta  occ. eigenvalues --   -0.23970  -0.23152  -0.22945  -0.21534  -0.20775
  Beta  occ. eigenvalues --   -0.19908  -0.18828  -0.14232  -0.10504
  Beta virt. eigenvalues --    0.06311   0.07008   0.07156   0.07442   0.08132
  Beta virt. eigenvalues --    0.08695   0.08750   0.09721   0.09957   0.10424
  Beta virt. eigenvalues --    0.10752   0.10860   0.11520   0.12028   0.12669

 Mulliken charges and spin densities:
               1          2
     1  C    0.362353  -0.997266
     2  C   -0.242943   0.612760
     3  C   -0.700225   0.426317
     4  N    0.367660  -0.023691
     5  C    0.041373  -0.369207
     6  C    0.002582  -0.189346
     7  C    0.565057  -1.373196
     8  N   -0.416396   0.139715
     9  C   -0.461000   0.174902
    10  C    0.268915  -0.809584
    11  C    0.054922  -0.444920
    12  C   -1.007169   1.331073
    13  C    0.439315  -1.014732
    14  C    0.468800  -0.771547
    15  C    0.163758  -0.700521
    16  H   -0.107429   0.241451
    17  H    0.080912   0.096378
    18  H   -0.165859   0.307855
    19  H    0.113554   0.102898
    20  H   -0.077079   0.203272
    21  H    0.027280   0.121758
    22  H   -0.159837   0.312059
    23  H   -0.025032   0.176447
    24  H   -0.601512   0.781576
    25  H    0.036318   0.154058
    26  H   -0.102615   0.338863
    27  H    0.052085   0.166332
    28  H    0.175060  -0.018320
    29  H   -0.267300   0.374900
    30  H    0.067725   0.061786
    31  H   -0.030671   0.163103
    32  H   -0.043554   0.191653
    33  H    0.165429  -0.008627
    34  H    0.095211   0.150628
    35  H   -0.197491   0.352731
    36  H   -0.001464   0.134055
    37  H    0.037931   0.077681
    38  H   -0.027224   0.159372
    39  H   -0.047770   0.182314
    40  H    0.019436   0.120694
    41  H    0.076895   0.064325
 Sum of Mulliken charges =  -1.00000   1.00000

 Dipole moment (field-independent basis, Debye):
    X=             -3.7252    Y=              0.6270    Z=              1.0802  Tot=              3.9290
 Quadrupole moment (field-independent basis, Debye-Ang):
   XX=           -189.0873   YY=           -140.1494   ZZ=           -135.3107
   XY=              8.9853   XZ=             -6.4082   YZ=              4.9870

 Summary of Natural Population Analysis:

                                       Natural Population
                Natural  -----------------------------------------------
    Atom  No    Charge         Core      Valence    Rydberg      Total
 -----------------------------------------------------------------------
      C    1   -0.29167      0.99964     2.28565    0.00638     3.29167
      C    2   -0.11714      0.99956     2.10565    0.01193     3.11714
      C    3    0.00207      0.99957     1.98468    0.01368     2.99793
      N    4   -0.29461      0.99970     2.78076    0.01414     3.79461
      C    5   -0.08305      0.99960     2.07138    0.01207     3.08305
      C    6   -0.20846      0.99960     2.19856    0.01030     3.20846
      C    7   -0.01157      0.99956     1.99885    0.01317     3.01157
      N    8   -0.42051      0.99977     2.91042    0.01033     3.92051
      C    9   -0.08234      0.99960     2.07190    0.01085     3.08234
      C   10   -0.19019      0.99962     2.18176    0.00881     3.19019
      C   11   -0.18931      0.99960     2.18125    0.00846     3.18931
      C   12   -0.11843      0.99959     2.10734    0.01150     3.11843
      C   13   -0.20108      0.99962     2.19383    0.00764     3.20108
      C   14   -0.19615      0.99962     2.19014    0.00638     3.19615
      C   15   -0.28587      0.99964     2.28117    0.00507     3.28587
      H   16    0.10011      0.00000     0.39876    0.00113     0.39989
      H   17    0.09786      0.00000     0.40073    0.00141     0.40214
      H   18    0.10188      0.00000     0.39713    0.00099     0.39812
      H   19    0.09975      0.00000     0.39868    0.00157     0.40025
      H   20    0.09448      0.00000     0.40345    0.00207     0.40552
      H   21    0.09781      0.00000     0.40100    0.00119     0.40219
      H   22    0.09200      0.00000     0.40673    0.00127     0.40800
      H   23    0.09435      0.00000     0.40385    0.00180     0.40565
      H   24    0.10192      0.00000     0.39567    0.00240     0.39808
      H   25    0.09016      0.00000     0.40798    0.00186     0.40984
      H   26    0.17589      0.00000     0.32200    0.00212     0.32411
      H   27    0.17143      0.00000     0.32659    0.00197     0.32857
      H   28    0.09613      0.00000     0.40200    0.00187     0.40387
      H   29    0.08505      0.00000     0.41341    0.00153     0.41495
      H   30    0.09610      0.00000     0.40271    0.00119     0.40390
      H   31    0.09447      0.00000     0.40436    0.00117     0.40553
      H   32    0.09369      0.00000     0.40517    0.00114     0.40631
      H   33    0.10425      0.00000     0.39435    0.00139     0.39575
      H   34    0.10440      0.00000     0.39357    0.00203     0.39560
      H   35    0.10285      0.00000     0.39602    0.00113     0.39715
      H   36    0.09917      0.00000     0.39986    0.00097     0.40083
      H   37    0.09756      0.00000     0.40144    0.00100     0.40244
      H   38    0.10043      0.00000     0.39862    0.00096     0.39957
      H   39    0.09775      0.00000     0.40140    0.00085     0.40225
      H   40    0.10203      0.00000     0.39682    0.00115     0.39797
      H   41    0.09678      0.00000     0.40212    0.00110     0.40322
 =======================================================================
   * Total *   -0.00000     14.99428    43.81773    0.18799    59.00000

 Normal termination of Gaussian 16 at Thu Dec 10 18:14:49 2020.
