 Gaussian 16, Revision A.03,

 -----------------------------------------------------------
 # opt freq B3LYP/6-31G(d) empiricaldispersion=gd3bj scf=xqc
 -----------------------------------------------------------

 ------------------------------
 CID_64386889_JID_7180_neutraal
 ------------------------------
 Symbolic Z-matrix:
 Charge =  0 Multiplicity = 1

 SCF Done:  E(RB3LYP) =  -796.982294867     A.U. after   16 cycles
 SCF Done:  E(RB3LYP) =  -796.993009821     A.U. after   15 cycles
 SCF Done:  E(RB3LYP) =  -796.996487829     A.U. after   16 cycles
 SCF Done:  E(RB3LYP) =  -796.988245378     A.U. after   17 cycles
 SCF Done:  E(RB3LYP) =  -796.999144596     A.U. after   15 cycles
 SCF Done:  E(RB3LYP) =  -796.999765803     A.U. after   13 cycles
 SCF Done:  E(RB3LYP) =  -797.000199222     A.U. after   13 cycles
 SCF Done:  E(RB3LYP) =  -797.000316631     A.U. after   12 cycles
 SCF Done:  E(RB3LYP) =  -797.000471317     A.U. after   12 cycles
 SCF Done:  E(RB3LYP) =  -797.000680590     A.U. after   13 cycles
 SCF Done:  E(RB3LYP) =  -797.000727327     A.U. after    8 cycles
 SCF Done:  E(RB3LYP) =  -797.000727906     A.U. after    9 cycles
 SCF Done:  E(RB3LYP) =  -797.000728902     A.U. after    9 cycles
 SCF Done:  E(RB3LYP) =  -797.000729139     A.U. after    9 cycles
 SCF Done:  E(RB3LYP) =  -797.000729199     A.U. after    8 cycles
 Optimization completed.
    -- Stationary point found.
 Normal termination of Gaussian 16 at Fri Dec 11 12:03:22 2020.

 --------------------------------------------------------------------
 #N Geom=AllCheck Guess=TCheck SCRF=Check GenChk RB3LYP/6-31G(d) Freq
 --------------------------------------------------------------------

 Structure from the checkpoint file:  "JID_7180.chk"
 ------------------------------
 CID_64386889_JID_7180_neutraal
 ------------------------------
 Charge =  0 Multiplicity = 1

 SCF Done:  E(RB3LYP) =  -797.000729199     A.U. after    1 cycles

  Exact polarizability: 239.981   1.224 141.229   9.637   1.065  87.446
 Approx polarizability: 329.833   1.869 260.662  21.620   0.339 134.883

                      1                      2                      3
                      A                      A                      A
 Frequencies --     29.9432                40.8987                52.9919
 Red. masses --      4.9059                 5.2227                 4.3366
 Frc consts  --      0.0026                 0.0051                 0.0072
 IR Inten    --      0.2434                 0.5853                 0.8275

                      4                      5                      6
                      A                      A                      A
 Frequencies --     67.2253               100.0789               127.4585
 Red. masses --      3.9778                 4.0657                 3.4153
 Frc consts  --      0.0106                 0.0240                 0.0327
 IR Inten    --      0.7691                 0.0942                 1.2204

                      7                      8                      9
                      A                      A                      A
 Frequencies --    131.9429               228.0353               246.4018
 Red. masses --      6.7355                 3.8447                 5.6998
 Frc consts  --      0.0691                 0.1178                 0.2039
 IR Inten    --      4.0224                 3.0775                 0.9988

                     10                     11                     12
                      A                      A                      A
 Frequencies --    268.9957               306.2151               370.6327
 Red. masses --      3.4032                 5.4138                 2.5823
 Frc consts  --      0.1451                 0.2991                 0.2090
 IR Inten    --      5.4403                 0.1549                 0.1187

                     13                     14                     15
                      A                      A                      A
 Frequencies --    388.5622               440.9328               472.0794
 Red. masses --      2.3752                 3.5148                 3.7251
 Frc consts  --      0.2113                 0.4026                 0.4891
 IR Inten    --      0.1869                 2.7086                 0.8434

                     16                     17                     18
                      A                      A                      A
 Frequencies --    491.3610               520.7668               548.8458
 Red. masses --      5.6359                 3.6860                 6.9789
 Frc consts  --      0.8017                 0.5890                 1.2386
 IR Inten    --      1.0304                 0.3442                 0.8669

                     19                     20                     21
                      A                      A                      A
 Frequencies --    563.4068               622.3643               645.6651
 Red. masses --      3.4383                 2.5210                 7.9783
 Frc consts  --      0.6430                 0.5753                 1.9596
 IR Inten    --     12.5821                45.0142                 5.5366

                     22                     23                     24
                      A                      A                      A
 Frequencies --    707.4186               721.8664               757.5992
 Red. masses --      4.3795                 6.8297                 2.9228
 Frc consts  --      1.2913                 2.0968                 0.9884
 IR Inten    --     16.8258                16.3894                 1.5007

                     25                     26                     27
                      A                      A                      A
 Frequencies --    774.4430               803.6763               824.1718
 Red. masses --      8.1150                 2.7110                 5.6502
 Frc consts  --      2.8676                 1.0317                 2.2612
 IR Inten    --      6.8347                 9.4293                35.8528

                     28                     29                     30
                      A                      A                      A
 Frequencies --    842.7827               857.1197               876.0650
 Red. masses --      1.6117                 2.4608                 8.6783
 Frc consts  --      0.6745                 1.0651                 3.9242
 IR Inten    --     31.6315                21.5429                26.4286

                     31                     32                     33
                      A                      A                      A
 Frequencies --    900.1780               907.4425               941.5628
 Red. masses --      1.6508                 2.3629                 2.0812
 Frc consts  --      0.7881                 1.1464                 1.0871
 IR Inten    --     10.8709                 3.9219                 6.3766

                     34                     35                     36
                      A                      A                      A
 Frequencies --    965.2032               979.0385               993.0690
 Red. masses --      1.5877                 1.3109                 3.6473
 Frc consts  --      0.8715                 0.7403                 2.1192
 IR Inten    --      2.8791                 0.3622                10.0506

                     37                     38                     39
                      A                      A                      A
 Frequencies --   1009.1275              1027.2945              1032.9995
 Red. masses --      1.6269                 2.6672                 2.0181
 Frc consts  --      0.9761                 1.6584                 1.2688
 IR Inten    --      0.1360                 9.6806                 4.8355

                     40                     41                     42
                      A                      A                      A
 Frequencies --   1045.6680              1082.5728              1111.2440
 Red. masses --      1.8807                 2.0455                 1.7051
 Frc consts  --      1.2116                 1.4124                 1.2405
 IR Inten    --      2.1732                 3.3803                 6.1414

                     43                     44                     45
                      A                      A                      A
 Frequencies --   1139.2565              1141.0277              1159.6272
 Red. masses --      2.1098                 1.7185                 2.1384
 Frc consts  --      1.6134                 1.3182                 1.6943
 IR Inten    --     46.0831                75.2900                 2.5665

                     46                     47                     48
                      A                      A                      A
 Frequencies --   1200.6275              1205.0468              1229.7196
 Red. masses --      1.5134                 1.8594                 1.2264
 Frc consts  --      1.2854                 1.5909                 1.0927
 IR Inten    --      8.8747                10.2842                 2.9968

                     49                     50                     51
                      A                      A                      A
 Frequencies --   1234.5532              1245.9328              1263.1269
 Red. masses --      2.3338                 1.2466                 1.3347
 Frc consts  --      2.0957                 1.1401                 1.2547
 IR Inten    --     34.0742                 4.6287                 3.4322

                     52                     53                     54
                      A                      A                      A
 Frequencies --   1277.5616              1303.5848              1319.0633
 Red. masses --      1.3790                 1.3526                 1.4576
 Frc consts  --      1.3261                 1.3543                 1.4943
 IR Inten    --      2.8032                15.9915                27.4278

                     55                     56                     57
                      A                      A                      A
 Frequencies --   1339.3904              1352.5177              1364.2760
 Red. masses --      2.3859                 1.7532                 1.6584
 Frc consts  --      2.5218                 1.8896                 1.8186
 IR Inten    --     82.1185               159.6359               127.1119

                     58                     59                     60
                      A                      A                      A
 Frequencies --   1369.4842              1380.3507              1398.2447
 Red. masses --      1.4059                 3.3752                 1.4178
 Frc consts  --      1.5535                 3.7890                 1.6332
 IR Inten    --      1.8415               461.9090                22.5009

                     61                     62                     63
                      A                      A                      A
 Frequencies --   1414.8560              1429.2270              1434.9550
 Red. masses --      1.9842                 1.5678                 2.4737
 Frc consts  --      2.3402                 1.8869                 3.0010
 IR Inten    --     19.9664                 8.6744                14.2003

                     64                     65                     66
                      A                      A                      A
 Frequencies --   1459.4984              1472.7117              1539.0411
 Red. masses --      1.4139                 3.8276                 1.1053
 Frc consts  --      1.7744                 4.8911                 1.5425
 IR Inten    --      8.4544                85.1430                15.2459

                     67                     68                     69
                      A                      A                      A
 Frequencies --   1540.6507              1546.2239              1554.0570
 Red. masses --      1.3454                 1.7772                 1.2679
 Frc consts  --      1.8815                 2.5034                 1.8041
 IR Inten    --    143.2381               122.6360                 1.0320

                     70                     71                     72
                      A                      A                      A
 Frequencies --   1559.5412              1602.7946              1644.0120
 Red. masses --      1.1277                 7.6850                 5.8753
 Frc consts  --      1.6161                11.6318                 9.3560
 IR Inten    --      1.8562                54.3967               292.9228

                     73                     74                     75
                      A                      A                      A
 Frequencies --   1658.6968              2951.7262              2970.6555
 Red. masses --      9.8382                 1.0734                 1.0739
 Frc consts  --     15.9478                 5.5100                 5.5837
 IR Inten    --    173.4988                96.0701               107.2788

                     76                     77                     78
                      A                      A                      A
 Frequencies --   3000.5908              3032.2079              3056.2135
 Red. masses --      1.0686                 1.0584                 1.0948
 Frc consts  --      5.6688                 5.7334                 6.0247
 IR Inten    --     55.2998                31.4728                15.7461

                     79                     80                     81
                      A                      A                      A
 Frequencies --   3069.2964              3079.5903              3088.3789
 Red. masses --      1.1061                 1.0897                 1.0902
 Frc consts  --      6.1394                 6.0887                 6.1264
 IR Inten    --     15.8146                45.6867                29.1218

                     82                     83                     84
                      A                      A                      A
 Frequencies --   3102.0149              3114.8780              3202.9635
 Red. masses --      1.0881                 1.0879                 1.0894
 Frc consts  --      6.1688                 6.2189                 6.5851
 IR Inten    --     14.5445                57.1736                20.1808

                     85                     86                     87
                      A                      A                      A
 Frequencies --   3228.7956              3261.5902              3529.2875
 Red. masses --      1.0894                 1.0936                 1.0753
 Frc consts  --      6.6914                 6.8541                 7.8914
 IR Inten    --      8.7980                 0.7545                 0.2351

 - Thermochemistry -
 -------------------
 Temperature   298.150 Kelvin.  Pressure   1.00000 Atm.
 Atom     1 has atomic number  6 and mass  12.00000

 Molecular mass:   234.11168 amu.
 Principal axes and moments of inertia in atomic units:
                           1         2         3
     Eigenvalues --  1116.749789302.117959867.09425
           X            0.99999   0.00365  -0.00183
           Y           -0.00363   0.99994   0.01047
           Z            0.00187  -0.01047   0.99994
 This molecule is an asymmetric top.
 Rotational symmetry number  1.
 Warning -- assumption of classical behavior for rotation
           may cause significant error
 Rotational temperatures (Kelvin)      0.07756     0.00931     0.00878
 Rotational constants (GHZ):           1.61607     0.19401     0.18291
 Zero-point vibrational energy     671662.5 (Joules/Mol)
                                  160.53118 (Kcal/Mol)
 Warning -- explicit consideration of  19 degrees of freedom as
           vibrations may cause significant error
 Vibrational temperatures:     43.08    58.84    76.24    96.72   143.99
          (Kelvin)            183.38   189.84   328.09   354.52   387.02
                              440.58   533.26   559.05   634.40   679.22
                              706.96   749.27   789.67   810.62   895.44
                              928.97  1017.82  1038.60  1090.02  1114.25
                             1156.31  1185.80  1212.58  1233.20  1260.46
                             1295.16  1305.61  1354.70  1388.71  1408.62
                             1428.80  1451.91  1478.05  1486.26  1504.48
                             1557.58  1598.83  1639.14  1641.68  1668.44
                             1727.44  1733.79  1769.29  1776.25  1792.62
                             1817.36  1838.13  1875.57  1897.84  1927.08
                             1945.97  1962.89  1970.38  1986.02  2011.76
                             2035.66  2056.34  2064.58  2099.89  2118.90
                             2214.34  2216.65  2224.67  2235.94  2243.83
                             2306.06  2365.37  2386.49  4246.88  4274.11
                             4317.18  4362.67  4397.21  4416.03  4430.84
                             4443.49  4463.11  4481.61  4608.35  4645.52
                             4692.70  5077.86

 Zero-point correction=                           0.255823 (Hartree/Particle)
 Thermal correction to Energy=                    0.269745
 Thermal correction to Enthalpy=                  0.270689
 Thermal correction to Gibbs Free Energy=         0.212806
 Sum of electronic and zero-point Energies=           -796.744906
 Sum of electronic and thermal Energies=              -796.730984
 Sum of electronic and thermal Enthalpies=            -796.730040
 Sum of electronic and thermal Free Energies=         -796.787923

                     E (Thermal)             CV                S
                      KCal/Mol        Cal/Mol-Kelvin    Cal/Mol-Kelvin
 Total                  169.267             53.460            121.825
 Electronic               0.000              0.000              0.000
 Translational            0.889              2.981             42.254
 Rotational               0.889              2.981             32.994
 Vibrational            167.490             47.498             46.577
 Vibration     1          0.594              1.984              5.833
 Vibration     2          0.594              1.981              5.215
 Vibration     3          0.596              1.976              4.702
 Vibration     4          0.598              1.970              4.233
 Vibration     5          0.604              1.949              3.453
 Vibration     6          0.611              1.926              2.984
 Vibration     7          0.612              1.921              2.918
 Vibration     8          0.651              1.798              1.894
 Vibration     9          0.661              1.769              1.756
 Vibration    10          0.673              1.730              1.603
 Vibration    11          0.697              1.662              1.383
 Vibration    12          0.743              1.533              1.077
 Vibration    13          0.757              1.495              1.006
 Vibration    14          0.801              1.381              0.824
 Vibration    15          0.829              1.312              0.732
 Vibration    16          0.847              1.269              0.680
 Vibration    17          0.876              1.204              0.608
 Vibration    18          0.904              1.142              0.547
 Vibration    19          0.919              1.110              0.517

 Optimization completed.
    -- Stationary point found.
 Normal termination of Gaussian 16 at Fri Dec 11 12:13:29 2020.

 ----------------------------------------------------------------------
 # B3LYP/6-311++G(d,p) empiricaldispersion=gd3bj scf=xqc pop=npa geom=c
 heck
 ----------------------------------------------------------------------

 --------------------------------------
 CID_64386889_JID_7180_Energie_neutraal
 --------------------------------------
 Structure from the checkpoint file:  "JID_7180.chk"
 Charge =  0 Multiplicity = 1

 SCF Done:  E(RB3LYP) =  -797.220777175     A.U. after   16 cycles
 Normal termination of Gaussian 16 at Fri Dec 11 12:18:49 2020.

 ----------------------------------------------------------------------
 # B3LYP/6-311++G(d,p) empiricaldispersion=gd3bj scf=xqc pop=npa geom=c
 heck
 ----------------------------------------------------------------------

 ------------------------------------
 CID_64386889_JID_7180_Energie_kation
 ------------------------------------
 Structure from the checkpoint file:  "JID_7180.chk"
 Charge =  1 Multiplicity = 2

 SCF Done:  E(UB3LYP) =  -796.932456286     A.U. after   33 cycles
 SCF Done:  E(UB3LYP) =  -796.932456286     a.u. after    1 cycles
 Normal termination of Gaussian 16 at Fri Dec 11 12:35:35 2020.
 Gaussian 16:  ES64L-G16RevA.03 25-Dec-2016

 ----------------------------------------------------------------------
 # B3LYP/6-311++G(d,p) empiricaldispersion=gd3bj scf=xqc pop=npa geom=c
 heck
 ----------------------------------------------------------------------

 -----------------------------------
 CID_64386889_JID_7180_Energie_anion
 -----------------------------------
 Structure from the checkpoint file:  "JID_7180.chk"
 Charge = -1 Multiplicity = 2

                         Standard orientation:
 ---------------------------------------------------------------------
 Center     Atomic      Atomic             Coordinates (Angstroms)
 Number     Number       Type             X           Y           Z
 ---------------------------------------------------------------------
      1          6           0       -3.919389    0.915957    0.984422
      2          6           0       -3.257000    0.947860   -0.421456
      3          6           0       -1.791073    1.393456   -0.462424
      4          7           0       -1.019179    0.159331   -0.390735
      5          6           0       -1.826838   -1.044325   -0.574473
      6          6           0       -3.252808   -0.542245   -0.871249
      7          6           0       -4.297586   -1.190954    0.040899
      8          7           0       -4.027523   -0.511621    1.306210
      9          6           0        0.333068    0.135791   -0.245460
     10          6           0        1.045352   -1.093389   -0.152438
     11          7           0        2.359381   -1.171376   -0.009547
     12          6           0        3.047295   -0.040379    0.051034
     13          6           0        2.479338    1.230673   -0.026292
     14          6           0        1.105776    1.318809   -0.177984
     15          7           0        4.506704   -0.166841    0.210922
     16          8           0        4.994075   -1.288852    0.273406
     17          8           0        5.148953    0.888930    0.271443
     18          1           0       -3.321277    1.433097    1.742856
     19          1           0       -4.899073    1.421293    0.932193
     20          1           0       -3.853209    1.567522   -1.095336
     21          1           0       -1.541340    2.055778    0.375812
     22          1           0       -1.565218    1.941043   -1.390577
     23          1           0       -1.430180   -1.652196   -1.397818
     24          1           0       -1.814647   -1.651607    0.338916
     25          1           0       -3.494363   -0.653922   -1.931170
     26          1           0       -4.165697   -2.273749    0.143749
     27          1           0       -5.310793   -1.006932   -0.362501
     28          1           0       -4.733049   -0.698337    2.013523
     29          1           0        0.511986   -2.038327   -0.190781
     30          1           0        3.106520    2.110490    0.027914
     31          1           0        0.633621    2.291246   -0.250993
 ---------------------------------------------------------------------

 SCF Done:  E(UB3LYP) =  -797.243535088     A.U. after   31 cycles

 The electronic state is 2-A.
 Alpha  occ. eigenvalues --  -18.96338 -18.96216 -14.34269 -14.23144 -14.22304
 Alpha  occ. eigenvalues --  -14.18314 -10.11818 -10.11812 -10.11677 -10.11215
 Alpha  occ. eigenvalues --  -10.10281 -10.10089 -10.09990 -10.09640 -10.08515
 Alpha  occ. eigenvalues --  -10.06891 -10.06202  -1.04159  -0.87163  -0.86996
 Alpha  occ. eigenvalues --   -0.84279  -0.82396  -0.71894  -0.68150  -0.67490
 Alpha  occ. eigenvalues --   -0.65125  -0.61649  -0.58465  -0.53292  -0.51767
 Alpha  occ. eigenvalues --   -0.50300  -0.47943  -0.46498  -0.45160  -0.43079
 Alpha  occ. eigenvalues --   -0.39902  -0.38969  -0.38330  -0.36781  -0.36338
 Alpha  occ. eigenvalues --   -0.35533  -0.34175  -0.33391  -0.33296  -0.32032
 Alpha  occ. eigenvalues --   -0.31352  -0.30069  -0.29615  -0.29122  -0.27484
 Alpha  occ. eigenvalues --   -0.26779  -0.26004  -0.25410  -0.25005  -0.20229
 Alpha  occ. eigenvalues --   -0.16779  -0.15491  -0.14861  -0.14605  -0.13421
 Alpha  occ. eigenvalues --   -0.11368  -0.09710   0.02522
 Alpha virt. eigenvalues --    0.04095   0.06212   0.06589   0.07484   0.08499
 Alpha virt. eigenvalues --    0.08881   0.09071   0.09424   0.10235   0.10960
 Alpha virt. eigenvalues --    0.11778   0.12728   0.13332   0.13459   0.13683

  Beta  occ. eigenvalues --  -18.95953 -18.95868 -14.33800 -14.23104 -14.22295
  Beta  occ. eigenvalues --  -14.18090 -10.11820 -10.11798 -10.11665 -10.11215
  Beta  occ. eigenvalues --  -10.10109 -10.10080 -10.09984 -10.09580 -10.08589
  Beta  occ. eigenvalues --  -10.06923 -10.06137  -1.03365  -0.87050  -0.86317
  Beta  occ. eigenvalues --   -0.84217  -0.82111  -0.71775  -0.68071  -0.67380
  Beta  occ. eigenvalues --   -0.64820  -0.61612  -0.58112  -0.53037  -0.51663
  Beta  occ. eigenvalues --   -0.50193  -0.47897  -0.46268  -0.45063  -0.42988
  Beta  occ. eigenvalues --   -0.39835  -0.38789  -0.37889  -0.36650  -0.35467
  Beta  occ. eigenvalues --   -0.34180  -0.34094  -0.33335  -0.33020  -0.31840
  Beta  occ. eigenvalues --   -0.31144  -0.29990  -0.29462  -0.29062  -0.26986
  Beta  occ. eigenvalues --   -0.26651  -0.25963  -0.25376  -0.24978  -0.19477
  Beta  occ. eigenvalues --   -0.16258  -0.15456  -0.14590  -0.13063  -0.12138
  Beta  occ. eigenvalues --   -0.11001  -0.09180
  Beta virt. eigenvalues --    0.04531   0.06419   0.06709   0.07567   0.08183
  Beta virt. eigenvalues --    0.08724   0.08961   0.09153   0.09513   0.10261
  Beta virt. eigenvalues --    0.10975   0.11821   0.12618   0.13355   0.13462

 Mulliken charges and spin densities:
               1          2
     1  C   -0.006641  -0.486485
     2  C   -0.292067  -0.117671
     3  C   -0.146095   0.054612
     4  N    0.210883  -0.004326
     5  C   -0.152177  -0.420250
     6  C    0.146267   0.342450
     7  C   -0.237574  -0.486832
     8  N   -0.193183   0.037065
     9  C   -0.250761   0.072752
    10  C   -0.226593  -0.075460
    11  N   -0.052623   0.107556
    12  C   -0.388166   0.023221
    13  C   -0.101005   0.109754
    14  C    0.171083   0.009138
    15  N   -0.285170   0.152719
    16  O   -0.139380   0.148829
    17  O   -0.159855   0.132101
    18  H    0.156373   0.001756
    19  H   -0.127509   0.256963
    20  H   -0.096469   0.327549
    21  H    0.122128   0.005088
    22  H    0.092025   0.066557
    23  H    0.110709   0.062314
    24  H    0.232561  -0.018648
    25  H   -0.027732   0.256039
    26  H    0.095759   0.049529
    27  H   -0.173221   0.305441
    28  H    0.173494   0.067494
    29  H    0.185170   0.010764
    30  H    0.229284  -0.003011
    31  H    0.130486   0.012994
 Sum of Mulliken charges =  -1.00000   1.00000

 Dipole moment (field-independent basis, Debye):
    X=            -12.6330    Y=              1.9046    Z=             -0.2661  Tot=             12.7785
 Quadrupole moment (field-independent basis, Debye-Ang):
   XX=           -224.8731   YY=           -116.2519   ZZ=           -113.1918
   XY=             10.7762   XZ=             -8.5716   YZ=              1.5778

 Summary of Natural Population Analysis:

                                       Natural Population
                Natural  -----------------------------------------------
    Atom  No    Charge         Core      Valence    Rydberg      Total
 -----------------------------------------------------------------------
      C    1   -0.08666      0.99963     2.07518    0.01185     3.08666
      C    2   -0.11443      0.99959     2.10398    0.01086     3.11443
      C    3   -0.07830      0.99962     2.06735    0.01133     3.07830
      N    4   -0.24097      0.99964     2.73294    0.00840     3.74097
      C    5   -0.08065      0.99962     2.06937    0.01166     3.08065
      C    6   -0.11309      0.99959     2.10242    0.01109     3.11309
      C    7   -0.08700      0.99961     2.07594    0.01144     3.08700
      N    8   -0.34353      0.99975     2.83307    0.01071     3.84353
      C    9    0.10825      0.99952     1.88221    0.01002     2.89175
      C   10   -0.01896      0.99959     2.00653    0.01284     3.01896
      N   11   -0.17306      0.99966     2.66278    0.01062     3.67306
      C   12    0.14110      0.99944     1.84435    0.01512     2.85890
      C   13   -0.09185      0.99953     2.08299    0.00932     3.09185
      C   14   -0.13152      0.99956     2.12482    0.00714     3.13152
      N   15    0.28128      0.99973     2.19053    0.02846     3.21872
      O   16   -0.17633      0.99989     3.16823    0.00820     4.17633
      O   17   -0.21317      0.99990     3.20520    0.00807     4.21317
      H   18    0.09381      0.00000     0.40513    0.00106     0.40619
      H   19    0.08240      0.00000     0.41616    0.00144     0.41760
      H   20    0.10551      0.00000     0.39306    0.00144     0.39449
      H   21    0.09441      0.00000     0.40431    0.00129     0.40559
      H   22    0.09184      0.00000     0.40701    0.00115     0.40816
      H   23    0.09508      0.00000     0.40366    0.00126     0.40492
      H   24    0.09752      0.00000     0.40105    0.00143     0.40248
      H   25    0.10523      0.00000     0.39378    0.00099     0.39477
      H   26    0.09505      0.00000     0.40409    0.00086     0.40495
      H   27    0.08199      0.00000     0.41654    0.00148     0.41801
      H   28    0.17548      0.00000     0.32226    0.00226     0.32452
      H   29    0.08670      0.00000     0.41169    0.00161     0.41330
      H   30    0.11579      0.00000     0.38297    0.00124     0.38421
      H   31    0.09812      0.00000     0.40064    0.00125     0.40188
 =======================================================================
   * Total *   -0.00000     16.99387    44.79023    0.21590    62.00000

 Normal termination of Gaussian 16 at Fri Dec 11 12:55:57 2020.
