 Gaussian 16, Revision A.03,

 -----------------------------------------------------------
 # opt freq B3LYP/6-31G(d) empiricaldispersion=gd3bj scf=xqc
 -----------------------------------------------------------

 ------------------------------
 CID_129778552_JID_414_neutraal
 ------------------------------
 Symbolic Z-matrix:
 Charge =  0 Multiplicity = 1

 SCF Done:  E(RB3LYP) =  -526.582188921     A.U. after   15 cycles
 SCF Done:  E(RB3LYP) =  -526.591721505     A.U. after   13 cycles
 SCF Done:  E(RB3LYP) =  -526.590455547     A.U. after   14 cycles
 SCF Done:  E(RB3LYP) =  -526.592296890     A.U. after   14 cycles
 SCF Done:  E(RB3LYP) =  -526.595026275     A.U. after   14 cycles
 SCF Done:  E(RB3LYP) =  -526.595292361     A.U. after   12 cycles
 SCF Done:  E(RB3LYP) =  -526.595336293     A.U. after   12 cycles
 SCF Done:  E(RB3LYP) =  -526.595357715     A.U. after   11 cycles
 SCF Done:  E(RB3LYP) =  -526.595364813     A.U. after   10 cycles
 SCF Done:  E(RB3LYP) =  -526.595368694     A.U. after   10 cycles
 SCF Done:  E(RB3LYP) =  -526.595370649     A.U. after    9 cycles
 SCF Done:  E(RB3LYP) =  -526.595371837     A.U. after    9 cycles
 SCF Done:  E(RB3LYP) =  -526.595372003     A.U. after    8 cycles
 Optimization completed.
    -- Stationary point found.
 Normal termination of Gaussian 16 at Tue Dec  8 10:33:04 2020.

 --------------------------------------------------------------------
 #N Geom=AllCheck Guess=TCheck SCRF=Check GenChk RB3LYP/6-31G(d) Freq
 --------------------------------------------------------------------

 Structure from the checkpoint file:  "JID_414.chk"
 ------------------------------
 CID_129778552_JID_414_neutraal
 ------------------------------
 Charge =  0 Multiplicity = 1

 SCF Done:  E(RB3LYP) =  -526.595372003     A.U. after    1 cycles

  Exact polarizability: 105.496  10.221  83.134  -0.091   4.313  47.911
 Approx polarizability: 170.928  29.003 145.213   7.184  16.376  75.185

                      1                      2                      3
                      A                      A                      A
 Frequencies --     91.4515               103.0156               195.2173
 Red. masses --      5.7499                 5.0331                 4.6418
 Frc consts  --      0.0283                 0.0315                 0.1042
 IR Inten    --      1.7024                 1.5319                 1.5965

                      4                      5                      6
                      A                      A                      A
 Frequencies --    247.6202               271.3654               280.8212
 Red. masses --      5.2517                 2.4869                 1.8165
 Frc consts  --      0.1897                 0.1079                 0.0844
 IR Inten    --      7.8570                 2.6136               156.5958

                      7                      8                      9
                      A                      A                      A
 Frequencies --    364.5175               381.9584               404.6644
 Red. masses --      2.0930                 2.0212                 2.3246
 Frc consts  --      0.1639                 0.1737                 0.2243
 IR Inten    --     18.5719                34.4974                10.0167

                     10                     11                     12
                      A                      A                      A
 Frequencies --    428.7877               521.9147               536.4072
 Red. masses --      2.4862                 5.0170                 3.8169
 Frc consts  --      0.2693                 0.8052                 0.6471
 IR Inten    --     10.0766                 9.7330                19.3312

                     13                     14                     15
                      A                      A                      A
 Frequencies --    604.8306               676.5196               713.2761
 Red. masses --      2.8889                 4.6265                 1.9485
 Frc consts  --      0.6227                 1.2476                 0.5841
 IR Inten    --      9.6961                20.3438                65.8783

                     16                     17                     18
                      A                      A                      A
 Frequencies --    760.7183               831.1604               898.2860
 Red. masses --      8.2832                 7.1403                 3.2192
 Frc consts  --      2.8242                 2.9063                 1.5305
 IR Inten    --     28.0692                15.5377                81.4846

                     19                     20                     21
                      A                      A                      A
 Frequencies --    921.8355               966.7595               977.2894
 Red. masses --      2.3673                 1.5027                 1.7462
 Frc consts  --      1.1852                 0.8275                 0.9826
 IR Inten    --     73.8594                70.9213                53.7906

                     22                     23                     24
                      A                      A                      A
 Frequencies --   1029.1885              1112.7658              1132.8597
 Red. masses --      2.1240                 2.1842                 2.1252
 Frc consts  --      1.3255                 1.5935                 1.6070
 IR Inten    --     69.5130                48.4897                17.5519

                     25                     26                     27
                      A                      A                      A
 Frequencies --   1170.2336              1175.7669              1250.5398
 Red. masses --      2.5932                 2.1087                 1.8212
 Frc consts  --      2.0923                 1.7175                 1.6780
 IR Inten    --      6.3474                 9.5323               104.4756

                     28                     29                     30
                      A                      A                      A
 Frequencies --   1256.5404              1300.1929              1307.6062
 Red. masses --      1.4883                 1.3081                 1.2324
 Frc consts  --      1.3845                 1.3029                 1.2416
 IR Inten    --     30.2780                31.0231                 0.8695

                     31                     32                     33
                      A                      A                      A
 Frequencies --   1373.0658              1386.2438              1435.2652
 Red. masses --      1.7011                 3.3645                 1.6956
 Frc consts  --      1.8896                 3.8093                 2.0579
 IR Inten    --      5.4255               458.8205                69.2598

                     34                     35                     36
                      A                      A                      A
 Frequencies --   1442.2083              1485.1886              1542.1535
 Red. masses --      1.5605                 1.4481                 1.1221
 Frc consts  --      1.9124                 1.8820                 1.5724
 IR Inten    --     56.2601                59.7149                 6.6303

                     37                     38                     39
                      A                      A                      A
 Frequencies --   1545.1362              1583.8735              1688.0578
 Red. masses --      2.1502                 6.7031                 1.1247
 Frc consts  --      3.0245                 9.9075                 1.8883
 IR Inten    --     77.3497               181.5807                58.7875

                     40                     41                     42
                      A                      A                      A
 Frequencies --   1694.0582              2913.2284              2969.5333
 Red. masses --      5.2460                 1.0735                 1.0825
 Frc consts  --      8.8702                 5.3680                 5.6239
 IR Inten    --    262.6220               108.0894                65.7287

                     43                     44                     45
                      A                      A                      A
 Frequencies --   3114.4255              3241.7273              3471.9487
 Red. masses --      1.0897                 1.0927                 1.0509
 Frc consts  --      6.2274                 6.7655                 7.4638
 IR Inten    --     32.9766                 0.3456                 2.7714

                     46                     47                     48
                      A                      A                      A
 Frequencies --   3554.6208              3570.1123              3645.0037
 Red. masses --      1.0753                 1.0901                 1.0784
 Frc consts  --      8.0053                 8.1860                 8.4419
 IR Inten    --      6.2970                 7.4460                68.3569

 - Thermochemistry -
 -------------------
 Temperature   298.150 Kelvin.  Pressure   1.00000 Atm.
 Atom     1 has atomic number  6 and mass  12.00000

 Molecular mass:   144.06473 amu.
 Principal axes and moments of inertia in atomic units:
                           1         2         3
     Eigenvalues --   831.098501508.689722207.48598
           X            0.99960   0.02592  -0.01129
           Y           -0.02597   0.99965  -0.00405
           Z            0.01118   0.00434   0.99993
 This molecule is an asymmetric top.
 Rotational symmetry number  1.
 Warning -- assumption of classical behavior for rotation
           may cause significant error
 Rotational temperatures (Kelvin)      0.10422     0.05741     0.03924
 Rotational constants (GHZ):           2.17151     1.19623     0.81756
 Zero-point vibrational energy     380232.8 (Joules/Mol)
                                   90.87782 (Kcal/Mol)
 Warning -- explicit consideration of  13 degrees of freedom as
           vibrations may cause significant error
 Vibrational temperatures:    131.58   148.22   280.87   356.27   390.43
          (Kelvin)            404.04   524.46   549.55   582.22   616.93
                              750.92   771.77   870.22   973.36  1026.25
                             1094.50  1195.85  1292.43  1326.32  1390.95
                             1406.10  1480.77  1601.02  1629.93  1683.71
                             1691.67  1799.25  1807.88  1870.69  1881.35
                             1975.54  1994.50  2065.03  2075.02  2136.86
                             2218.81  2223.11  2278.84  2428.74  2437.37
                             4191.49  4272.50  4480.96  4664.12  4995.36
                             5114.31  5136.60  5244.35

 Zero-point correction=                           0.144823 (Hartree/Particle)
 Thermal correction to Energy=                    0.153711
 Thermal correction to Enthalpy=                  0.154656
 Thermal correction to Gibbs Free Energy=         0.110991
 Sum of electronic and zero-point Energies=           -526.450549
 Sum of electronic and thermal Energies=              -526.441661
 Sum of electronic and thermal Enthalpies=            -526.440716
 Sum of electronic and thermal Free Energies=         -526.484381

                     E (Thermal)             CV                S
                      KCal/Mol        Cal/Mol-Kelvin    Cal/Mol-Kelvin
 Total                   96.455             33.718             91.899
 Electronic               0.000              0.000              0.000
 Translational            0.889              2.981             40.806
 Rotational               0.889              2.981             29.405
 Vibrational             94.678             27.757             21.688
 Vibration     1          0.602              1.955              3.629
 Vibration     2          0.605              1.947              3.396
 Vibration     3          0.636              1.847              2.178
 Vibration     4          0.661              1.767              1.747
 Vibration     5          0.675              1.726              1.587
 Vibration     6          0.680              1.709              1.529
 Vibration     7          0.738              1.545              1.103
 Vibration     8          0.751              1.509              1.031
 Vibration     9          0.770              1.460              0.946
 Vibration    10          0.790              1.408              0.863
 Vibration    11          0.877              1.201              0.606
 Vibration    12          0.891              1.170              0.573
 Vibration    13          0.963              1.022              0.441

 Optimization completed.
    -- Stationary point found.
 Normal termination of Gaussian 16 at Tue Dec  8 10:36:53 2020.

 ----------------------------------------------------------------------
 # B3LYP/6-311++G(d,p) empiricaldispersion=gd3bj scf=xqc pop=npa geom=c
 heck
 ----------------------------------------------------------------------

 --------------------------------------
 CID_129778552_JID_414_Energie_neutraal
 --------------------------------------
 Structure from the checkpoint file:  "JID_414.chk"
 Charge =  0 Multiplicity = 1

 SCF Done:  E(RB3LYP) =  -526.765190551     A.U. after   15 cycles
 Normal termination of Gaussian 16 at Tue Dec  8 10:38:37 2020.

 ----------------------------------------------------------------------
 # B3LYP/6-311++G(d,p) empiricaldispersion=gd3bj scf=xqc pop=npa geom=c
 heck
 ----------------------------------------------------------------------

 ------------------------------------
 CID_129778552_JID_414_Energie_kation
 ------------------------------------
 Structure from the checkpoint file:  "JID_414.chk"
 Charge =  1 Multiplicity = 2

 SCF Done:  E(UB3LYP) =  -526.449280668     A.U. after   27 cycles
 Normal termination of Gaussian 16 at Tue Dec  8 10:43:59 2020.
 Gaussian 16:  ES64L-G16RevA.03 25-Dec-2016

 ----------------------------------------------------------------------
 # B3LYP/6-311++G(d,p) empiricaldispersion=gd3bj scf=xqc pop=npa geom=c
 heck
 ----------------------------------------------------------------------

 -----------------------------------
 CID_129778552_JID_414_Energie_anion
 -----------------------------------
 Structure from the checkpoint file:  "JID_414.chk"
 Charge = -1 Multiplicity = 2

                         Standard orientation:
 ---------------------------------------------------------------------
 Center     Atomic      Atomic             Coordinates (Angstroms)
 Number     Number       Type             X           Y           Z
 ---------------------------------------------------------------------
      1          6           0       -2.406974   -0.277488    0.375402
      2          7           0       -1.724536   -1.442005   -0.187592
      3          6           0       -0.374475   -1.411881   -0.225518
      4          6           0        0.321983   -0.267552    0.017531
      5          6           0       -0.356483    1.073255    0.259966
      6          7           0       -1.755977    0.901927   -0.144807
      7          7           0        0.136718    2.206517   -0.508734
      8          7           0        1.741315   -0.351499    0.090084
      9          8           0        2.309641   -1.411374   -0.211410
     10          8           0        2.350968    0.661808    0.479488
     11          1           0       -2.383194   -0.355478    1.481302
     12          1           0       -3.450587   -0.285069    0.050391
     13          1           0       -2.191160   -2.336423   -0.170793
     14          1           0        0.150485   -2.334754   -0.444503
     15          1           0       -0.242565    1.346167    1.323351
     16          1           0       -2.269473    1.750157    0.073283
     17          1           0        1.115213    2.349267   -0.266785
     18          1           0        0.099460    1.960074   -1.497816
 ---------------------------------------------------------------------

 SCF Done:  E(UB3LYP) =  -526.780065243     A.U. after   30 cycles

 The electronic state is 2-A.
 Alpha  occ. eigenvalues --  -18.94183 -18.93998 -14.31947 -14.20474 -14.18688
 Alpha  occ. eigenvalues --  -14.16339 -10.11766 -10.10532 -10.06221 -10.04395
 Alpha  occ. eigenvalues --   -1.01645  -0.84834  -0.84347  -0.78735  -0.73022
 Alpha  occ. eigenvalues --   -0.65817  -0.57252  -0.51953  -0.50571  -0.42354
 Alpha  occ. eigenvalues --   -0.39395  -0.38089  -0.35715  -0.35321  -0.34224
 Alpha  occ. eigenvalues --   -0.33675  -0.33408  -0.30428  -0.27985  -0.26462
 Alpha  occ. eigenvalues --   -0.25103  -0.20951  -0.13821  -0.12761  -0.12355
 Alpha  occ. eigenvalues --   -0.11237  -0.09838  -0.07819   0.04246
 Alpha virt. eigenvalues --    0.06733   0.08771   0.09864   0.10601   0.12559
 Alpha virt. eigenvalues --    0.13108   0.13775   0.15025   0.16905   0.17404
 Alpha virt. eigenvalues --    0.17733   0.18606   0.19183   0.19696   0.20572

  Beta  occ. eigenvalues --  -18.93783 -18.93702 -14.31300 -14.20348 -14.18685
  Beta  occ. eigenvalues --  -14.16346 -10.11738 -10.10520 -10.05849 -10.04533
  Beta  occ. eigenvalues --   -1.00721  -0.84657  -0.83672  -0.78580  -0.72967
  Beta  occ. eigenvalues --   -0.65502  -0.56881  -0.51640  -0.50119  -0.42066
  Beta  occ. eigenvalues --   -0.39130  -0.37850  -0.35538  -0.34999  -0.33667
  Beta  occ. eigenvalues --   -0.33267  -0.31670  -0.29887  -0.27786  -0.26377
  Beta  occ. eigenvalues --   -0.24931  -0.19788  -0.13560  -0.12427  -0.11157
  Beta  occ. eigenvalues --   -0.10254  -0.09500  -0.07070
  Beta virt. eigenvalues --    0.07162   0.09061   0.10078   0.10690   0.11527
  Beta virt. eigenvalues --    0.12624   0.13161   0.13823   0.15035   0.17191
  Beta virt. eigenvalues --    0.17725   0.18360   0.18772   0.19221   0.19806

 Mulliken charges and spin densities:
               1          2
     1  C    0.698107  -0.988040
     2  N   -0.287491   0.121603
     3  C   -0.519118   0.620715
     4  C    0.138091  -0.475104
     5  C   -0.101433  -0.131970
     6  N   -0.288127   0.071527
     7  N   -0.326412  -0.000510
     8  N   -0.201592   0.218826
     9  O   -0.193554   0.124050
    10  O   -0.257243   0.156646
    11  H   -0.237507   0.379471
    12  H   -0.338391   0.485849
    13  H    0.041097   0.223130
    14  H    0.137300   0.026398
    15  H    0.029842   0.154735
    16  H    0.223522   0.020302
    17  H    0.255855  -0.005030
    18  H    0.227053  -0.002597
 Sum of Mulliken charges =  -1.00000   1.00000

 Dipole moment (field-independent basis, Debye):
    X=             -4.5290    Y=              0.7199    Z=             -0.8358  Tot=              4.6614
 Quadrupole moment (field-independent basis, Debye-Ang):
   XX=            -99.8104   YY=            -77.3260   ZZ=            -71.4433
   XY=              3.9510   XZ=             -2.1403   YZ=             -0.3181

 Summary of Natural Population Analysis:

                                       Natural Population
                Natural  -----------------------------------------------
    Atom  No    Charge         Core      Valence    Rydberg      Total
 -----------------------------------------------------------------------
      C    1    0.01088      0.99964     1.97479    0.01469     2.98912
      N    2   -0.29116      0.99969     2.78002    0.01145     3.79116
      C    3    0.10538      0.99952     1.88102    0.01408     2.89462
      C    4   -0.05911      0.99943     2.04489    0.01479     3.05911
      C    5    0.07234      0.99960     1.90871    0.01935     2.92766
      N    6   -0.34583      0.99972     2.83388    0.01224     3.84583
      N    7   -0.43008      0.99976     2.92122    0.00910     3.93008
      N    8    0.30730      0.99968     2.16798    0.02504     3.19270
      O    9   -0.22944      0.99990     3.22198    0.00756     4.22944
      O   10   -0.22213      0.99990     3.21500    0.00722     4.22213
      H   11    0.07323      0.00000     0.42372    0.00305     0.42677
      H   12    0.09089      0.00000     0.40775    0.00136     0.40911
      H   13    0.18725      0.00000     0.31072    0.00202     0.31275
      H   14    0.10769      0.00000     0.39106    0.00124     0.39231
      H   15    0.08004      0.00000     0.41812    0.00184     0.41996
      H   16    0.17927      0.00000     0.31779    0.00294     0.32073
      H   17    0.19143      0.00000     0.30672    0.00186     0.30857
      H   18    0.17205      0.00000     0.32609    0.00186     0.32795
 =======================================================================
   * Total *    0.00000      9.99685    27.85146    0.15169    38.00000

 Normal termination of Gaussian 16 at Tue Dec  8 10:51:13 2020.
