 Gaussian 16, Revision A.03,

 -----------------------------------------------------------
 # opt freq B3LYP/6-31G(d) empiricaldispersion=gd3bj scf=xqc
 -----------------------------------------------------------

 ------------------------------
 CID_87828808_JID_1086_neutraal
 ------------------------------
 Symbolic Z-matrix:
 Charge =  0 Multiplicity = 1

 SCF Done:  E(RB3LYP) =  -538.896258082     A.U. after   15 cycles
 SCF Done:  E(RB3LYP) =  -538.899728607     A.U. after   15 cycles
 SCF Done:  E(RB3LYP) =  -538.898400392     A.U. after   14 cycles
 SCF Done:  E(RB3LYP) =  -538.902714081     A.U. after   13 cycles
 SCF Done:  E(RB3LYP) =  -538.903764372     A.U. after   13 cycles
 SCF Done:  E(RB3LYP) =  -538.903640381     A.U. after   14 cycles
 SCF Done:  E(RB3LYP) =  -538.904310499     A.U. after   13 cycles
 SCF Done:  E(RB3LYP) =  -538.904437797     A.U. after   11 cycles
 SCF Done:  E(RB3LYP) =  -538.904471007     A.U. after   10 cycles
 SCF Done:  E(RB3LYP) =  -538.904512504     A.U. after   11 cycles
 SCF Done:  E(RB3LYP) =  -538.905193500     A.U. after   12 cycles
 SCF Done:  E(RB3LYP) =  -538.905221012     A.U. after   11 cycles
 SCF Done:  E(RB3LYP) =  -538.905247696     A.U. after   10 cycles
 SCF Done:  E(RB3LYP) =  -538.905251264     A.U. after   10 cycles
 SCF Done:  E(RB3LYP) =  -538.905252306     A.U. after    8 cycles
 SCF Done:  E(RB3LYP) =  -538.905252377     A.U. after    7 cycles
 Optimization completed.
    -- Stationary point found.

 1\1\GINC-NODE124\FOpt\RB3LYP\6-31G(d)\C8H14O3\VSC10255\08-Dec-2020\0\\
 # opt freq B3LYP/6-31G(d) empiricaldispersion=gd3bj scf=xqc\\CID_87828
 808_JID_1086_neutraal\\0,1\C,0.9446368058,-0.0694160828,-0.0511978323\
 C,0.9366352836,0.7333950492,-1.3645997187\C,1.2976522306,-0.134077208,
 -2.5492359969\C,0.40727857,-0.8067349404,-3.3222841221\C,0.7815023034,
 -1.6217974384,-4.5426853697\C,-1.0353906142,-0.7585330777,-3.010689098
 1\O,-1.6018234031,-0.3384961669,-2.0090150329\O,-1.7714115931,-1.29287
 3517,-4.0302904248\O,-3.175434329,-1.2743706032,-3.7158438673\C,2.7849

 Normal termination of Gaussian 16 at Tue Dec  8 19:17:12 2020.

 --------------------------------------------------------------------
 #N Geom=AllCheck Guess=TCheck SCRF=Check GenChk RB3LYP/6-31G(d) Freq
 --------------------------------------------------------------------

 Structure from the checkpoint file:  "JID_1086.chk"
 ------------------------------
 CID_87828808_JID_1086_neutraal
 ------------------------------
 Charge =  0 Multiplicity = 1

 SCF Done:  E(RB3LYP) =  -538.905252377     A.U. after    1 cycles

  Exact polarizability: 131.361  -4.601  99.446  -0.021   4.458  66.502
 Approx polarizability: 183.967 -11.587 144.055   1.144  10.192  97.320

                      1                      2                      3
                      A                      A                      A
 Frequencies --     40.6957                75.2031                85.5593
 Red. masses --      5.7831                 3.4245                 2.8618
 Frc consts  --      0.0056                 0.0114                 0.0123
 IR Inten    --      0.1126                 0.0956                 0.1182

                      4                      5                      6
                      A                      A                      A
 Frequencies --    109.2845               133.0152               161.8282
 Red. masses --      3.0748                 1.1424                 2.8558
 Frc consts  --      0.0216                 0.0119                 0.0441
 IR Inten    --      0.4271                 0.2262                 0.1666

                      7                      8                      9
                      A                      A                      A
 Frequencies --    185.1936               202.3522               227.0234
 Red. masses --      3.9115                 2.7012                 1.0355
 Frc consts  --      0.0790                 0.0652                 0.0314
 IR Inten    --      0.1496                 0.8257                 0.0122

                     10                     11                     12
                      A                      A                      A
 Frequencies --    242.3153               299.6820               338.6688
 Red. masses --      1.3464                 3.4793                 3.1203
 Frc consts  --      0.0466                 0.1841                 0.2109
 IR Inten    --      0.7641                 0.4857                 2.9498

                     13                     14                     15
                      A                      A                      A
 Frequencies --    357.3733               409.8466               420.6170
 Red. masses --      3.6343                 2.7585                 5.2323
 Frc consts  --      0.2735                 0.2730                 0.5454
 IR Inten    --      4.9435                 1.6603                30.0267

                     16                     17                     18
                      A                      A                      A
 Frequencies --    433.2345               489.2350               518.0249
 Red. masses --      2.8448                 1.2081                 2.9597
 Frc consts  --      0.3146                 0.1704                 0.4680
 IR Inten    --      7.7698                71.1713                 5.5045

                     19                     20                     21
                      A                      A                      A
 Frequencies --    614.3795               695.7365               761.9831
 Red. masses --      3.9831                 3.9421                 5.7704
 Frc consts  --      0.8858                 1.1243                 1.9740
 IR Inten    --      1.8312                12.2616                24.4577

                     22                     23                     24
                      A                      A                      A
 Frequencies --    775.0932               809.4829               827.2235
 Red. masses --      2.2514                 1.1422                 1.3622
 Frc consts  --      0.7969                 0.4410                 0.5492
 IR Inten    --      0.3784                 1.7742                 4.7584

                     25                     26                     27
                      A                      A                      A
 Frequencies --    912.9144               947.2992               963.3354
 Red. masses --      5.8666                 2.1291                 5.0488
 Frc consts  --      2.8807                 1.1257                 2.7605
 IR Inten    --     51.0329                 7.6334                17.0788

                     28                     29                     30
                      A                      A                      A
 Frequencies --    999.3383              1048.6888              1065.5851
 Red. masses --      2.3156                 1.7894                 2.0029
 Frc consts  --      1.3625                 1.1595                 1.3399
 IR Inten    --      1.4052                32.9074                 3.4090

                     31                     32                     33
                      A                      A                      A
 Frequencies --   1067.9179              1085.8681              1108.3291
 Red. masses --      1.5281                 1.5220                 1.6857
 Frc consts  --      1.0268                 1.0573                 1.2200
 IR Inten    --      3.0396                 6.0638                18.3093

                     34                     35                     36
                      A                      A                      A
 Frequencies --   1128.9566              1181.9256              1236.3894
 Red. masses --      2.9289                 2.2576                 3.0777
 Frc consts  --      2.1994                 1.8582                 2.7720
 IR Inten    --     87.0963                14.3123               101.8646

                     37                     38                     39
                      A                      A                      A
 Frequencies --   1285.7208              1315.1834              1323.7401
 Red. masses --      1.9890                 1.6668                 1.2434
 Frc consts  --      1.9372                 1.6987                 1.2837
 IR Inten    --     56.6642                54.0041                 1.3715

                     40                     41                     42
                      A                      A                      A
 Frequencies --   1365.5858              1371.4721              1429.9841
 Red. masses --      1.4196                 1.5612                 1.2104
 Frc consts  --      1.5597                 1.7301                 1.4582
 IR Inten    --      2.0595                 1.9297                 2.6234

                     43                     44                     45
                      A                      A                      A
 Frequencies --   1437.7782              1449.7619              1512.0234
 Red. masses --      1.2147                 1.2319                 1.0714
 Frc consts  --      1.4795                 1.5255                 1.4431
 IR Inten    --      4.6606                 2.5645                 2.0149

                     46                     47                     48
                      A                      A                      A
 Frequencies --   1515.3406              1519.3708              1527.0762
 Red. masses --      1.0483                 1.0609                 1.0507
 Frc consts  --      1.4182                 1.4429                 1.4436
 IR Inten    --      4.3749                 4.0857                 7.9825

                     49                     50                     51
                      A                      A                      A
 Frequencies --   1528.3072              1529.7509              1533.5468
 Red. masses --      1.1647                 1.0531                 1.0602
 Frc consts  --      1.6029                 1.4520                 1.4691
 IR Inten    --    164.9240                23.9178                28.6799

                     52                     53                     54
                      A                      A                      A
 Frequencies --   1539.5819              1556.0428              1685.4219
 Red. masses --      1.0777                 1.0964                 6.3988
 Frc consts  --      1.5051                 1.5641                10.7094
 IR Inten    --      4.1264                17.1416                78.0444

                     55                     56                     57
                      A                      A                      A
 Frequencies --   1766.9676              3044.4634              3053.9766
 Red. masses --      7.7314                 1.0710                 1.0385
 Frc consts  --     14.2221                 5.8487                 5.7065
 IR Inten    --    118.7910                26.4116                23.0045

                     58                     59                     60
                      A                      A                      A
 Frequencies --   3054.8112              3059.7907              3065.3159
 Red. masses --      1.0351                 1.0619                 1.0430
 Frc consts  --      5.6909                 5.8577                 5.7744
 IR Inten    --     31.7660                36.5995                10.0633

                     61                     62                     63
                      A                      A                      A
 Frequencies --   3103.4324              3112.7216              3115.2877
 Red. masses --      1.0978                 1.1007                 1.1010
 Frc consts  --      6.2297                 6.2835                 6.2953
 IR Inten    --      6.2282                10.2225                26.4878

                     64                     65                     66
                      A                      A                      A
 Frequencies --   3126.0533              3130.6162              3147.9032
 Red. masses --      1.1021                 1.1037                 1.0984
 Frc consts  --      6.3454                 6.3732                 6.4128
 IR Inten    --     37.3849                36.5271                17.3789

                     67                     68                     69
                      A                      A                      A
 Frequencies --   3158.2772              3175.4149              3396.8303
 Red. masses --      1.0948                 1.0963                 1.0651
 Frc consts  --      6.4339                 6.5128                 7.2410
 IR Inten    --     13.1016                19.0668                70.6810

 - Thermochemistry -
 -------------------
 Temperature   298.150 Kelvin.  Pressure   1.00000 Atm.
 Atom     1 has atomic number  6 and mass  12.00000

 Molecular mass:   158.09429 amu.
 Principal axes and moments of inertia in atomic units:
                           1         2         3
     Eigenvalues --  1140.221872529.368233356.35950
           X            0.99995   0.00790  -0.00616
           Y           -0.00792   0.99996  -0.00338
           Z            0.00614   0.00343   0.99998
 This molecule is an asymmetric top.
 Rotational symmetry number  1.
 Warning -- assumption of classical behavior for rotation
           may cause significant error
 Rotational temperatures (Kelvin)      0.07596     0.03424     0.02581
 Rotational constants (GHZ):           1.58280     0.71351     0.53771
 Zero-point vibrational energy     561629.7 (Joules/Mol)
                                  134.23272 (Kcal/Mol)
 Warning -- explicit consideration of  19 degrees of freedom as
           vibrations may cause significant error
 Vibrational temperatures:     58.55   108.20   123.10   157.24   191.38
          (Kelvin)            232.83   266.45   291.14   326.64   348.64
                              431.18   487.27   514.18   589.68   605.17
                              623.33   703.90   745.32   883.96  1001.01
                             1096.32  1115.19  1164.67  1190.19  1313.48
                             1362.95  1386.02  1437.82  1508.83  1533.14
                             1536.50  1562.32  1594.64  1624.32  1700.53
                             1778.89  1849.87  1892.26  1904.57  1964.77
                             1973.24  2057.43  2068.64  2085.88  2175.46
                             2180.24  2186.04  2197.12  2198.89  2200.97
                             2206.43  2215.11  2238.80  2424.95  2542.27
                             4380.30  4393.99  4395.19  4402.36  4410.31
                             4465.15  4478.51  4482.20  4497.69  4504.26
                             4529.13  4544.06  4568.71  4887.28

 Zero-point correction=                           0.213913 (Hartree/Particle)
 Thermal correction to Energy=                    0.226846
 Thermal correction to Enthalpy=                  0.227791
 Thermal correction to Gibbs Free Energy=         0.174555
 Sum of electronic and zero-point Energies=           -538.691339
 Sum of electronic and thermal Energies=              -538.678406
 Sum of electronic and thermal Enthalpies=            -538.677462
 Sum of electronic and thermal Free Energies=         -538.730698

                     E (Thermal)             CV                S
                      KCal/Mol        Cal/Mol-Kelvin    Cal/Mol-Kelvin
 Total                  142.348             46.478            112.044
 Electronic               0.000              0.000              0.000
 Translational            0.889              2.981             41.083
 Rotational               0.889              2.981             30.649
 Vibrational            140.571             40.516             40.312
 Vibration     1          0.594              1.981              5.225
 Vibration     2          0.599              1.966              4.012
 Vibration     3          0.601              1.959              3.759
 Vibration     4          0.606              1.942              3.282
 Vibration     5          0.613              1.920              2.902
 Vibration     6          0.622              1.889              2.528
 Vibration     7          0.631              1.860              2.275
 Vibration     8          0.639              1.837              2.112
 Vibration     9          0.651              1.800              1.902
 Vibration    10          0.659              1.775              1.786
 Vibration    11          0.692              1.674              1.419
 Vibration    12          0.719              1.598              1.218
 Vibration    13          0.733              1.560              1.134
 Vibration    14          0.774              1.449              0.927
 Vibration    15          0.783              1.425              0.890
 Vibration    16          0.794              1.398              0.848
 Vibration    17          0.845              1.274              0.686
 Vibration    18          0.873              1.210              0.615
 Vibration    19          0.974              1.001              0.426

 Optimization completed.
    -- Stationary point found.

 1\1\GINC-NODE124\Freq\RB3LYP\6-31G(d)\C8H14O3\VSC10255\08-Dec-2020\0\\
 #N Geom=AllCheck Guess=TCheck SCRF=Check GenChk RB3LYP/6-31G(d) Freq\\
 CID_87828808_JID_1086_neutraal\\0,1\C,0.9446368058,-0.0694160828,-0.05
 11978323\C,0.9366352836,0.7333950492,-1.3645997187\C,1.2976522306,-0.1
 34077208,-2.5492359969\C,0.40727857,-0.8067349404,-3.3222841221\C,0.78
 15023034,-1.6217974384,-4.5426853697\C,-1.0353906142,-0.7585330777,-3.
 0106890981\O,-1.6018234031,-0.3384961669,-2.0090150329\O,-1.7714115931
 ,-1.292873517,-4.0302904248\O,-3.175434329,-1.2743706032,-3.7158438673

 Normal termination of Gaussian 16 at Tue Dec  8 19:22:25 2020.

 ----------------------------------------------------------------------
 # B3LYP/6-311++G(d,p) empiricaldispersion=gd3bj scf=xqc pop=npa geom=c
 heck
 ----------------------------------------------------------------------

 --------------------------------------
 CID_87828808_JID_1086_Energie_neutraal
 --------------------------------------
 Structure from the checkpoint file:  "JID_1086.chk"
 Charge =  0 Multiplicity = 1

 SCF Done:  E(RB3LYP) =  -539.068575250     A.U. after   15 cycles
 Normal termination of Gaussian 16 at Tue Dec  8 19:24:49 2020.

 ----------------------------------------------------------------------
 # B3LYP/6-311++G(d,p) empiricaldispersion=gd3bj scf=xqc pop=npa geom=c
 heck
 ----------------------------------------------------------------------

 ------------------------------------
 CID_87828808_JID_1086_Energie_kation
 ------------------------------------
 Structure from the checkpoint file:  "JID_1086.chk"
 Charge =  1 Multiplicity = 2

 SCF Done:  E(UB3LYP) =  -538.734768736     A.U. after   23 cycles
 Normal termination of Gaussian 16 at Tue Dec  8 19:30:02 2020.
 Gaussian 16:  ES64L-G16RevA.03 25-Dec-2016

 -----------------------------------
 CID_87828808_JID_1086_Energie_anion
 -----------------------------------
 Structure from the checkpoint file:  "JID_1086.chk"
 Charge = -1 Multiplicity = 2

                         Standard orientation:
 ---------------------------------------------------------------------
 Center     Atomic      Atomic             Coordinates (Angstroms)
 Number     Number       Type             X           Y           Z
 ---------------------------------------------------------------------
      1          6           0       -1.233169    2.522334   -0.647332
      2          6           0       -1.226719    1.479890    0.485303
      3          6           0       -1.093750    0.073445   -0.053617
      4          6           0        0.080455   -0.582373   -0.237963
      5          6           0        0.191943   -2.013479   -0.720929
      6          6           0        1.362632    0.088873    0.055563
      7          8           0        1.588145    1.271311    0.282744
      8          8           0        2.395582   -0.805246    0.035548
      9          8           0        3.649822   -0.148121    0.291606
     10          6           0       -2.424545   -0.578284   -0.364265
     11          6           0       -2.981292   -1.343714    0.849595
     12          1           0       -0.266546    2.527370   -1.157097
     13          1           0       -1.413895    3.523707   -0.242484
     14          1           0       -2.015698    2.309973   -1.385115
     15          1           0       -0.421685    1.718479    1.179827
     16          1           0       -2.175356    1.541395    1.034493
     17          1           0        0.803019   -2.080472   -1.627718
     18          1           0        0.681630   -2.639550    0.032670
     19          1           0       -0.783306   -2.450362   -0.933396
     20          1           0        3.324491    0.781618    0.415875
     21          1           0       -3.134976    0.207935   -0.646953
     22          1           0       -2.353215   -1.252446   -1.222332
     23          1           0       -3.069603   -0.687165    1.722094
     24          1           0       -3.974268   -1.749977    0.629855
     25          1           0       -2.322319   -2.174207    1.122963
 ---------------------------------------------------------------------

 SCF Done:  E(UB3LYP) =  -539.070113427     A.U. after   29 cycles

 The electronic state is 2-A.
 Alpha  occ. eigenvalues --  -19.06487 -19.04966 -18.95782 -10.13151 -10.03998
 Alpha  occ. eigenvalues --  -10.03608 -10.03408 -10.03391 -10.03257 -10.02716
 Alpha  occ. eigenvalues --  -10.02365  -1.02392  -0.89141  -0.79195  -0.69265
 Alpha  occ. eigenvalues --   -0.62693  -0.62323  -0.55152  -0.51395  -0.48788
 Alpha  occ. eigenvalues --   -0.47273  -0.40957  -0.35628  -0.34966  -0.33571
 Alpha  occ. eigenvalues --   -0.32838  -0.31610  -0.30095  -0.28360  -0.28006
 Alpha  occ. eigenvalues --   -0.27412  -0.26211  -0.25523  -0.24910  -0.23864
 Alpha  occ. eigenvalues --   -0.23734  -0.22705  -0.21761  -0.20603  -0.19301
 Alpha  occ. eigenvalues --   -0.14506  -0.14255  -0.10891   0.04988
 Alpha virt. eigenvalues --    0.07914   0.09308   0.09867   0.10137   0.10647
 Alpha virt. eigenvalues --    0.11768   0.12314   0.12879   0.13054   0.13869
 Alpha virt. eigenvalues --    0.15031   0.15656   0.15786   0.16059   0.16280

  Beta  occ. eigenvalues --  -19.06356 -19.04958 -18.95517 -10.12829 -10.04034
  Beta  occ. eigenvalues --  -10.03513 -10.03386 -10.03350 -10.03289 -10.02684
  Beta  occ. eigenvalues --  -10.01871  -1.02189  -0.88675  -0.78998  -0.68764
  Beta  occ. eigenvalues --   -0.62545  -0.62158  -0.54831  -0.50986  -0.48688
  Beta  occ. eigenvalues --   -0.47147  -0.40528  -0.35418  -0.34622  -0.32677
  Beta  occ. eigenvalues --   -0.32675  -0.31442  -0.29920  -0.28248  -0.27836
  Beta  occ. eigenvalues --   -0.27334  -0.26061  -0.25246  -0.24681  -0.23615
  Beta  occ. eigenvalues --   -0.23579  -0.22108  -0.21378  -0.20398  -0.19084
  Beta  occ. eigenvalues --   -0.14017  -0.13793  -0.09278
  Beta virt. eigenvalues --    0.08249   0.08909   0.09902   0.10169   0.10689
  Beta virt. eigenvalues --    0.11847   0.12224   0.12382   0.12960   0.13212
  Beta virt. eigenvalues --    0.13892   0.15000   0.15648   0.15822   0.16047

 Mulliken charges and spin densities:
               1          2
     1  C   -0.542188  -0.076449
     2  C   -0.234126  -0.007858
     3  C    1.221694   0.085129
     4  C   -0.102653   0.035428
     5  C   -0.558063  -0.204790
     6  C   -0.200867   0.052975
     7  O   -0.392666   0.086161
     8  O   -0.024224   0.025323
     9  O   -0.160945  -0.000097
    10  C   -1.348704   0.940411
    11  C    0.826422  -1.473898
    12  H    0.156390   0.007879
    13  H    0.036228   0.068247
    14  H    0.115357  -0.000531
    15  H    0.187718   0.006087
    16  H    0.114383  -0.001280
    17  H    0.144927   0.012458
    18  H    0.098274   0.064658
    19  H    0.088396   0.020708
    20  H    0.258508  -0.002589
    21  H    0.033985   0.099969
    22  H   -0.038632   0.186916
    23  H    0.023872   0.104272
    24  H   -0.684513   0.816730
    25  H   -0.018573   0.154143
 Sum of Mulliken charges =  -1.00000   1.00000

 Dipole moment (field-independent basis, Debye):
    X=              1.6257    Y=              2.1844    Z=             -0.6843  Tot=              2.8076
 Quadrupole moment (field-independent basis, Debye-Ang):
   XX=           -123.4934   YY=            -94.6504   ZZ=            -79.6534
   XY=             -9.6362   XZ=              1.4935   YZ=              2.5138

 Summary of Natural Population Analysis:

                                       Natural Population
                Natural  -----------------------------------------------
    Atom  No    Charge         Core      Valence    Rydberg      Total
 -----------------------------------------------------------------------
      C    1   -0.27259      0.99966     2.26901    0.00392     3.27259
      C    2   -0.20942      0.99960     2.20167    0.00815     3.20942
      C    3    0.12981      0.99946     1.85835    0.01238     2.87019
      C    4   -0.09473      0.99937     2.08423    0.01114     3.09473
      C    5   -0.29338      0.99965     2.28646    0.00728     3.29338
      C    6    0.42757      0.99964     1.55070    0.02210     2.57243
      O    7   -0.32425      0.99987     3.31766    0.00672     4.32425
      O    8   -0.13638      0.99986     3.12751    0.00902     4.13638
      O    9   -0.23389      0.99991     3.22718    0.00680     4.23389
      C   10   -0.21088      0.99960     2.20056    0.01072     3.21088
      C   11   -0.27464      0.99965     2.26983    0.00515     3.27464
      H   12    0.10442      0.00000     0.39459    0.00099     0.39558
      H   13    0.08814      0.00000     0.41050    0.00136     0.41186
      H   14    0.08827      0.00000     0.41083    0.00090     0.41173
      H   15    0.11357      0.00000     0.38539    0.00105     0.38643
      H   16    0.08822      0.00000     0.41058    0.00120     0.41178
      H   17    0.09758      0.00000     0.40113    0.00129     0.40242
      H   18    0.10225      0.00000     0.39609    0.00166     0.39775
      H   19    0.09727      0.00000     0.40191    0.00082     0.40273
      H   20    0.23354      0.00000     0.26276    0.00370     0.26646
      H   21    0.09560      0.00000     0.40336    0.00105     0.40440
      H   22    0.09861      0.00000     0.40031    0.00107     0.40139
      H   23    0.09274      0.00000     0.40628    0.00098     0.40726
      H   24    0.09650      0.00000     0.39998    0.00352     0.40350
      H   25    0.09609      0.00000     0.40300    0.00091     0.40391
 =======================================================================
   * Total *   -0.00000     10.99626    31.87986    0.12388    43.00000

 Normal termination of Gaussian 16 at Tue Dec  8 19:36:36 2020.
