 Gaussian 16, Revision A.03,

 -----------------------------------------------------------
 # opt freq B3LYP/6-31G(d) empiricaldispersion=gd3bj scf=xqc
 -----------------------------------------------------------

 ------------------------------
 CID_64990441_JID_1287_neutraal
 ------------------------------
 Symbolic Z-matrix:
 Charge =  0 Multiplicity = 1

 SCF Done:  E(RB3LYP) =  -535.178019409     A.U. after   15 cycles
 SCF Done:  E(RB3LYP) =  -535.180319145     A.U. after   12 cycles
 SCF Done:  E(RB3LYP) =  -535.179750276     A.U. after   12 cycles
 SCF Done:  E(RB3LYP) =  -535.180945100     A.U. after   12 cycles
 SCF Done:  E(RB3LYP) =  -535.181311412     A.U. after   11 cycles
 SCF Done:  E(RB3LYP) =  -535.181471193     A.U. after   12 cycles
 SCF Done:  E(RB3LYP) =  -535.181786091     A.U. after   13 cycles
 SCF Done:  E(RB3LYP) =  -535.182151832     A.U. after   13 cycles
 SCF Done:  E(RB3LYP) =  -535.182388477     A.U. after   13 cycles
 SCF Done:  E(RB3LYP) =  -535.182521806     A.U. after   12 cycles
 SCF Done:  E(RB3LYP) =  -535.182679553     A.U. after   10 cycles
 SCF Done:  E(RB3LYP) =  -535.182680601     A.U. after    9 cycles
 SCF Done:  E(RB3LYP) =  -535.182680935     A.U. after    9 cycles
 SCF Done:  E(RB3LYP) =  -535.182681408     A.U. after    8 cycles
 SCF Done:  E(RB3LYP) =  -535.182681819     A.U. after    9 cycles
 SCF Done:  E(RB3LYP) =  -535.182681843     A.U. after    7 cycles
 Optimization completed.
    -- Stationary point found.
 Normal termination of Gaussian 16 at Tue Dec  8 19:43:41 2020.

 --------------------------------------------------------------------
 #N Geom=AllCheck Guess=TCheck SCRF=Check GenChk RB3LYP/6-31G(d) Freq
 --------------------------------------------------------------------

 Structure from the checkpoint file:  "JID_1287.chk"
 ------------------------------
 CID_64990441_JID_1287_neutraal
 ------------------------------
 Charge =  0 Multiplicity = 1

 SCF Done:  E(RB3LYP) =  -535.182681843     A.U. after    1 cycles

  Exact polarizability:  97.678  -1.195  95.175   0.169  -1.708  83.398
 Approx polarizability: 120.817  -6.483 149.003  -0.375  -8.948 121.283

                      1                      2                      3
                      A                      A                      A
 Frequencies --     43.6757                53.3960                71.1331
 Red. masses --      5.3415                 4.2003                 3.5064
 Frc consts  --      0.0060                 0.0071                 0.0105
 IR Inten    --      1.7420                 2.2427                 0.7177

                      4                      5                      6
                      A                      A                      A
 Frequencies --     79.1179               102.1857               110.7229
 Red. masses --      4.2818                 1.8845                 2.0604
 Frc consts  --      0.0158                 0.0116                 0.0149
 IR Inten    --      0.9822                 0.6099                 1.4819

                      7                      8                      9
                      A                      A                      A
 Frequencies --    172.5279               209.1911               239.8927
 Red. masses --      3.6299                 2.7509                 2.7956
 Frc consts  --      0.0637                 0.0709                 0.0948
 IR Inten    --      2.1603                 0.5717                 0.9454

                     10                     11                     12
                      A                      A                      A
 Frequencies --    249.1100               258.1719               329.4798
 Red. masses --      1.2638                 1.2278                 2.8658
 Frc consts  --      0.0462                 0.0482                 0.1833
 IR Inten    --      0.4428                 0.5472                 1.4284

                     13                     14                     15
                      A                      A                      A
 Frequencies --    374.8787               420.9384               445.1680
 Red. masses --      2.4244                 4.0653                 4.6490
 Frc consts  --      0.2007                 0.4244                 0.5428
 IR Inten    --      4.3418                16.8310                 3.5045

                     16                     17                     18
                      A                      A                      A
 Frequencies --    473.8978               575.6974               588.8510
 Red. masses --      2.5925                 1.9465                 1.7871
 Frc consts  --      0.3430                 0.3801                 0.3651
 IR Inten    --      1.2538               110.0574                31.8121

                     19                     20                     21
                      A                      A                      A
 Frequencies --    646.3398               683.8485               729.5862
 Red. masses --      1.5089                 3.7526                 1.8887
 Frc consts  --      0.3714                 1.0340                 0.5923
 IR Inten    --     76.7791                19.0686                14.9722

                     22                     23                     24
                      A                      A                      A
 Frequencies --    758.8038               807.2347               881.9924
 Red. masses --      4.0775                 1.5009                 2.7822
 Frc consts  --      1.3833                 0.5763                 1.2751
 IR Inten    --     22.0183                12.9721                 6.8576

                     25                     26                     27
                      A                      A                      A
 Frequencies --    907.4783               972.1636              1021.5523
 Red. masses --      1.3253                 1.6779                 1.5687
 Frc consts  --      0.6430                 0.9343                 0.9645
 IR Inten    --      6.7716                 3.6455                 7.2320

                     28                     29                     30
                      A                      A                      A
 Frequencies --   1042.0282              1047.0353              1090.2649
 Red. masses --      1.5701                 1.9597                 2.7907
 Frc consts  --      1.0044                 1.2658                 1.9545
 IR Inten    --      0.4122                14.2710                10.7406

                     31                     32                     33
                      A                      A                      A
 Frequencies --   1113.6844              1146.2486              1177.8297
 Red. masses --      2.0950                 1.7704                 2.4982
 Frc consts  --      1.5309                 1.3705                 2.0419
 IR Inten    --     12.9075                 7.0764                 5.5156

                     34                     35                     36
                      A                      A                      A
 Frequencies --   1206.8513              1281.9470              1285.8922
 Red. masses --      2.3801                 1.9778                 1.7743
 Frc consts  --      2.0425                 1.9150                 1.7286
 IR Inten    --     18.2570               130.3090                90.9576

                     37                     38                     39
                      A                      A                      A
 Frequencies --   1318.1870              1343.8931              1376.5594
 Red. masses --      1.2083                 1.3515                 1.3059
 Frc consts  --      1.2370                 1.4381                 1.4580
 IR Inten    --     10.5769                 9.9888                37.1267

                     40                     41                     42
                      A                      A                      A
 Frequencies --   1383.0881              1397.6220              1412.0384
 Red. masses --      1.4450                 1.4943                 1.2671
 Frc consts  --      1.6286                 1.7197                 1.4885
 IR Inten    --     58.0550                12.4728                25.0255

                     43                     44                     45
                      A                      A                      A
 Frequencies --   1426.4870              1441.3221              1447.5921
 Red. masses --      1.3993                 1.3106                 1.3373
 Frc consts  --      1.6777                 1.6041                 1.6511
 IR Inten    --     23.3895                27.9211                 3.9616

                     46                     47                     48
                      A                      A                      A
 Frequencies --   1487.4415              1506.5786              1512.7003
 Red. masses --      1.6267                 1.3191                 1.3219
 Frc consts  --      2.1204                 1.7640                 1.7822
 IR Inten    --      7.8744                19.6564                22.6232

                     49                     50                     51
                      A                      A                      A
 Frequencies --   1521.4656              1530.0946              1531.4624
 Red. masses --      1.0766                 1.0551                 1.0745
 Frc consts  --      1.4683                 1.4554                 1.4848
 IR Inten    --      3.1095                 2.2961                 9.5422

                     52                     53                     54
                      A                      A                      A
 Frequencies --   1535.4813              1541.9759              1780.7933
 Red. masses --      1.0771                 1.0572                 7.5499
 Frc consts  --      1.4962                 1.4811                14.1065
 IR Inten    --     11.6008                 7.4046               333.1833

                     55                     56                     57
                      A                      A                      A
 Frequencies --   1825.5359              2984.6074              3041.7889
 Red. masses --      6.8755                 1.0862                 1.0603
 Frc consts  --     13.5000                 5.7008                 5.7800
 IR Inten    --    434.5019                57.8556                18.7026

                     58                     59                     60
                      A                      A                      A
 Frequencies --   3046.6847              3050.6899              3062.7836
 Red. masses --      1.0395                 1.0733                 1.0379
 Frc consts  --      5.6848                 5.8850                 5.7363
 IR Inten    --     22.2582                25.9015                14.9176

                     61                     62                     63
                      A                      A                      A
 Frequencies --   3065.7488              3079.8493              3113.0720
 Red. masses --      1.0845                 1.1004                 1.1026
 Frc consts  --      6.0054                 6.1496                 6.2960
 IR Inten    --     16.3786                30.0372                57.1931

                     64                     65                     66
                      A                      A                      A
 Frequencies --   3123.2046              3131.4809              3152.4286
 Red. masses --      1.1009                 1.1008                 1.1026
 Frc consts  --      6.3273                 6.3598                 6.4561
 IR Inten    --     30.8376                23.8208                11.8599

                     67                     68                     69
                      A                      A                      A
 Frequencies --   3171.4563              3578.4784              3579.6645
 Red. masses --      1.0909                 1.0749                 1.0763
 Frc consts  --      6.4646                 8.1099                 8.1259
 IR Inten    --      6.1867                21.5384                10.4296

 - Thermochemistry -
 -------------------
 Temperature   298.150 Kelvin.  Pressure   1.00000 Atm.
 Atom     1 has atomic number  6 and mass  12.00000

 Molecular mass:   158.10553 amu.
 Principal axes and moments of inertia in atomic units:
                           1         2         3
     Eigenvalues --  1321.864952703.859063083.00104
           X            0.99903   0.04368   0.00589
           Y           -0.04400   0.99624   0.07458
           Z           -0.00261  -0.07477   0.99720
 This molecule is an asymmetric top.
 Rotational symmetry number  1.
 Warning -- assumption of classical behavior for rotation
           may cause significant error
 Rotational temperatures (Kelvin)      0.06552     0.03203     0.02809
 Rotational constants (GHZ):           1.36530     0.66747     0.58538
 Zero-point vibrational energy     568830.7 (Joules/Mol)
                                  135.95381 (Kcal/Mol)
 Warning -- explicit consideration of  18 degrees of freedom as
           vibrations may cause significant error
 Vibrational temperatures:     62.84    76.82   102.34   113.83   147.02
          (Kelvin)            159.31   248.23   300.98   345.15   358.41
                              371.45   474.05   539.37   605.64   640.50
                              681.83   828.30   847.23   929.94   983.91
                             1049.71  1091.75  1161.43  1268.99  1305.66
                             1398.73  1469.79  1499.25  1506.45  1568.65
                             1602.34  1649.20  1694.63  1736.39  1844.44
                             1850.11  1896.58  1933.56  1980.56  1989.96
                             2010.87  2031.61  2052.40  2073.74  2082.76
                             2140.10  2167.63  2176.44  2189.05  2201.46
                             2203.43  2209.22  2218.56  2562.16  2626.54
                             4294.18  4376.46  4383.50  4389.26  4406.66
                             4410.93  4431.22  4479.02  4493.59  4505.50
                             4535.64  4563.02  5148.63  5150.34

 Zero-point correction=                           0.216656 (Hartree/Particle)
 Thermal correction to Energy=                    0.229661
 Thermal correction to Enthalpy=                  0.230605
 Thermal correction to Gibbs Free Energy=         0.176272
 Sum of electronic and zero-point Energies=           -534.966026
 Sum of electronic and thermal Energies=              -534.953021
 Sum of electronic and thermal Enthalpies=            -534.952077
 Sum of electronic and thermal Free Energies=         -535.006410

                     E (Thermal)             CV                S
                      KCal/Mol        Cal/Mol-Kelvin    Cal/Mol-Kelvin
 Total                  144.114             45.608            114.354
 Electronic               0.000              0.000              0.000
 Translational            0.889              2.981             41.083
 Rotational               0.889              2.981             30.778
 Vibrational            142.337             39.646             42.492
 Vibration     1          0.595              1.980              5.085
 Vibration     2          0.596              1.976              4.687
 Vibration     3          0.598              1.968              4.122
 Vibration     4          0.600              1.963              3.913
 Vibration     5          0.604              1.947              3.412
 Vibration     6          0.607              1.941              3.256
 Vibration     7          0.626              1.876              2.408
 Vibration     8          0.642              1.827              2.051
 Vibration     9          0.657              1.779              1.804
 Vibration    10          0.662              1.764              1.737
 Vibration    11          0.667              1.749              1.674
 Vibration    12          0.712              1.617              1.263
 Vibration    13          0.746              1.524              1.060
 Vibration    14          0.783              1.425              0.889
 Vibration    15          0.805              1.372              0.811
 Vibration    16          0.831              1.308              0.727
 Vibration    17          0.932              1.084              0.493
 Vibration    18          0.946              1.056              0.469

 Optimization completed.
    -- Stationary point found.
 Normal termination of Gaussian 16 at Tue Dec  8 19:49:11 2020.

 ----------------------------------------------------------------------
 # B3LYP/6-311++G(d,p) empiricaldispersion=gd3bj scf=xqc pop=npa geom=c
 heck
 ----------------------------------------------------------------------

 --------------------------------------
 CID_64990441_JID_1287_Energie_neutraal
 --------------------------------------
 Structure from the checkpoint file:  "JID_1287.chk"
 Charge =  0 Multiplicity = 1

 SCF Done:  E(RB3LYP) =  -535.351007860     A.U. after   14 cycles
 Normal termination of Gaussian 16 at Tue Dec  8 19:52:17 2020.

 ----------------------------------------------------------------------
 # B3LYP/6-311++G(d,p) empiricaldispersion=gd3bj scf=xqc pop=npa geom=c
 heck
 ----------------------------------------------------------------------

 ------------------------------------
 CID_64990441_JID_1287_Energie_kation
 ------------------------------------
 Structure from the checkpoint file:  "JID_1287.chk"
 Charge =  1 Multiplicity = 2

 SCF Done:  E(UB3LYP) =  -535.017063751     A.U. after   27 cycles
 Normal termination of Gaussian 16 at Tue Dec  8 19:58:55 2020.
 Gaussian 16:  ES64L-G16RevA.03 25-Dec-2016

 ----------------------------------------------------------------------
 # B3LYP/6-311++G(d,p) empiricaldispersion=gd3bj scf=xqc pop=npa geom=c
 heck
 ----------------------------------------------------------------------

 -----------------------------------
 CID_64990441_JID_1287_Energie_anion
 -----------------------------------
 Structure from the checkpoint file:  "JID_1287.chk"
 Charge = -1 Multiplicity = 2

                         Standard orientation:
 ---------------------------------------------------------------------
 Center     Atomic      Atomic             Coordinates (Angstroms)
 Number     Number       Type             X           Y           Z
 ---------------------------------------------------------------------
      1          6           0       -3.672222   -0.648069   -0.138701
      2          6           0       -2.447670   -0.826352    0.762147
      3          6           0       -1.146242   -1.078371   -0.012679
      4          7           0       -0.782386    0.012324   -0.912145
      5          6           0        0.056613    1.075043   -0.719436
      6          8           0        0.013311    2.059089   -1.448704
      7          6           0        1.099036    1.049558    0.417969
      8          6           0        0.470756    1.466166    1.751523
      9          7           0        1.789217   -0.227569    0.572210
     10          6           0        2.436724   -0.880132   -0.438786
     11          8           0        3.116408   -1.878818   -0.288276
     12          1           0       -3.574820    0.236737   -0.778173
     13          1           0       -4.582898   -0.520429    0.455278
     14          1           0       -3.816351   -1.521011   -0.787408
     15          1           0       -2.323736    0.061363    1.395532
     16          1           0       -2.606164   -1.678070    1.436862
     17          1           0       -0.315810   -1.248747    0.670803
     18          1           0       -1.249244   -1.989513   -0.615981
     19          1           0       -1.410655    0.182272   -1.689534
     20          1           0        1.806867    1.830650    0.118534
     21          1           0       -0.245275    0.721799    2.112538
     22          1           0        1.248034    1.596359    2.512731
     23          1           0       -0.050455    2.419359    1.630150
     24          1           0        1.992578   -0.563737    1.506830
     25          1           0        2.260398   -0.409544   -1.425005
 ---------------------------------------------------------------------

 SCF Done:  E(UB3LYP) =  -535.341102880     A.U. after   31 cycles

 The electronic state is 2-A.
 Alpha  occ. eigenvalues --  -19.01107 -19.00160 -14.25475 -14.24842 -10.18735
 Alpha  occ. eigenvalues --  -10.18650 -10.13943 -10.11413 -10.08183 -10.07398
 Alpha  occ. eigenvalues --  -10.06473  -0.95775  -0.95264  -0.84974  -0.83120
 Alpha  occ. eigenvalues --   -0.68982  -0.68305  -0.60305  -0.57306  -0.54274
 Alpha  occ. eigenvalues --   -0.51666  -0.48882  -0.44252  -0.40883  -0.39588
 Alpha  occ. eigenvalues --   -0.37927  -0.35983  -0.35379  -0.34923  -0.33631
 Alpha  occ. eigenvalues --   -0.32386  -0.31926  -0.31266  -0.30472  -0.28460
 Alpha  occ. eigenvalues --   -0.27666  -0.26161  -0.25683  -0.24763  -0.18570
 Alpha  occ. eigenvalues --   -0.18018  -0.17059  -0.16260   0.04242
 Alpha virt. eigenvalues --    0.06182   0.07572   0.08063   0.08164   0.09260
 Alpha virt. eigenvalues --    0.09522   0.09845   0.10241   0.11171   0.11359
 Alpha virt. eigenvalues --    0.12306   0.12702   0.13276   0.13655   0.14350

  Beta  occ. eigenvalues --  -19.01101 -19.00155 -14.25454 -14.24827 -10.18736
  Beta  occ. eigenvalues --  -10.18649 -10.13934 -10.11393 -10.08121 -10.07362
  Beta  occ. eigenvalues --  -10.06430  -0.95765  -0.95255  -0.84947  -0.83091
  Beta  occ. eigenvalues --   -0.68934  -0.68254  -0.60242  -0.57218  -0.54225
  Beta  occ. eigenvalues --   -0.51585  -0.48822  -0.44225  -0.40840  -0.39546
  Beta  occ. eigenvalues --   -0.37900  -0.35936  -0.35331  -0.34877  -0.33602
  Beta  occ. eigenvalues --   -0.32356  -0.31899  -0.31209  -0.30426  -0.28409
  Beta  occ. eigenvalues --   -0.27620  -0.26110  -0.25612  -0.24713  -0.18553
  Beta  occ. eigenvalues --   -0.17998  -0.17028  -0.16231
  Beta virt. eigenvalues --    0.06800   0.07373   0.08077   0.08358   0.08742
  Beta virt. eigenvalues --    0.09615   0.09889   0.10280   0.10791   0.11579
  Beta virt. eigenvalues --    0.11903   0.12742   0.13269   0.13741   0.14090

 Mulliken charges and spin densities:
               1          2
     1  C    1.724966  -2.351977
     2  C   -0.993132   0.866653
     3  C    0.355303  -0.592384
     4  N   -0.183541   0.009725
     5  C    0.271557  -0.367459
     6  O   -0.328950   0.020835
     7  C   -1.229407   1.175840
     8  C    2.067178  -2.653658
     9  N    0.022784  -0.196832
    10  C    0.166235  -0.106224
    11  O   -0.346818   0.008434
    12  H   -0.075739   0.215895
    13  H   -0.615468   0.767380
    14  H   -0.263482   0.406256
    15  H    0.242794  -0.123272
    16  H   -0.673010   0.837449
    17  H    0.189150   0.025185
    18  H   -0.152666   0.329634
    19  H    0.262525   0.058506
    20  H    0.021266   0.239899
    21  H   -0.888506   1.049765
    22  H   -0.697955   0.869032
    23  H   -0.077990   0.249455
    24  H    0.082061   0.237646
    25  H    0.120844   0.024215
 Sum of Mulliken charges =  -1.00000   1.00000

 Dipole moment (field-independent basis, Debye):
    X=              2.7559    Y=              1.0661    Z=             -4.5558  Tot=              5.4302
 Quadrupole moment (field-independent basis, Debye-Ang):
   XX=           -137.6283   YY=           -114.8670   ZZ=           -112.0072
   XY=             -2.8183   XZ=              1.3641   YZ=              0.4820

 Summary of Natural Population Analysis:

                                       Natural Population
                Natural  -----------------------------------------------
    Atom  No    Charge         Core      Valence    Rydberg      Total
 -----------------------------------------------------------------------
      C    1   -0.28876      0.99967     2.28327    0.00582     3.28876
      C    2   -0.19467      0.99964     2.18724    0.00779     3.19467
      C    3   -0.09057      0.99960     2.07988    0.01108     3.09057
      N    4   -0.31580      0.99966     2.80644    0.00970     3.81580
      C    5    0.33890      0.99964     1.63725    0.02421     2.66110
      O    6   -0.32408      0.99988     3.31831    0.00589     4.32408
      C    7   -0.04956      0.99955     2.03599    0.01401     3.04956
      C    8   -0.28632      0.99964     2.28007    0.00661     3.28632
      N    9   -0.32435      0.99969     2.81416    0.01049     3.82435
      C   10    0.27538      0.99973     1.70346    0.02143     2.72462
      O   11   -0.31023      0.99988     3.30408    0.00626     4.31023
      H   12    0.09359      0.00000     0.40507    0.00134     0.40641
      H   13    0.10538      0.00000     0.39297    0.00165     0.39462
      H   14    0.09679      0.00000     0.40176    0.00145     0.40321
      H   15    0.09673      0.00000     0.40155    0.00172     0.40327
      H   16    0.10190      0.00000     0.39563    0.00247     0.39810
      H   17    0.10674      0.00000     0.39113    0.00213     0.39326
      H   18    0.09493      0.00000     0.40380    0.00127     0.40507
      H   19    0.19341      0.00000     0.30421    0.00238     0.30659
      H   20    0.10625      0.00000     0.39232    0.00142     0.39375
      H   21    0.10406      0.00000     0.39359    0.00235     0.39594
      H   22    0.10753      0.00000     0.38913    0.00333     0.39247
      H   23    0.11042      0.00000     0.38839    0.00119     0.38958
      H   24    0.19836      0.00000     0.29880    0.00284     0.30164
      H   25    0.05394      0.00000     0.44444    0.00162     0.44606
 =======================================================================
   * Total *   -0.00000     10.99659    31.85296    0.15045    43.00000

 Normal termination of Gaussian 16 at Tue Dec  8 20:06:37 2020.
