 Gaussian 16, Revision A.03,

 -----------------------------------------------------------
 # opt freq B3LYP/6-31G(d) empiricaldispersion=gd3bj scf=xqc
 -----------------------------------------------------------

 ------------------------------
 CID_79496219_JID_4694_neutraal
 ------------------------------
 Symbolic Z-matrix:
 Charge =  0 Multiplicity = 1

 SCF Done:  E(RB3LYP) =  -648.193721982     A.U. after   14 cycles
 SCF Done:  E(RB3LYP) =  -648.197372117     A.U. after   12 cycles
 SCF Done:  E(RB3LYP) =  -648.197967125     A.U. after   11 cycles
 SCF Done:  E(RB3LYP) =  -648.198134468     A.U. after   11 cycles
 SCF Done:  E(RB3LYP) =  -648.198193574     A.U. after   11 cycles
 SCF Done:  E(RB3LYP) =  -648.198243380     A.U. after   10 cycles
 SCF Done:  E(RB3LYP) =  -648.198276679     A.U. after   11 cycles
 SCF Done:  E(RB3LYP) =  -648.198285169     A.U. after   10 cycles
 SCF Done:  E(RB3LYP) =  -648.198288894     A.U. after    9 cycles
 SCF Done:  E(RB3LYP) =  -648.198290650     A.U. after    9 cycles
 SCF Done:  E(RB3LYP) =  -648.198291015     A.U. after    7 cycles
 SCF Done:  E(RB3LYP) =  -648.198291051     A.U. after    7 cycles
 SCF Done:  E(RB3LYP) =  -648.198291074     A.U. after    6 cycles
 SCF Done:  E(RB3LYP) =  -648.198291094     A.U. after    6 cycles
 SCF Done:  E(RB3LYP) =  -648.198291108     A.U. after    7 cycles
 Optimization completed.
    -- Stationary point found.
 Normal termination of Gaussian 16 at Thu Dec 10 10:22:29 2020.

 --------------------------------------------------------------------
 #N Geom=AllCheck Guess=TCheck SCRF=Check GenChk RB3LYP/6-31G(d) Freq
 --------------------------------------------------------------------

 Structure from the checkpoint file:  "JID_4694.chk"
 ------------------------------
 CID_79496219_JID_4694_neutraal
 ------------------------------
 Charge =  0 Multiplicity = 1

 SCF Done:  E(RB3LYP) =  -648.198291108     A.U. after    1 cycles

  Exact polarizability: 151.702  13.036 110.183  -5.004   4.849  87.508
 Approx polarizability: 188.515  25.545 183.862 -15.115   8.097 150.480

                      1                      2                      3
                      A                      A                      A
 Frequencies --     19.7275                29.2837                38.2534
 Red. masses --      4.5414                 4.5442                 4.6945
 Frc consts  --      0.0010                 0.0023                 0.0040
 IR Inten    --      1.0098                 3.9016                 1.3441

                      4                      5                      6
                      A                      A                      A
 Frequencies --     76.8294                92.6203               130.9032
 Red. masses --      4.0517                 4.0397                 1.1348
 Frc consts  --      0.0141                 0.0204                 0.0115
 IR Inten    --      0.1855                 0.9172                 0.1747

                      7                      8                      9
                      A                      A                      A
 Frequencies --    188.1625               219.5492               241.8613
 Red. masses --      3.1815                 3.3051                 4.1810
 Frc consts  --      0.0664                 0.0939                 0.1441
 IR Inten    --      3.9208                 3.9216                 1.7037

                     10                     11                     12
                      A                      A                      A
 Frequencies --    274.7643               351.7708               354.9647
 Red. masses --      3.0348                 2.8314                 2.4670
 Frc consts  --      0.1350                 0.2064                 0.1831
 IR Inten    --      0.5519                 4.6957                 3.4103

                     13                     14                     15
                      A                      A                      A
 Frequencies --    403.8671               462.8555               609.6820
 Red. masses --      2.9226                 4.8208                 4.8572
 Frc consts  --      0.2809                 0.6085                 1.0637
 IR Inten    --      0.6669                 7.5735                 3.5558

                     16                     17                     18
                      A                      A                      A
 Frequencies --    631.8743               638.6545               651.9637
 Red. masses --      3.6255                 4.4594                 4.6455
 Frc consts  --      0.8529                 1.0717                 1.1634
 IR Inten    --      2.1537                 2.2627                 3.8688

                     19                     20                     21
                      A                      A                      A
 Frequencies --    673.8149               737.5815               774.8054
 Red. masses --      4.7057                 2.1434                 2.8843
 Frc consts  --      1.2588                 0.6870                 1.0202
 IR Inten    --      4.0007                37.6591                 5.3630

                     22                     23                     24
                      A                      A                      A
 Frequencies --    788.2250               798.9102               811.2113
 Red. masses --      1.2767                 1.2542                 2.3355
 Frc consts  --      0.4674                 0.4717                 0.9055
 IR Inten    --     45.6344                47.0775                87.7850

                     25                     26                     27
                      A                      A                      A
 Frequencies --    847.0294               864.2504               887.5758
 Red. masses --      1.3770                 1.3503                 4.4254
 Frc consts  --      0.5821                 0.5942                 2.0541
 IR Inten    --      5.3514                 0.5047                19.1835

                     28                     29                     30
                      A                      A                      A
 Frequencies --    928.2518               937.7450               948.3975
 Red. masses --      2.6690                 5.4725                 2.5579
 Frc consts  --      1.3550                 2.8354                 1.3555
 IR Inten    --      9.4327                 4.8034                10.1767

                     31                     32                     33
                      A                      A                      A
 Frequencies --    985.3138              1004.0794              1014.7074
 Red. masses --      2.5548                 4.3375                 2.9723
 Frc consts  --      1.4614                 2.5765                 1.8031
 IR Inten    --      0.8517                 3.7460                 9.0840

                     34                     35                     36
                      A                      A                      A
 Frequencies --   1035.0484              1052.5229              1079.9930
 Red. masses --      1.8622                 1.5131                 1.6001
 Frc consts  --      1.1755                 0.9876                 1.0996
 IR Inten    --     18.4691                25.8300                 7.1704

                     37                     38                     39
                      A                      A                      A
 Frequencies --   1081.8272              1103.5725              1132.9002
 Red. masses --      1.4756                 2.0807                 4.6397
 Frc consts  --      1.0175                 1.4930                 3.5085
 IR Inten    --      1.1298                24.0465                44.7732

                     40                     41                     42
                      A                      A                      A
 Frequencies --   1160.0417              1214.0442              1245.4956
 Red. masses --      2.0691                 1.3259                 1.7270
 Frc consts  --      1.6405                 1.1514                 1.5784
 IR Inten    --     16.1893                 1.8509                 1.1004

                     43                     44                     45
                      A                      A                      A
 Frequencies --   1259.9877              1276.4178              1301.4300
 Red. masses --      3.1332                 3.0203                 2.0442
 Frc consts  --      2.9307                 2.8992                 2.0399
 IR Inten    --     11.6306                 8.6738                 0.5171

                     46                     47                     48
                      A                      A                      A
 Frequencies --   1322.2954              1381.4483              1413.2659
 Red. masses --      1.3624                 1.2969                 1.4787
 Frc consts  --      1.4035                 1.4582                 1.7401
 IR Inten    --      1.9302                18.2693                19.2758

                     49                     50                     51
                      A                      A                      A
 Frequencies --   1416.9701              1445.5186              1465.3625
 Red. masses --      2.5206                 1.3078                 4.1063
 Frc consts  --      2.9818                 1.6100                 5.1951
 IR Inten    --      1.4092                 2.7347                30.5289

                     52                     53                     54
                      A                      A                      A
 Frequencies --   1485.4216              1497.1441              1502.8916
 Red. masses --      4.1491                 1.1503                 1.0430
 Frc consts  --      5.3939                 1.5191                 1.3880
 IR Inten    --      6.4004                 7.9824                 6.2078

                     55                     56                     57
                      A                      A                      A
 Frequencies --   1511.1792              1522.0342              1526.9442
 Red. masses --      1.2241                 1.1121                 1.0846
 Frc consts  --      1.6471                 1.5179                 1.4899
 IR Inten    --     42.8600                 3.4193                 4.7203

                     58                     59                     60
                      A                      A                      A
 Frequencies --   1617.2237              1618.7152              1671.6439
 Red. masses --      5.9412                 6.5519                 6.1705
 Frc consts  --      9.1551                10.1148                10.1591
 IR Inten    --     33.2380                 7.0595                 5.9761

                     61                     62                     63
                      A                      A                      A
 Frequencies --   2999.5534              3045.4859              3059.8956
 Red. masses --      1.0677                 1.0379                 1.0930
 Frc consts  --      5.6598                 5.6720                 6.0298
 IR Inten    --     32.5289                34.7536                21.3950

                     64                     65                     66
                      A                      A                      A
 Frequencies --   3066.5479              3095.3511              3116.3461
 Red. masses --      1.0606                 1.1015                 1.1050
 Frc consts  --      5.8764                 6.2181                 6.3230
 IR Inten    --     31.9635                17.2436                12.0125

                     67                     68                     69
                      A                      A                      A
 Frequencies --   3141.2202              3258.5589              3271.9520
 Red. masses --      1.0996                 1.0929                 1.1009
 Frc consts  --      6.3927                 6.8376                 6.9443
 IR Inten    --     12.6712                 9.2511                 2.6528

                     70                     71                     72
                      A                      A                      A
 Frequencies --   3275.6750              3296.3995              3483.9802
 Red. masses --      1.0900                 1.1083                 1.0741
 Frc consts  --      6.8909                 7.0957                 7.6818
 IR Inten    --      0.1723                 0.9733                 0.7844

 - Thermochemistry -
 -------------------
 Temperature   298.150 Kelvin.  Pressure   1.00000 Atm.
 Atom     1 has atomic number  6 and mass  12.00000

 Molecular mass:   192.08988 amu.
 Principal axes and moments of inertia in atomic units:
                           1         2         3
     Eigenvalues --   883.917706643.609797016.09137
           X            0.99999   0.00049   0.00401
           Y           -0.00056   0.99985   0.01722
           Z           -0.00400  -0.01722   0.99984
 This molecule is an asymmetric top.
 Rotational symmetry number  1.
 Warning -- assumption of classical behavior for rotation
           may cause significant error
 Rotational temperatures (Kelvin)      0.09799     0.01304     0.01235
 Rotational constants (GHZ):           2.04175     0.27165     0.25723
 Zero-point vibrational energy     555496.7 (Joules/Mol)
                                  132.76689 (Kcal/Mol)
 Warning -- explicit consideration of  15 degrees of freedom as
           vibrations may cause significant error
 Vibrational temperatures:     28.38    42.13    55.04   110.54   133.26
          (Kelvin)            188.34   270.72   315.88   347.98   395.32
                              506.12   510.72   581.07   665.95   877.20
                              909.13   918.88   938.03   969.47  1061.22
                             1114.77  1134.08  1149.45  1167.15  1218.69
                             1243.46  1277.02  1335.55  1349.21  1364.53
                             1417.65  1444.65  1459.94  1489.20  1514.35
                             1553.87  1556.51  1587.79  1629.99  1669.04
                             1746.74  1791.99  1812.84  1836.48  1872.47
                             1902.49  1987.60  2033.37  2038.70  2079.78
                             2108.33  2137.19  2154.06  2162.33  2174.25
                             2189.87  2196.93  2326.82  2328.97  2405.12
                             4315.69  4381.77  4402.51  4412.08  4453.52
                             4483.73  4519.52  4688.34  4707.61  4712.97
                             4742.78  5012.67

 Zero-point correction=                           0.211578 (Hartree/Particle)
 Thermal correction to Energy=                    0.224469
 Thermal correction to Enthalpy=                  0.225413
 Thermal correction to Gibbs Free Energy=         0.169017
 Sum of electronic and zero-point Energies=           -647.986714
 Sum of electronic and thermal Energies=              -647.973822
 Sum of electronic and thermal Enthalpies=            -647.972878
 Sum of electronic and thermal Free Energies=         -648.029274

                     E (Thermal)             CV                S
                      KCal/Mol        Cal/Mol-Kelvin    Cal/Mol-Kelvin
 Total                  140.856             47.183            118.694
 Electronic               0.000              0.000              0.000
 Translational            0.889              2.981             41.664
 Rotational               0.889              2.981             32.088
 Vibrational            139.079             41.222             44.942
 Vibration     1          0.593              1.986              6.661
 Vibration     2          0.593              1.984              5.877
 Vibration     3          0.594              1.982              5.348
 Vibration     4          0.599              1.965              3.970
 Vibration     5          0.602              1.954              3.604
 Vibration     6          0.612              1.922              2.933
 Vibration     7          0.633              1.856              2.246
 Vibration     8          0.647              1.811              1.963
 Vibration     9          0.658              1.776              1.789
 Vibration    10          0.677              1.720              1.566
 Vibration    11          0.728              1.572              1.158
 Vibration    12          0.731              1.565              1.144
 Vibration    13          0.769              1.462              0.949
 Vibration    14          0.820              1.332              0.758
 Vibration    15          0.969              1.011              0.433

 Optimization completed.
    -- Stationary point found.
 Normal termination of Gaussian 16 at Thu Dec 10 10:28:02 2020.

 ----------------------------------------------------------------------
 # B3LYP/6-311++G(d,p) empiricaldispersion=gd3bj scf=xqc pop=npa geom=c
 heck
 ----------------------------------------------------------------------

 --------------------------------------
 CID_79496219_JID_4694_Energie_neutraal
 --------------------------------------
 Structure from the checkpoint file:  "JID_4694.chk"
 Charge =  0 Multiplicity = 1

 SCF Done:  E(RB3LYP) =  -648.378519208     A.U. after   15 cycles
 Normal termination of Gaussian 16 at Thu Dec 10 10:30:14 2020.

 ----------------------------------------------------------------------
 # B3LYP/6-311++G(d,p) empiricaldispersion=gd3bj scf=xqc pop=npa geom=c
 heck
 ----------------------------------------------------------------------

 ------------------------------------
 CID_79496219_JID_4694_Energie_kation
 ------------------------------------
 Structure from the checkpoint file:  "JID_4694.chk"
 Charge =  1 Multiplicity = 2

 SCF Done:  E(UB3LYP) =  -648.085067568     A.U. after   28 cycles
 Normal termination of Gaussian 16 at Thu Dec 10 10:36:00 2020.
 Gaussian 16:  ES64L-G16RevA.03 25-Dec-2016

 ----------------------------------------------------------------------
 # B3LYP/6-311++G(d,p) empiricaldispersion=gd3bj scf=xqc pop=npa geom=c
 heck
 ----------------------------------------------------------------------

 -----------------------------------
 CID_79496219_JID_4694_Energie_anion
 -----------------------------------
 Structure from the checkpoint file:  "JID_4694.chk"
 Charge = -1 Multiplicity = 2

                         Standard orientation:
 ---------------------------------------------------------------------
 Center     Atomic      Atomic             Coordinates (Angstroms)
 Number     Number       Type             X           Y           Z
 ---------------------------------------------------------------------
      1          6           0       -5.014362   -0.604452    0.175051
      2          6           0       -3.735724    0.146492    0.062074
      3          6           0       -3.395880    1.458356    0.218957
      4          6           0       -1.986232    1.547680   -0.032097
      5          6           0       -1.560842    0.286217   -0.327361
      6          8           0       -2.623920   -0.579679   -0.270608
      7          6           0       -0.225782   -0.280689   -0.652724
      8          7           0        0.265372   -1.143058    0.432116
      9          6           0        1.614996   -1.659208    0.199239
     10          6           0        2.685644   -0.598578    0.122240
     11          7           0        3.160870   -0.213441   -1.042775
     12          8           0        4.064696    0.822607   -0.762399
     13          6           0        4.091148    1.024280    0.567354
     14          6           0        3.244699    0.166351    1.193719
     15          1           0       -5.279697   -1.090946   -0.771625
     16          1           0       -4.953206   -1.387921    0.940292
     17          1           0       -5.822953    0.079246    0.447430
     18          1           0       -4.068818    2.263595    0.479032
     19          1           0       -1.368969    2.435176   -0.003239
     20          1           0       -0.284065   -0.899820   -1.557405
     21          1           0        0.449396    0.557853   -0.888519
     22          1           0        0.240767   -0.616078    1.304217
     23          1           0        1.854463   -2.361220    1.005610
     24          1           0        1.610659   -2.221904   -0.739802
     25          1           0        4.759029    1.800697    0.912467
     26          1           0        3.047518    0.074707    2.251495
 ---------------------------------------------------------------------

 SCF Done:  E(UB3LYP) =  -648.366649161     A.U. after   33 cycles
 SCF Done:  E(UB3LYP) =  -648.366649161     a.u. after    1 cycles

 The electronic state is 2-A.
 Alpha  occ. eigenvalues --  -19.11341 -19.08882 -14.26249 -14.21377 -10.14316
 Alpha  occ. eigenvalues --  -10.13399 -10.12926 -10.11808 -10.11773 -10.11257
 Alpha  occ. eigenvalues --  -10.08607 -10.08574 -10.07708 -10.07395  -1.04827
 Alpha  occ. eigenvalues --   -1.01431  -0.82767  -0.77645  -0.70764  -0.70241
 Alpha  occ. eigenvalues --   -0.69557  -0.64318  -0.59305  -0.55147  -0.52381
 Alpha  occ. eigenvalues --   -0.50737  -0.48248  -0.45975  -0.44048  -0.42411
 Alpha  occ. eigenvalues --   -0.38632  -0.37967  -0.37421  -0.35824  -0.35290
 Alpha  occ. eigenvalues --   -0.34979  -0.33687  -0.32011  -0.31095  -0.30197
 Alpha  occ. eigenvalues --   -0.29887  -0.29492  -0.29222  -0.27915  -0.27043
 Alpha  occ. eigenvalues --   -0.21947  -0.20636  -0.18920  -0.17653  -0.14565
 Alpha  occ. eigenvalues --   -0.12859   0.04077
 Alpha virt. eigenvalues --    0.05427   0.06513   0.07323   0.07543   0.08214
 Alpha virt. eigenvalues --    0.08893   0.09029   0.10239   0.10448   0.10634
 Alpha virt. eigenvalues --    0.11564   0.11898   0.12584   0.13402   0.13950

  Beta  occ. eigenvalues --  -19.11285 -19.08873 -14.26168 -14.21355 -10.14250
  Beta  occ. eigenvalues --  -10.13395 -10.12927 -10.11802 -10.11762 -10.11255
  Beta  occ. eigenvalues --  -10.08590 -10.08538 -10.07699 -10.07381  -1.04721
  Beta  occ. eigenvalues --   -1.01417  -0.82727  -0.77548  -0.70746  -0.70167
  Beta  occ. eigenvalues --   -0.69511  -0.64286  -0.59259  -0.55105  -0.52290
  Beta  occ. eigenvalues --   -0.50711  -0.48156  -0.45949  -0.43970  -0.42371
  Beta  occ. eigenvalues --   -0.38531  -0.37868  -0.37342  -0.35750  -0.35229
  Beta  occ. eigenvalues --   -0.34916  -0.33653  -0.31965  -0.31059  -0.30148
  Beta  occ. eigenvalues --   -0.29859  -0.29466  -0.29201  -0.27883  -0.27025
  Beta  occ. eigenvalues --   -0.21839  -0.20411  -0.18899  -0.17355  -0.14535
  Beta  occ. eigenvalues --   -0.12839
  Beta virt. eigenvalues --    0.06236   0.06924   0.07081   0.07862   0.08180
  Beta virt. eigenvalues --    0.08397   0.09209   0.09394   0.10495   0.10818
  Beta virt. eigenvalues --    0.10997   0.11748   0.12075   0.12653   0.13463

 Mulliken charges and spin densities:
               1          2
     1  C    2.257365  -2.895137
     2  C   -0.977291   1.174175
     3  C   -0.541938   0.453180
     4  C   -0.196811   0.004647
     5  C   -0.217342   0.335108
     6  O   -0.021007   0.041743
     7  C    0.284378  -1.019105
     8  N    0.068231   0.010632
     9  C    0.568154  -1.444712
    10  C    0.657592  -0.227654
    11  N   -0.373604   0.140424
    12  O    0.136242  -0.007676
    13  C    0.606538  -0.784320
    14  C   -0.332347   0.246576
    15  H   -0.106334   0.256493
    16  H   -0.061994   0.216656
    17  H   -0.477459   0.646134
    18  H   -0.623696   0.786830
    19  H   -0.100453   0.259903
    20  H    0.143339   0.008132
    21  H    0.126059   0.024229
    22  H    0.103284   0.108523
    23  H   -0.000644   0.187941
    24  H    0.120933   0.054425
    25  H   -1.016130   1.212753
    26  H   -1.025066   1.210098
 Sum of Mulliken charges =  -1.00000   1.00000

 Dipole moment (field-independent basis, Debye):
    X=             -0.2952    Y=             -2.2109    Z=             -3.7430  Tot=              4.3572
 Quadrupole moment (field-independent basis, Debye-Ang):
   XX=           -199.2497   YY=           -112.8201   ZZ=           -120.5754
   XY=             -5.5218   XZ=             -6.6687   YZ=             -3.5111

 Summary of Natural Population Analysis:

                                       Natural Population
                Natural  -----------------------------------------------
    Atom  No    Charge         Core      Valence    Rydberg      Total
 -----------------------------------------------------------------------
      C    1   -0.30639      0.99963     2.30101    0.00575     3.30639
      C    2    0.15414      0.99948     1.83229    0.01409     2.84586
      C    3   -0.15385      0.99950     2.14525    0.00910     3.15385
      C    4   -0.14364      0.99949     2.13494    0.00920     3.14364
      C    5    0.14331      0.99946     1.84265    0.01459     2.85669
      O    6   -0.23842      0.99985     3.23030    0.00827     4.23842
      C    7   -0.11210      0.99957     2.10191    0.01061     3.11210
      N    8   -0.32530      0.99975     2.81453    0.01102     3.82530
      C    9   -0.10344      0.99958     2.09142    0.01244     3.10344
      C   10    0.06953      0.99960     1.91529    0.01557     2.93047
      N   11   -0.07809      0.99966     2.56593    0.01250     3.57809
      O   12   -0.16174      0.99987     3.15314    0.00873     4.16174
      C   13    0.09578      0.99955     1.88960    0.01507     2.90422
      C   14   -0.17550      0.99950     2.16560    0.01039     3.17550
      H   15    0.10625      0.00000     0.39245    0.00131     0.39375
      H   16    0.10738      0.00000     0.39136    0.00126     0.39262
      H   17    0.11037      0.00000     0.38811    0.00153     0.38963
      H   18    0.10873      0.00000     0.39011    0.00116     0.39127
      H   19    0.10907      0.00000     0.39015    0.00078     0.39093
      H   20    0.09901      0.00000     0.39965    0.00133     0.40099
      H   21    0.09551      0.00000     0.40249    0.00199     0.40449
      H   22    0.17492      0.00000     0.32197    0.00311     0.32508
      H   23    0.10293      0.00000     0.39613    0.00095     0.39707
      H   24    0.10122      0.00000     0.39763    0.00115     0.39878
      H   25    0.10186      0.00000     0.39566    0.00249     0.39814
      H   26    0.11845      0.00000     0.37788    0.00367     0.38155
 =======================================================================
   * Total *    0.00000     13.99449    36.82745    0.17806    51.00000

 Normal termination of Gaussian 16 at Thu Dec 10 10:42:54 2020.
