 Gaussian 16, Revision A.03,

 -----------------------------------------------------------
 # opt freq B3LYP/6-31G(d) empiricaldispersion=gd3bj scf=xqc
 -----------------------------------------------------------

 -------------------------------
 CID_136362849_JID_6268_neutraal
 -------------------------------
 Symbolic Z-matrix:
 Charge =  0 Multiplicity = 1

 SCF Done:  E(RB3LYP) =  -744.177570426     A.U. after   15 cycles
 SCF Done:  E(RB3LYP) =  -744.184587827     A.U. after   12 cycles
 SCF Done:  E(RB3LYP) =  -744.186480736     A.U. after   12 cycles
 SCF Done:  E(RB3LYP) =  -744.187734012     A.U. after   15 cycles
 SCF Done:  E(RB3LYP) =  -744.188475205     A.U. after   12 cycles
 SCF Done:  E(RB3LYP) =  -744.189256184     A.U. after   12 cycles
 SCF Done:  E(RB3LYP) =  -744.189598081     A.U. after   14 cycles
 SCF Done:  E(RB3LYP) =  -744.190247914     A.U. after   11 cycles
 SCF Done:  E(RB3LYP) =  -744.190636570     A.U. after   12 cycles
 SCF Done:  E(RB3LYP) =  -744.190859878     A.U. after   12 cycles
 SCF Done:  E(RB3LYP) =  -744.191261904     A.U. after   10 cycles
 SCF Done:  E(RB3LYP) =  -744.191266526     A.U. after    9 cycles
 SCF Done:  E(RB3LYP) =  -744.191267568     A.U. after    9 cycles
 SCF Done:  E(RB3LYP) =  -744.191267790     A.U. after    8 cycles
 SCF Done:  E(RB3LYP) =  -744.191267852     A.U. after    8 cycles
 Optimization completed.
    -- Stationary point found.
 Normal termination of Gaussian 16 at Thu Dec 10 22:03:53 2020.

 --------------------------------------------------------------------
 #N Geom=AllCheck Guess=TCheck SCRF=Check GenChk RB3LYP/6-31G(d) Freq
 --------------------------------------------------------------------

 Structure from the checkpoint file:  "JID_6268.chk"
 -------------------------------
 CID_136362849_JID_6268_neutraal
 -------------------------------
 Charge =  0 Multiplicity = 1

 SCF Done:  E(RB3LYP) =  -744.191267852     A.U. after    1 cycles

  Exact polarizability: 176.585   5.088 144.039 -13.613  11.200 100.861
 Approx polarizability: 224.926  -3.801 235.343 -28.561  35.064 161.360

                      1                      2                      3
                      A                      A                      A
 Frequencies --     19.4822                36.6902                47.9271
 Red. masses --      4.1620                 4.8009                 2.5102
 Frc consts  --      0.0009                 0.0038                 0.0034
 IR Inten    --      2.8837                 0.1462                 5.5157

                      4                      5                      6
                      A                      A                      A
 Frequencies --     80.8811               100.8642               113.0542
 Red. masses --      3.3735                 2.7492                 3.3000
 Frc consts  --      0.0130                 0.0165                 0.0249
 IR Inten    --      0.6204                 1.0950                 2.6138

                      7                      8                      9
                      A                      A                      A
 Frequencies --    165.4066               170.9482               201.6416
 Red. masses --      2.7570                 4.7776                 2.2329
 Frc consts  --      0.0444                 0.0823                 0.0535
 IR Inten    --      1.6893                 2.0460                 3.6432

                     10                     11                     12
                      A                      A                      A
 Frequencies --    217.3028               263.0091               286.9547
 Red. masses --      1.7271                 4.7483                 2.1705
 Frc consts  --      0.0481                 0.1935                 0.1053
 IR Inten    --     11.1569                 4.7163                 0.3157

                     13                     14                     15
                      A                      A                      A
 Frequencies --    306.9848               350.3105               372.2682
 Red. masses --      3.1780                 2.7489                 3.4377
 Frc consts  --      0.1765                 0.1988                 0.2807
 IR Inten    --     11.8121                 5.8355                 0.9986

                     16                     17                     18
                      A                      A                      A
 Frequencies --    418.2344               449.2531               466.9060
 Red. masses --      2.2069                 3.1306                 2.9663
 Frc consts  --      0.2274                 0.3723                 0.3810
 IR Inten    --      5.3688                 1.5316                 3.8061

                     19                     20                     21
                      A                      A                      A
 Frequencies --    517.7557               526.7825               545.7620
 Red. masses --      2.9522                 2.9823                 4.3768
 Frc consts  --      0.4663                 0.4876                 0.7681
 IR Inten    --      1.5059                 1.1592                 6.1578

                     22                     23                     24
                      A                      A                      A
 Frequencies --    563.4802               622.6114               650.6230
 Red. masses --      2.7457                 3.9013                 1.6274
 Frc consts  --      0.5136                 0.8910                 0.4059
 IR Inten    --     14.7848                41.7034                54.3555

                     25                     26                     27
                      A                      A                      A
 Frequencies --    658.0963               715.3811               755.0453
 Red. masses --      3.1274                 2.7742                 3.8017
 Frc consts  --      0.7980                 0.8365                 1.2769
 IR Inten    --     20.4664                41.4161                12.1743

                     28                     29                     30
                      A                      A                      A
 Frequencies --    760.3349               777.0254               843.8260
 Red. masses --      2.4914                 3.0135                 1.5909
 Frc consts  --      0.8486                 1.0720                 0.6674
 IR Inten    --     24.9989                73.5807                 3.3632

                     31                     32                     33
                      A                      A                      A
 Frequencies --    864.4913               871.9416               888.4213
 Red. masses --      2.2521                 2.6838                 2.3882
 Frc consts  --      0.9917                 1.2022                 1.1106
 IR Inten    --     18.9023                 1.2300                 0.8133

                     34                     35                     36
                      A                      A                      A
 Frequencies --    926.0450               935.2013               976.9733
 Red. masses --      1.6167                 2.2259                 2.3725
 Frc consts  --      0.8168                 1.1470                 1.3342
 IR Inten    --      0.8228                 3.7013                 4.1409

                     37                     38                     39
                      A                      A                      A
 Frequencies --    999.4012              1022.5350              1074.6749
 Red. masses --      3.1778                 3.1265                 2.4347
 Frc consts  --      1.8701                 1.9260                 1.6567
 IR Inten    --     37.6742                11.8278                13.5000

                     40                     41                     42
                      A                      A                      A
 Frequencies --   1101.8706              1114.8566              1116.6762
 Red. masses --      2.0719                 1.9058                 2.2030
 Frc consts  --      1.4821                 1.3956                 1.6186
 IR Inten    --      8.6885                 2.1025                22.9097

                     43                     44                     45
                      A                      A                      A
 Frequencies --   1134.8890              1166.8723              1174.7707
 Red. masses --      3.0482                 1.2124                 3.6744
 Frc consts  --      2.3131                 0.9726                 2.9877
 IR Inten    --     54.2038                 1.3797                59.6222

                     46                     47                     48
                      A                      A                      A
 Frequencies --   1178.0737              1197.2424              1208.1494
 Red. masses --      3.6657                 1.2669                 1.4993
 Frc consts  --      2.9974                 1.0700                 1.2894
 IR Inten    --     31.4498                 1.2785                 4.1488

                     49                     50                     51
                      A                      A                      A
 Frequencies --   1226.0595              1259.0917              1276.9656
 Red. masses --      1.4423                 3.5832                 1.4701
 Frc consts  --      1.2774                 3.3468                 1.4124
 IR Inten    --     37.0737                15.7128                38.0879

                     52                     53                     54
                      A                      A                      A
 Frequencies --   1280.7473              1294.5567              1306.6336
 Red. masses --      1.3018                 1.4146                 1.2296
 Frc consts  --      1.2581                 1.3968                 1.2369
 IR Inten    --      2.6871                 1.2328                10.1698

                     55                     56                     57
                      A                      A                      A
 Frequencies --   1325.7998              1343.0700              1388.0967
 Red. masses --      1.6143                 1.5654                 1.4597
 Frc consts  --      1.6718                 1.6637                 1.6572
 IR Inten    --     39.3404                47.5280                 0.4223

                     58                     59                     60
                      A                      A                      A
 Frequencies --   1391.7343              1402.4439              1404.8150
 Red. masses --      1.4371                 1.4633                 1.3965
 Frc consts  --      1.6400                 1.6958                 1.6237
 IR Inten    --      0.0021                11.8938                 6.4803

                     61                     62                     63
                      A                      A                      A
 Frequencies --   1423.4775              1431.8088              1494.3433
 Red. masses --      1.2874                 2.4430                 1.1694
 Frc consts  --      1.5369                 2.9508                 1.5386
 IR Inten    --     12.3768                28.7146                10.1350

                     64                     65                     66
                      A                      A                      A
 Frequencies --   1500.4557              1506.5522              1510.7450
 Red. masses --      1.7661                 1.2180                 1.1213
 Frc consts  --      2.3427                 1.6288                 1.5079
 IR Inten    --     42.1092                 3.9538                 6.7527

                     67                     68                     69
                      A                      A                      A
 Frequencies --   1520.9141              1521.4610              1522.8934
 Red. masses --      1.0729                 1.1059                 1.1106
 Frc consts  --      1.4622                 1.5083                 1.5175
 IR Inten    --     11.6365                 1.2150                 2.4077

                     70                     71                     72
                      A                      A                      A
 Frequencies --   1530.7943              1535.1062              1544.3620
 Red. masses --      1.1255                 1.1064                 1.4066
 Frc consts  --      1.5539                 1.5361                 1.9766
 IR Inten    --      1.2100                 5.8564                 0.6637

                     73                     74                     75
                      A                      A                      A
 Frequencies --   1546.6378              1632.2071              1659.9139
 Red. masses --      1.7610                 5.0924                 4.8966
 Frc consts  --      2.4819                 7.9932                 7.9490
 IR Inten    --      8.7353               523.2820               387.7858

                     76                     77                     78
                      A                      A                      A
 Frequencies --   1784.7255              3008.5243              3018.3466
 Red. masses --      9.3773                 1.0382                 1.0733
 Frc consts  --     17.5983                 5.5366                 5.7609
 IR Inten    --    508.9102                43.7671                21.8393

                     79                     80                     81
                      A                      A                      A
 Frequencies --   3025.6970              3026.8068              3033.2581
 Red. masses --      1.0547                 1.0711                 1.0671
 Frc consts  --      5.6892                 5.7816                 5.7846
 IR Inten    --     38.6725                12.1496                18.8208

                     82                     83                     84
                      A                      A                      A
 Frequencies --   3040.2714              3065.3422              3070.3499
 Red. masses --      1.0606                 1.0949                 1.1043
 Frc consts  --      5.7759                 6.0616                 6.1336
 IR Inten    --     42.5463                20.1519                35.2494

                     85                     86                     87
                      A                      A                      A
 Frequencies --   3073.6343              3082.4375              3084.3004
 Red. masses --      1.0788                 1.0909                 1.0895
 Frc consts  --      6.0049                 6.1071                 6.1064
 IR Inten    --     65.1815                42.7626                 8.3697

                     88                     89                     90
                      A                      A                      A
 Frequencies --   3086.2794              3089.8067              3125.4943
 Red. masses --      1.0970                 1.1037                 1.1010
 Frc consts  --      6.1565                 6.2081                 6.3367
 IR Inten    --     59.2631                51.1929                25.9132

                     91                     92                     93
                      A                      A                      A
 Frequencies --   3140.7632              3574.7369              3598.4810
 Red. masses --      1.0992                 1.0745                 1.0769
 Frc consts  --      6.3884                 8.0901                 8.2164
 IR Inten    --     29.2297                32.6017                23.2861

 - Thermochemistry -
 -------------------
 Temperature   298.150 Kelvin.  Pressure   1.00000 Atm.
 Atom     1 has atomic number  6 and mass  12.00000

 Molecular mass:   223.13208 amu.
 Principal axes and moments of inertia in atomic units:
                           1         2         3
     Eigenvalues --  1965.457155642.017296732.13851
           X            0.99987   0.01569   0.00278
           Y           -0.01564   0.99975  -0.01605
           Z           -0.00304   0.01600   0.99987
 This molecule is an asymmetric top.
 Rotational symmetry number  1.
 Warning -- assumption of classical behavior for rotation
           may cause significant error
 Rotational temperatures (Kelvin)      0.04407     0.01535     0.01287
 Rotational constants (GHZ):           0.91823     0.31988     0.26808
 Zero-point vibrational energy     745685.4 (Joules/Mol)
                                  178.22310 (Kcal/Mol)
 Warning -- explicit consideration of  22 degrees of freedom as
           vibrations may cause significant error
 Vibrational temperatures:     28.03    52.79    68.96   116.37   145.12
          (Kelvin)            162.66   237.98   245.96   290.12   312.65
                              378.41   412.86   441.68   504.02   535.61
                              601.75   646.38   671.77   744.93   757.92
                              785.23   810.72   895.80   936.10   946.85
                             1029.27  1086.34  1093.95  1117.97  1214.08
                             1243.81  1254.53  1278.24  1332.37  1345.55
                             1405.65  1437.92  1471.20  1546.22  1585.35
                             1604.03  1606.65  1632.85  1678.87  1690.23
                             1694.99  1722.56  1738.26  1764.03  1811.55
                             1837.27  1842.71  1862.58  1879.95  1907.53
                             1932.38  1997.16  2002.40  2017.80  2021.22
                             2048.07  2060.05  2150.03  2158.82  2167.59
                             2173.63  2188.26  2189.04  2191.10  2202.47
                             2208.68  2221.99  2225.27  2348.38  2388.25
                             2567.82  4328.60  4342.73  4353.30  4354.90
                             4364.18  4374.27  4410.34  4417.55  4422.27
                             4434.94  4437.62  4440.47  4445.54  4496.89
                             4518.86  5143.25  5177.41

 Zero-point correction=                           0.284017 (Hartree/Particle)
 Thermal correction to Energy=                    0.299239
 Thermal correction to Enthalpy=                  0.300183
 Thermal correction to Gibbs Free Energy=         0.239786
 Sum of electronic and zero-point Energies=           -743.907251
 Sum of electronic and thermal Energies=              -743.892029
 Sum of electronic and thermal Enthalpies=            -743.891085
 Sum of electronic and thermal Free Energies=         -743.951482

                     E (Thermal)             CV                S
                      KCal/Mol        Cal/Mol-Kelvin    Cal/Mol-Kelvin
 Total                  187.775             57.332            127.117
 Electronic               0.000              0.000              0.000
 Translational            0.889              2.981             42.110
 Rotational               0.889              2.981             32.679
 Vibrational            185.998             51.370             52.328
 Vibration     1          0.593              1.986              6.686
 Vibration     2          0.594              1.982              5.430
 Vibration     3          0.595              1.978              4.901
 Vibration     4          0.600              1.962              3.869
 Vibration     5          0.604              1.948              3.438
 Vibration     6          0.607              1.939              3.216
 Vibration     7          0.624              1.885              2.487
 Vibration     8          0.626              1.878              2.425
 Vibration     9          0.639              1.838              2.118
 Vibration    10          0.646              1.815              1.981
 Vibration    11          0.670              1.741              1.642
 Vibration    12          0.684              1.698              1.492
 Vibration    13          0.697              1.660              1.379
 Vibration    14          0.727              1.575              1.165
 Vibration    15          0.744              1.529              1.070
 Vibration    16          0.781              1.431              0.898
 Vibration    17          0.808              1.363              0.798
 Vibration    18          0.824              1.323              0.746
 Vibration    19          0.873              1.211              0.615
 Vibration    20          0.882              1.191              0.594
 Vibration    21          0.901              1.149              0.553
 Vibration    22          0.919              1.110              0.517

 Optimization completed.
    -- Stationary point found.
 Normal termination of Gaussian 16 at Thu Dec 10 22:14:44 2020.

 ----------------------------------------------------------------------
 # B3LYP/6-311++G(d,p) empiricaldispersion=gd3bj scf=xqc pop=npa geom=c
 heck
 ----------------------------------------------------------------------

 ---------------------------------------
 CID_136362849_JID_6268_Energie_neutraal
 ---------------------------------------
 Structure from the checkpoint file:  "JID_6268.chk"
 Charge =  0 Multiplicity = 1

 SCF Done:  E(RB3LYP) =  -744.403840600     A.U. after   15 cycles
 Normal termination of Gaussian 16 at Thu Dec 10 22:19:07 2020.

 ----------------------------------------------------------------------
 # B3LYP/6-311++G(d,p) empiricaldispersion=gd3bj scf=xqc pop=npa geom=c
 heck
 ----------------------------------------------------------------------

 -------------------------------------
 CID_136362849_JID_6268_Energie_kation
 -------------------------------------
 Structure from the checkpoint file:  "JID_6268.chk"
 Charge =  1 Multiplicity = 2

 SCF Done:  E(UB3LYP) =  -744.117450267     A.U. after   21 cycles
 Normal termination of Gaussian 16 at Thu Dec 10 22:28:05 2020.
 Gaussian 16:  ES64L-G16RevA.03 25-Dec-2016

 ----------------------------------------------------------------------
 # B3LYP/6-311++G(d,p) empiricaldispersion=gd3bj scf=xqc pop=npa geom=c
 heck
 ----------------------------------------------------------------------

 ------------------------------------
 CID_136362849_JID_6268_Energie_anion
 ------------------------------------
 Structure from the checkpoint file:  "JID_6268.chk"
 Charge = -1 Multiplicity = 2

                         Standard orientation:
 ---------------------------------------------------------------------
 Center     Atomic      Atomic             Coordinates (Angstroms)
 Number     Number       Type             X           Y           Z
 ---------------------------------------------------------------------
      1          6           0        2.892570   -1.995516    1.150824
      2          8           0        3.797816   -1.111399    0.506115
      3          6           0        3.522042    0.265459    0.707868
      4          6           0        3.224680    0.913656   -0.646263
      5          7           0        2.094783    0.287229   -1.331022
      6          6           0        0.816819    0.348427   -0.821082
      7          7           0        0.038814   -0.701140   -0.916301
      8          6           0       -1.250421   -0.575816   -0.453016
      9          6           0       -1.757884    0.563327    0.122883
     10          6           0       -3.173915    0.685453    0.627320
     11          6           0       -4.074458   -0.433451    0.094343
     12          6           0       -3.374974   -1.790716    0.220231
     13          6           0       -2.095410   -1.815585   -0.622375
     14          6           0       -0.902322    1.721318    0.258539
     15          8           0       -1.191327    2.808587    0.747318
     16          7           0        0.400658    1.518832   -0.258446
     17          1           0        3.230567   -3.008881    0.919649
     18          1           0        1.864727   -1.869254    0.782955
     19          1           0        2.903729   -1.860003    2.242373
     20          1           0        2.666516    0.403165    1.383216
     21          1           0        4.396022    0.746489    1.169060
     22          1           0        3.052873    1.989976   -0.530190
     23          1           0        4.093534    0.805522   -1.301352
     24          1           0        2.294360   -0.666236   -1.614921
     25          1           0       -3.169333    0.669613    1.727578
     26          1           0       -3.563939    1.672627    0.354769
     27          1           0       -5.028309   -0.435776    0.634127
     28          1           0       -4.306684   -0.245695   -0.963176
     29          1           0       -3.122457   -1.969100    1.274668
     30          1           0       -4.039548   -2.605655   -0.088861
     31          1           0       -2.345931   -1.908184   -1.689559
     32          1           0       -1.474334   -2.687594   -0.387287
     33          1           0        0.996153    2.337700   -0.235761
 ---------------------------------------------------------------------

 SCF Done:  E(UB3LYP) =  -744.394024631     A.U. after   33 cycles
 SCF Done:  E(UB3LYP) =  -744.394024630     a.u. after    1 cycles

 The electronic state is 2-A.
 Alpha  occ. eigenvalues --  -19.03611 -18.97871 -14.25868 -14.24015 -14.19422
 Alpha  occ. eigenvalues --  -10.18206 -10.16408 -10.12608 -10.12053 -10.11975
 Alpha  occ. eigenvalues --  -10.10406 -10.06867 -10.06839 -10.06826 -10.06622
 Alpha  occ. eigenvalues --  -10.06018  -0.94841  -0.93919  -0.90005  -0.82184
 Alpha  occ. eigenvalues --   -0.79664  -0.72845  -0.67485  -0.65501  -0.63777
 Alpha  occ. eigenvalues --   -0.59336  -0.56166  -0.54924  -0.52303  -0.50782
 Alpha  occ. eigenvalues --   -0.47491  -0.44843  -0.43818  -0.40927  -0.40280
 Alpha  occ. eigenvalues --   -0.39233  -0.38401  -0.36255  -0.35826  -0.35078
 Alpha  occ. eigenvalues --   -0.33788  -0.33079  -0.32302  -0.31363  -0.30388
 Alpha  occ. eigenvalues --   -0.29574  -0.29267  -0.28595  -0.28000  -0.26778
 Alpha  occ. eigenvalues --   -0.23437  -0.23298  -0.22969  -0.22691  -0.19689
 Alpha  occ. eigenvalues --   -0.18454  -0.17392  -0.16659  -0.15676  -0.11335
 Alpha  occ. eigenvalues --    0.04269
 Alpha virt. eigenvalues --    0.05880   0.06874   0.07184   0.07934   0.08606
 Alpha virt. eigenvalues --    0.08729   0.08937   0.09918   0.10534   0.10846
 Alpha virt. eigenvalues --    0.11000   0.11684   0.11946   0.12232   0.12480

  Beta  occ. eigenvalues --  -19.03601 -18.97843 -14.25797 -14.24008 -14.19469
  Beta  occ. eigenvalues --  -10.18099 -10.16373 -10.12574 -10.12039 -10.11945
  Beta  occ. eigenvalues --  -10.10248 -10.06853 -10.06833 -10.06811 -10.06621
  Beta  occ. eigenvalues --  -10.05985  -0.94820  -0.93828  -0.89913  -0.82120
  Beta  occ. eigenvalues --   -0.79553  -0.72783  -0.67404  -0.65415  -0.63673
  Beta  occ. eigenvalues --   -0.59288  -0.56084  -0.54803  -0.52235  -0.50685
  Beta  occ. eigenvalues --   -0.47412  -0.44766  -0.43755  -0.40846  -0.40196
  Beta  occ. eigenvalues --   -0.39179  -0.38343  -0.36154  -0.35677  -0.35023
  Beta  occ. eigenvalues --   -0.33628  -0.32996  -0.32243  -0.31309  -0.30339
  Beta  occ. eigenvalues --   -0.29502  -0.29215  -0.28488  -0.27870  -0.26599
  Beta  occ. eigenvalues --   -0.23392  -0.23252  -0.22930  -0.22643  -0.19427
  Beta  occ. eigenvalues --   -0.18290  -0.17389  -0.16563  -0.15623  -0.11070
  Beta virt. eigenvalues --    0.06474   0.06952   0.07569   0.07900   0.08231
  Beta virt. eigenvalues --    0.08915   0.09043   0.09394   0.10236   0.10819
  Beta virt. eigenvalues --    0.11036   0.11269   0.11742   0.12033   0.12286

 Mulliken charges and spin densities:
               1          2
     1  C    0.123895  -0.484972
     2  O   -0.154452   0.029604
     3  C    0.256910  -0.486178
     4  C    0.423888  -0.763317
     5  N   -0.024169   0.032661
     6  C    0.495659  -0.588703
     7  N   -0.156136   0.065171
     8  C   -0.346708  -0.325665
     9  C    0.768973  -0.074821
    10  C   -0.772107  -0.039987
    11  C   -0.262877   0.003551
    12  C   -0.016849  -0.234500
    13  C   -0.060511  -0.122223
    14  C    0.159055   0.079755
    15  O   -0.376240   0.012618
    16  N   -0.349301   0.146033
    17  H    0.037591   0.098760
    18  H    0.137880   0.064857
    19  H   -0.135935   0.264649
    20  H    0.225703  -0.088634
    21  H   -1.118914   1.332329
    22  H   -0.246791   0.349040
    23  H   -0.104982   0.304609
    24  H    0.302563   0.010839
    25  H    0.009685   0.172845
    26  H    0.209215  -0.037140
    27  H   -0.084203   0.237597
    28  H    0.017574   0.110025
    29  H    0.015038   0.108608
    30  H   -0.275554   0.443466
    31  H   -0.047760   0.237204
    32  H    0.080515   0.067850
    33  H    0.269344   0.074071
 Sum of Mulliken charges =  -1.00000   1.00000

 Dipole moment (field-independent basis, Debye):
    X=             -2.0260    Y=             -2.3287    Z=             -2.4087  Tot=              3.9153
 Quadrupole moment (field-independent basis, Debye-Ang):
   XX=           -183.9609   YY=           -140.7407   ZZ=           -124.5500
   XY=            -10.9021   XZ=             -8.6279   YZ=             -7.7787

 Summary of Natural Population Analysis:

                                       Natural Population
                Natural  -----------------------------------------------
    Atom  No    Charge         Core      Valence    Rydberg      Total
 -----------------------------------------------------------------------
      C    1   -0.09853      0.99961     2.09079    0.00812     3.09853
      O    2   -0.30677      0.99989     3.29643    0.01045     4.30677
      C    3   -0.01827      0.99958     2.00550    0.01319     3.01827
      C    4   -0.09800      0.99961     2.08570    0.01268     3.09800
      N    5   -0.31649      0.99968     2.80696    0.00986     3.81649
      C    6    0.33695      0.99960     1.64797    0.01548     2.66305
      N    7   -0.30677      0.99964     2.79693    0.01020     3.80677
      C    8    0.15098      0.99946     1.83729    0.01226     2.84902
      C    9   -0.09557      0.99941     2.08855    0.00760     3.09557
      C   10   -0.19274      0.99961     2.18499    0.00814     3.19274
      C   11   -0.18948      0.99964     2.18013    0.00972     3.18948
      C   12   -0.19018      0.99964     2.18138    0.00916     3.19018
      C   13   -0.20360      0.99960     2.19515    0.00886     3.20360
      C   14    0.32953      0.99958     1.64930    0.02159     2.67047
      O   15   -0.32996      0.99988     3.32425    0.00584     4.32996
      N   16   -0.29942      0.99963     2.79226    0.00753     3.79942
      H   17    0.08733      0.00000     0.41148    0.00118     0.41267
      H   18    0.08864      0.00000     0.40981    0.00155     0.41136
      H   19    0.07804      0.00000     0.42053    0.00144     0.42196
      H   20    0.08424      0.00000     0.41365    0.00212     0.41576
      H   21    0.09325      0.00000     0.40239    0.00436     0.40675
      H   22    0.09563      0.00000     0.40242    0.00195     0.40437
      H   23    0.10158      0.00000     0.39717    0.00124     0.39842
      H   24    0.19539      0.00000     0.30161    0.00300     0.30461
      H   25    0.09997      0.00000     0.39862    0.00140     0.40003
      H   26    0.10721      0.00000     0.39147    0.00132     0.39279
      H   27    0.09683      0.00000     0.40229    0.00087     0.40317
      H   28    0.09332      0.00000     0.40552    0.00117     0.40668
      H   29    0.09396      0.00000     0.40472    0.00132     0.40604
      H   30    0.09819      0.00000     0.40057    0.00124     0.40181
      H   31    0.10555      0.00000     0.39260    0.00186     0.39445
      H   32    0.10669      0.00000     0.39177    0.00154     0.39331
      H   33    0.20250      0.00000     0.29492    0.00259     0.29750
 =======================================================================
   * Total *    0.00000     15.99406    43.80512    0.20083    60.00000

 Normal termination of Gaussian 16 at Thu Dec 10 22:45:17 2020.
