 Gaussian 16, Revision A.03,

 -----------------------------------------------------------
 # opt freq B3LYP/6-31G(d) empiricaldispersion=gd3bj scf=xqc
 -----------------------------------------------------------

 -----------------------------
 CID_13708428_JID_838_neutraal
 -----------------------------
 Symbolic Z-matrix:
 Charge =  0 Multiplicity = 1

 SCF Done:  E(RB3LYP) =  -870.745255545     A.U. after   15 cycles
 SCF Done:  E(RB3LYP) =  -870.749087144     A.U. after   15 cycles
 SCF Done:  E(RB3LYP) =  -870.750687654     A.U. after   15 cycles
 SCF Done:  E(RB3LYP) =  -870.753120722     A.U. after   15 cycles
 SCF Done:  E(RB3LYP) =  -870.753582594     A.U. after   14 cycles
 SCF Done:  E(RB3LYP) =  -870.752676420     A.U. after   15 cycles
 SCF Done:  E(RB3LYP) =  -870.756056634     A.U. after   12 cycles
 SCF Done:  E(RB3LYP) =  -870.757214851     A.U. after   12 cycles
 SCF Done:  E(RB3LYP) =  -870.757431691     A.U. after   12 cycles
 SCF Done:  E(RB3LYP) =  -870.757451478     A.U. after   12 cycles
 SCF Done:  E(RB3LYP) =  -870.758262846     A.U. after    8 cycles
 SCF Done:  E(RB3LYP) =  -870.758263302     A.U. after   10 cycles
 SCF Done:  E(RB3LYP) =  -870.758264242     A.U. after   10 cycles
 SCF Done:  E(RB3LYP) =  -870.758264407     A.U. after    9 cycles
 SCF Done:  E(RB3LYP) =  -870.758264532     A.U. after    9 cycles
 SCF Done:  E(RB3LYP) =  -870.758264561     A.U. after    8 cycles
 Optimization completed.
    -- Stationary point found.
 Normal termination of Gaussian 16 at Tue Dec  8 13:37:23 2020.

 --------------------------------------------------------------------
 #N Geom=AllCheck Guess=TCheck SCRF=Check GenChk RB3LYP/6-31G(d) Freq
 --------------------------------------------------------------------

 Structure from the checkpoint file:  "JID_838.chk"
 -----------------------------
 CID_13708428_JID_838_neutraal
 -----------------------------
 Charge =  0 Multiplicity = 1

 SCF Done:  E(RB3LYP) =  -870.758264561     A.U. after    1 cycles

  Exact polarizability: 101.770   0.659  68.843  -3.327   8.612  79.919
 Approx polarizability: 142.449   0.505 106.799  -7.837  24.137 140.972

                      1                      2                      3
                      A                      A                      A
 Frequencies --      9.2198                54.5364                80.0992
 Red. masses --      8.0429                 5.1675                 3.6143
 Frc consts  --      0.0004                 0.0091                 0.0137
 IR Inten    --      2.1823                 1.1825                 0.1456

                      4                      5                      6
                      A                      A                      A
 Frequencies --    114.6579               175.2427               180.8337
 Red. masses --      5.2128                 6.4753                 4.3582
 Frc consts  --      0.0404                 0.1172                 0.0840
 IR Inten    --      1.3508                 2.0579                 2.2631

                      7                      8                      9
                      A                      A                      A
 Frequencies --    218.0628               265.3000               338.3725
 Red. masses --      5.8773                 2.7122                 3.2664
 Frc consts  --      0.1647                 0.1125                 0.2203
 IR Inten    --      1.7659                 1.5131                11.5613

                     10                     11                     12
                      A                      A                      A
 Frequencies --    378.5090               404.7508               429.1401
 Red. masses --      1.9450                 1.4567                 2.0756
 Frc consts  --      0.1642                 0.1406                 0.2252
 IR Inten    --     15.7058                59.3883                10.8988

                     13                     14                     15
                      A                      A                      A
 Frequencies --    458.7604               489.3667               566.6202
 Red. masses --      3.3436                 3.1028                 1.6596
 Frc consts  --      0.4146                 0.4378                 0.3139
 IR Inten    --     11.1633                17.0386               103.0685

                     16                     17                     18
                      A                      A                      A
 Frequencies --    620.9826               631.2685               650.2883
 Red. masses --      2.9774                 2.3252                 2.0082
 Frc consts  --      0.6765                 0.5459                 0.5003
 IR Inten    --    103.6409                75.8591                26.0363

                     19                     20                     21
                      A                      A                      A
 Frequencies --    669.8119               745.5910               804.9392
 Red. masses --      3.6661                 3.5789                 4.0198
 Frc consts  --      0.9691                 1.1722                 1.5346
 IR Inten    --     70.1962                26.2748                47.2732

                     22                     23                     24
                      A                      A                      A
 Frequencies --    836.0417               883.4827               906.8745
 Red. masses --      2.3105                 1.1241                 2.0473
 Frc consts  --      0.9515                 0.5170                 0.9920
 IR Inten    --     10.2327               140.4624               110.7309

                     25                     26                     27
                      A                      A                      A
 Frequencies --    949.0446               979.5680              1120.0326
 Red. masses --      2.0815                 1.8356                 2.4602
 Frc consts  --      1.1046                 1.0377                 1.8184
 IR Inten    --    160.5305                21.2138                20.6617

                     28                     29                     30
                      A                      A                      A
 Frequencies --   1124.8232              1165.7004              1174.8729
 Red. masses --      2.5200                 2.3601                 1.3288
 Frc consts  --      1.8785                 1.8895                 1.0806
 IR Inten    --     14.1599               314.2019                94.9908

                     31                     32                     33
                      A                      A                      A
 Frequencies --   1220.9889              1262.0837              1298.8693
 Red. masses --      1.1829                 1.3270                 1.3377
 Frc consts  --      1.0390                 1.2454                 1.3297
 IR Inten    --     17.4536                 6.3892                 5.6271

                     34                     35                     36
                      A                      A                      A
 Frequencies --   1343.7934              1386.8859              1410.6170
 Red. masses --      1.7951                 1.5594                 1.2739
 Frc consts  --      1.9099                 1.7673                 1.4936
 IR Inten    --    202.0475                47.8746                11.7617

                     37                     38                     39
                      A                      A                      A
 Frequencies --   1434.1242              1507.3136              1643.4065
 Red. masses --      1.5241                 1.0961                 1.1861
 Frc consts  --      1.8469                 1.4673                 1.8873
 IR Inten    --     28.4924                 4.3068                71.3499

                     40                     41                     42
                      A                      A                      A
 Frequencies --   1707.5378              1747.6309              1827.9241
 Red. masses --      1.1842                 4.4867                 9.4237
 Frc consts  --      2.0343                 8.0738                18.5518
 IR Inten    --     36.0027               142.2503               232.1547

                     43                     44                     45
                      A                      A                      A
 Frequencies --   3038.6134              3094.7398              3110.8035
 Red. masses --      1.0672                 1.0852                 1.0976
 Frc consts  --      5.8054                 6.1234                 6.2579
 IR Inten    --     39.0197                 3.0363                13.6256

                     46                     47                     48
                      A                      A                      A
 Frequencies --   3501.1094              3527.2020              3555.7209
 Red. masses --      1.0502                 1.0745                 1.0483
 Frc consts  --      7.5846                 7.8765                 7.8087
 IR Inten    --      3.8830                88.8266                21.6735

                     49                     50                     51
                      A                      A                      A
 Frequencies --   3586.0299              3675.6945              3681.7008
 Red. masses --      1.0929                 1.0640                 1.0996
 Frc consts  --      8.2802                 8.4696                 8.7814
 IR Inten    --      8.3611                58.6990                27.5306

 - Thermochemistry -
 -------------------
 Temperature   298.150 Kelvin.  Pressure   1.00000 Atm.
 Atom     1 has atomic number  6 and mass  12.00000

 Molecular mass:   163.04155 amu.
 Principal axes and moments of inertia in atomic units:
                           1         2         3
     Eigenvalues --  1055.530012187.702882292.65602
           X            0.99999  -0.00012  -0.00398
           Y            0.00034   0.99841   0.05644
           Z            0.00397  -0.05645   0.99840
 This molecule is an asymmetric top.
 Rotational symmetry number  1.
 Warning -- assumption of classical behavior for rotation
           may cause significant error
 Rotational temperatures (Kelvin)      0.08206     0.03959     0.03778
 Rotational constants (GHZ):           1.70980     0.82495     0.78718
 Zero-point vibrational energy     394705.4 (Joules/Mol)
                                   94.33685 (Kcal/Mol)
 Warning -- explicit consideration of  15 degrees of freedom as
           vibrations may cause significant error
 Vibrational temperatures:     13.27    78.47   115.24   164.97   252.14
          (Kelvin)            260.18   313.74   381.71   486.84   544.59
                              582.35   617.44   660.05   704.09   815.24
                              893.46   908.25   935.62   963.71  1072.74
                             1158.13  1202.88  1271.13  1304.79  1365.46
                             1409.38  1611.48  1618.37  1677.18  1690.38
                             1756.73  1815.86  1868.78  1933.42  1995.42
                             2029.56  2063.38  2168.69  2364.50  2456.77
                             2514.45  2629.98  4371.89  4452.64  4475.75
                             5037.32  5074.86  5115.89  5159.50  5288.50
                             5297.15

 Zero-point correction=                           0.150335 (Hartree/Particle)
 Thermal correction to Energy=                    0.161701
 Thermal correction to Enthalpy=                  0.162646
 Thermal correction to Gibbs Free Energy=         0.111077
 Sum of electronic and zero-point Energies=           -870.607929
 Sum of electronic and thermal Energies=              -870.596563
 Sum of electronic and thermal Enthalpies=            -870.595619
 Sum of electronic and thermal Free Energies=         -870.647188

                     E (Thermal)             CV                S
                      KCal/Mol        Cal/Mol-Kelvin    Cal/Mol-Kelvin
 Total                  101.469             40.536            108.536
 Electronic               0.000              0.000              0.000
 Translational            0.889              2.981             41.175
 Rotational               0.889              2.981             30.050
 Vibrational             99.692             34.575             37.311
 Vibration     1          0.593              1.987              8.172
 Vibration     2          0.596              1.976              4.646
 Vibration     3          0.600              1.963              3.888
 Vibration     4          0.608              1.937              3.188
 Vibration     5          0.627              1.873              2.378
 Vibration     6          0.630              1.866              2.320
 Vibration     7          0.646              1.814              1.975
 Vibration     8          0.671              1.737              1.627
 Vibration     9          0.719              1.599              1.220
 Vibration    10          0.749              1.516              1.045
 Vibration    11          0.770              1.460              0.945
 Vibration    12          0.790              1.407              0.861
 Vibration    13          0.817              1.342              0.770
 Vibration    14          0.845              1.274              0.685
 Vibration    15          0.923              1.103              0.511

 Optimization completed.
    -- Stationary point found.
 Normal termination of Gaussian 16 at Tue Dec  8 13:41:54 2020.

 ----------------------------------------------------------------------
 # B3LYP/6-311++G(d,p) empiricaldispersion=gd3bj scf=xqc pop=npa geom=c
 heck
 ----------------------------------------------------------------------

 -------------------------------------
 CID_13708428_JID_838_Energie_neutraal
 -------------------------------------
 Structure from the checkpoint file:  "JID_838.chk"
 Charge =  0 Multiplicity = 1

 SCF Done:  E(RB3LYP) =  -870.952220125     A.U. after   14 cycles
 Normal termination of Gaussian 16 at Tue Dec  8 13:45:04 2020.

 ----------------------------------------------------------------------
 # B3LYP/6-311++G(d,p) empiricaldispersion=gd3bj scf=xqc pop=npa geom=c
 heck
 ----------------------------------------------------------------------

 -----------------------------------
 CID_13708428_JID_838_Energie_kation
 -----------------------------------
 Structure from the checkpoint file:  "JID_838.chk"
 Charge =  1 Multiplicity = 2

 SCF Done:  E(UB3LYP) =  -870.637423483     A.U. after   26 cycles
 Normal termination of Gaussian 16 at Tue Dec  8 13:51:52 2020.
 Gaussian 16:  ES64L-G16RevA.03 25-Dec-2016

 ----------------------------------------------------------------------
 # B3LYP/6-311++G(d,p) empiricaldispersion=gd3bj scf=xqc pop=npa geom=c
 heck
 ----------------------------------------------------------------------

 ----------------------------------
 CID_13708428_JID_838_Energie_anion
 ----------------------------------
 Structure from the checkpoint file:  "JID_838.chk"
 Charge = -1 Multiplicity = 2

                         Standard orientation:
 ---------------------------------------------------------------------
 Center     Atomic      Atomic             Coordinates (Angstroms)
 Number     Number       Type             X           Y           Z
 ---------------------------------------------------------------------
      1          6           0       -0.660627    1.781702    0.086389
      2          6           0       -0.851894    0.381511    0.758913
      3          6           0       -1.742591   -0.491926   -0.099841
      4          8           0       -1.404579   -1.200292   -1.025822
      5          8           0       -3.040740   -0.330526    0.243818
      6         16           0        0.686895   -0.446963    1.320413
      7          6           0        1.766391   -0.522391   -0.176590
      8          7           0        1.542985   -1.118396   -1.270847
      9          7           0        2.933875    0.191544    0.037057
     10          7           0        0.085473    1.866352   -1.148475
     11          1           0       -0.177201    2.424746    0.828264
     12          1           0       -1.672060    2.179298   -0.075166
     13          1           0       -1.380676    0.554258    1.701372
     14          1           0       -3.561438   -0.865935   -0.385294
     15          1           0        0.615225   -1.539025   -1.288619
     16          1           0        3.195267    0.384098    0.993523
     17          1           0        3.695563   -0.074344   -0.577213
     18          1           0        1.074544    1.699397   -0.985279
     19          1           0       -0.220992    1.165582   -1.819539
 ---------------------------------------------------------------------

 SCF Done:  E(UB3LYP) =  -870.942195129     A.U. after   32 cycles

 The electronic state is 2-A.
 Alpha  occ. eigenvalues --  -88.74811 -19.06718 -19.01671 -14.22856 -14.19036
 Alpha  occ. eigenvalues --  -14.17237 -10.20588 -10.16264 -10.11873 -10.10574
 Alpha  occ. eigenvalues --   -7.83440  -5.79837  -5.79472  -5.78804  -1.01055
 Alpha  occ. eigenvalues --   -0.92152  -0.85143  -0.78997  -0.75481  -0.70131
 Alpha  occ. eigenvalues --   -0.60965  -0.55579  -0.50213  -0.47081  -0.43357
 Alpha  occ. eigenvalues --   -0.41465  -0.39789  -0.38357  -0.36663  -0.35565
 Alpha  occ. eigenvalues --   -0.33489  -0.32461  -0.31273  -0.29554  -0.27956
 Alpha  occ. eigenvalues --   -0.27255  -0.23669  -0.22479  -0.19353  -0.16995
 Alpha  occ. eigenvalues --   -0.15548  -0.14595  -0.12939   0.04529
 Alpha virt. eigenvalues --    0.06084   0.07429   0.08307   0.09558   0.10033
 Alpha virt. eigenvalues --    0.10895   0.11498   0.11530   0.12600   0.13615
 Alpha virt. eigenvalues --    0.14515   0.15153   0.15876   0.16408   0.17033

  Beta  occ. eigenvalues --  -88.74795 -19.06641 -19.01629 -14.22807 -14.19029
  Beta  occ. eigenvalues --  -14.17213 -10.20520 -10.16234 -10.11833 -10.10547
  Beta  occ. eigenvalues --   -7.83425  -5.79803  -5.79458  -5.78785  -1.00924
  Beta  occ. eigenvalues --   -0.92042  -0.85078  -0.78972  -0.75413  -0.70031
  Beta  occ. eigenvalues --   -0.60838  -0.55441  -0.50069  -0.46973  -0.43284
  Beta  occ. eigenvalues --   -0.41378  -0.39720  -0.38295  -0.36490  -0.35512
  Beta  occ. eigenvalues --   -0.33422  -0.32326  -0.31195  -0.29466  -0.27851
  Beta  occ. eigenvalues --   -0.27189  -0.23537  -0.22315  -0.19281  -0.16920
  Beta  occ. eigenvalues --   -0.15461  -0.14537  -0.12876
  Beta virt. eigenvalues --    0.07112   0.07612   0.08326   0.09140   0.10019
  Beta virt. eigenvalues --    0.10689   0.11259   0.11737   0.11858   0.12814
  Beta virt. eigenvalues --    0.13856   0.14492   0.15313   0.16052   0.16529

 Mulliken charges and spin densities:
               1          2
     1  C   -0.063446  -0.481336
     2  C    0.921287  -0.555429
     3  C   -0.060220  -0.235837
     4  O   -0.302345  -0.017908
     5  O   -0.157337   0.033714
     6  S    0.781924  -0.923870
     7  C   -0.481889   0.076482
     8  N   -0.244808  -0.069578
     9  N   -0.135850   0.005151
    10  N   -0.325334  -0.052161
    11  H   -0.260476   0.433453
    12  H   -0.001409   0.173286
    13  H   -0.527025   0.873319
    14  H   -0.586324   0.882533
    15  H    0.241908   0.023800
    16  H   -0.168298   0.418563
    17  H   -0.130022   0.386926
    18  H    0.278346   0.012283
    19  H    0.221319   0.016608
 Sum of Mulliken charges =  -1.00000   1.00000

 Dipole moment (field-independent basis, Debye):
    X=              2.1048    Y=              0.1112    Z=             -0.3382  Tot=              2.1347
 Quadrupole moment (field-independent basis, Debye-Ang):
   XX=           -127.7763   YY=            -98.0671   ZZ=            -97.0211
   XY=             -4.6034   XZ=              2.5862   YZ=             -3.7019

 Summary of Natural Population Analysis:

                                       Natural Population
                Natural  -----------------------------------------------
    Atom  No    Charge         Core      Valence    Rydberg      Total
 -----------------------------------------------------------------------
      C    1   -0.08735      0.99961     2.07430    0.01344     3.08735
      C    2   -0.21808      0.99949     2.20275    0.01584     3.21808
      C    3    0.41216      0.99964     1.56166    0.02653     2.58784
      O    4   -0.31683      0.99986     3.30999    0.00699     4.31683
      O    5   -0.33981      0.99988     3.33259    0.00734     4.33981
      S    6    0.08280      4.99954     2.90088    0.01678     7.91720
      C    7    0.14992      0.99965     1.82531    0.02513     2.85008
      N    8   -0.35930      0.99966     2.84717    0.01248     3.85930
      N    9   -0.41049      0.99969     2.89813    0.01267     3.91049
      N   10   -0.41973      0.99977     2.91079    0.00917     3.91973
      H   11    0.09941      0.00000     0.39907    0.00152     0.40059
      H   12    0.09553      0.00000     0.40312    0.00135     0.40447
      H   13    0.12647      0.00000     0.37017    0.00336     0.37353
      H   14    0.24602      0.00000     0.22818    0.02580     0.25398
      H   15    0.19083      0.00000     0.30698    0.00219     0.30917
      H   16    0.19528      0.00000     0.30118    0.00354     0.30472
      H   17    0.19251      0.00000     0.30444    0.00305     0.30749
      H   18    0.18231      0.00000     0.31470    0.00299     0.31769
      H   19    0.17836      0.00000     0.31928    0.00236     0.32164
 =======================================================================
   * Total *    0.00000     13.99679    28.81068    0.19253    43.00000

 Normal termination of Gaussian 16 at Tue Dec  8 14:01:19 2020.
