 Gaussian 16, Revision A.03,

 -----------------------------------------------------------
 # opt freq B3LYP/6-31G(d) empiricaldispersion=gd3bj scf=xqc
 -----------------------------------------------------------

 ------------------------------
 CID_19377134_JID_7400_neutraal
 ------------------------------
 Symbolic Z-matrix:
 Charge =  0 Multiplicity = 1

 SCF Done:  E(RB3LYP) =  -1121.40168401     A.U. after   15 cycles
 SCF Done:  E(RB3LYP) =  -1121.40756206     A.U. after   12 cycles
 SCF Done:  E(RB3LYP) =  -1121.40831084     A.U. after   12 cycles
 SCF Done:  E(RB3LYP) =  -1121.40846529     A.U. after   10 cycles
 SCF Done:  E(RB3LYP) =  -1121.40851226     A.U. after   10 cycles
 SCF Done:  E(RB3LYP) =  -1121.40853055     A.U. after   10 cycles
 SCF Done:  E(RB3LYP) =  -1121.40853579     A.U. after   10 cycles
 SCF Done:  E(RB3LYP) =  -1121.40853983     A.U. after    9 cycles
 SCF Done:  E(RB3LYP) =  -1121.40860522     A.U. after   12 cycles
 SCF Done:  E(RB3LYP) =  -1121.36727147     A.U. after   14 cycles
 SCF Done:  E(RB3LYP) =  -1121.41631335     A.U. after   12 cycles
 SCF Done:  E(RB3LYP) =  -1121.41635075     A.U. after   12 cycles
 SCF Done:  E(RB3LYP) =  -1121.41635696     A.U. after   10 cycles
 SCF Done:  E(RB3LYP) =  -1121.41635741     A.U. after    8 cycles
 SCF Done:  E(RB3LYP) =  -1121.41635745     A.U. after    7 cycles
 Optimization completed.
    -- Stationary point found.
 Normal termination of Gaussian 16 at Fri Dec 11 12:09:12 2020.

 --------------------------------------------------------------------
 #N Geom=AllCheck Guess=TCheck SCRF=Check GenChk RB3LYP/6-31G(d) Freq
 --------------------------------------------------------------------

 Structure from the checkpoint file:  "JID_7400.chk"
 ------------------------------
 CID_19377134_JID_7400_neutraal
 ------------------------------
 Charge =  0 Multiplicity = 1

 SCF Done:  E(RB3LYP) =  -1121.41635745     A.U. after    1 cycles

  Exact polarizability: 229.637  -5.009 128.510 -12.523  21.923 131.906
 Approx polarizability: 303.403  -7.548 213.780 -28.675  45.216 254.351

                      1                      2                      3
                      A                      A                      A
 Frequencies --     23.4452                28.4045                36.7105
 Red. masses --      4.9767                 4.6719                 4.9233
 Frc consts  --      0.0016                 0.0022                 0.0039
 IR Inten    --      1.5847                 1.0902                 0.3605

                      4                      5                      6
                      A                      A                      A
 Frequencies --     89.4881               103.4170               149.7884
 Red. masses --      6.1594                 5.2718                 5.5284
 Frc consts  --      0.0291                 0.0332                 0.0731
 IR Inten    --      0.6403                 0.8445                 2.0447

                      7                      8                      9
                      A                      A                      A
 Frequencies --    178.4962               219.5256               249.5967
 Red. masses --      7.3444                 8.3551                 5.4588
 Frc consts  --      0.1379                 0.2372                 0.2004
 IR Inten    --      2.8181                 1.0721                 2.2072

                     10                     11                     12
                      A                      A                      A
 Frequencies --    292.1724               305.3121               335.1622
 Red. masses --      3.0579                 9.2719                 7.2159
 Frc consts  --      0.1538                 0.5092                 0.4776
 IR Inten    --      9.1212                 4.5006                 1.2238

                     13                     14                     15
                      A                      A                      A
 Frequencies --    383.5365               403.9496               416.0713
 Red. masses --      5.8476                 3.3530                 2.9600
 Frc consts  --      0.5068                 0.3224                 0.3019
 IR Inten    --      5.5217                 1.3438                 0.1601

                     16                     17                     18
                      A                      A                      A
 Frequencies --    453.7592               490.1598               522.7186
 Red. masses --      6.7195                 4.4670                 5.3090
 Frc consts  --      0.8151                 0.6323                 0.8547
 IR Inten    --     28.9177                26.2708                 3.7268

                     19                     20                     21
                      A                      A                      A
 Frequencies --    540.8525               578.2798               628.4586
 Red. masses --      7.3851                10.0584                 7.8292
 Frc consts  --      1.2728                 1.9818                 1.8219
 IR Inten    --     57.3909                60.8023                 9.0489

                     22                     23                     24
                      A                      A                      A
 Frequencies --    633.3046               649.7807               703.1121
 Red. masses --      6.4998                 8.4347                 1.9208
 Frc consts  --      1.5360                 2.0982                 0.5595
 IR Inten    --      1.1862               119.9758                22.4235

                     25                     26                     27
                      A                      A                      A
 Frequencies --    716.2447               749.2608               774.2675
 Red. masses --      2.3480                 7.9716                 2.8016
 Frc consts  --      0.7097                 2.6367                 0.9896
 IR Inten    --     25.9430                25.5474               147.2125

                     28                     29                     30
                      A                      A                      A
 Frequencies --    782.7121               820.1584               864.8154
 Red. masses --      2.8213                 1.5405                 1.2502
 Frc consts  --      1.0184                 0.6105                 0.5509
 IR Inten    --    205.4141                 4.2580                 0.0102

                     31                     32                     33
                      A                      A                      A
 Frequencies --    883.1418               945.8858               957.5344
 Red. masses --      4.4120                 1.3455                 1.3340
 Frc consts  --      2.0274                 0.7093                 0.7206
 IR Inten    --     13.8366                 1.9514                 0.0598

                     34                     35                     36
                      A                      A                      A
 Frequencies --    983.1703               983.6830              1004.8939
 Red. masses --      1.3582                 1.3559                 1.4003
 Frc consts  --      0.7735                 0.7730                 0.8331
 IR Inten    --      0.1542                 0.1302                 0.1883

                     37                     38                     39
                      A                      A                      A
 Frequencies --   1009.5854              1021.2884              1037.1908
 Red. masses --      1.2835                 6.2213                 5.1121
 Frc consts  --      0.7708                 3.8232                 3.2402
 IR Inten    --      0.0739                 1.9273                18.5355

                     40                     41                     42
                      A                      A                      A
 Frequencies --   1053.0808              1056.1489              1066.6468
 Red. masses --      1.5480                 2.1347                 3.5931
 Frc consts  --      1.0115                 1.4029                 2.4086
 IR Inten    --      6.7824                 3.4824                 5.0089

                     43                     44                     45
                      A                      A                      A
 Frequencies --   1102.2140              1116.8186              1144.3661
 Red. masses --      4.3868                 1.5688                 1.8295
 Frc consts  --      3.1400                 1.1529                 1.4116
 IR Inten    --    139.8709                 6.1535                46.9241

                     46                     47                     48
                      A                      A                      A
 Frequencies --   1162.7667              1197.3136              1209.4657
 Red. masses --      2.6742                 1.1033                 1.1403
 Frc consts  --      2.1302                 0.9319                 0.9828
 IR Inten    --     72.0027                 1.3613                17.6784

                     49                     50                     51
                      A                      A                      A
 Frequencies --   1235.1533              1263.4371              1306.6594
 Red. masses --      1.3967                 2.5514                 8.6585
 Frc consts  --      1.2554                 2.3996                 8.7100
 IR Inten    --     17.0688                37.9635                29.5402

                     52                     53                     54
                      A                      A                      A
 Frequencies --   1321.5069              1352.8465              1367.5470
 Red. masses --     11.4648                 1.8965                 1.2993
 Frc consts  --     11.7965                 2.0450                 1.4317
 IR Inten    --    103.8307                17.4980                 1.8240

                     55                     56                     57
                      A                      A                      A
 Frequencies --   1374.8585              1421.6401              1464.8209
 Red. masses --      3.0678                 1.4311                 2.2166
 Frc consts  --      3.4166                 1.7041                 2.8022
 IR Inten    --      3.5782                19.9090                31.7640

                     58                     59                     60
                      A                      A                      A
 Frequencies --   1499.5658              1513.6307              1545.7775
 Red. masses --      2.2753                 2.0420                 2.2826
 Frc consts  --      3.0145                 2.7564                 3.2135
 IR Inten    --     28.7300                 5.6462                 0.4803

                     61                     62                     63
                      A                      A                      A
 Frequencies --   1629.7066              1632.3119              1633.6489
 Red. masses --      5.3932                 5.6333                 5.5933
 Frc consts  --      8.4394                 8.8435                 8.7950
 IR Inten    --     37.3961                31.7445               100.0399

                     64                     65                     66
                      A                      A                      A
 Frequencies --   1661.1676              1676.2642              3090.7771
 Red. masses --      5.4838                 6.5361                 1.0878
 Frc consts  --      8.9158                10.8206                 6.1224
 IR Inten    --    140.0897               200.2886                 6.7004

                     67                     68                     69
                      A                      A                      A
 Frequencies --   3182.8389              3188.6575              3195.4865
 Red. masses --      1.0895                 1.0868                 1.0884
 Frc consts  --      6.5030                 6.5106                 6.5481
 IR Inten    --     19.8731                 2.0939                 1.3740

                     70                     71                     72
                      A                      A                      A
 Frequencies --   3206.8022              3211.5811              3216.3329
 Red. masses --      1.0917                 1.0912                 1.0916
 Frc consts  --      6.6143                 6.6315                 6.6530
 IR Inten    --     17.5721                 2.5964                12.0472

                     73                     74                     75
                      A                      A                      A
 Frequencies --   3216.8789              3228.1339              3232.9988
 Red. masses --      1.0963                 1.0943                 1.0955
 Frc consts  --      6.6845                 6.7187                 6.7464
 IR Inten    --     21.1635                 4.9891                 3.8777

 - Thermochemistry -
 -------------------
 Temperature   298.150 Kelvin.  Pressure   1.00000 Atm.
 Atom     1 has atomic number  6 and mass  12.00000

 Molecular mass:   246.04630 amu.
 Principal axes and moments of inertia in atomic units:
                           1         2         3
     Eigenvalues --  2173.369288468.960169148.47638
           X            0.99998  -0.00392  -0.00450
           Y            0.00421   0.99781   0.06597
           Z            0.00423  -0.06599   0.99781
 This molecule is an asymmetric top.
 Rotational symmetry number  1.
 Warning -- assumption of classical behavior for rotation
           may cause significant error
 Rotational temperatures (Kelvin)      0.03985     0.01023     0.00947
 Rotational constants (GHZ):           0.83039     0.21310     0.19727
 Zero-point vibrational energy     531914.7 (Joules/Mol)
                                  127.13065 (Kcal/Mol)
 Warning -- explicit consideration of  20 degrees of freedom as
           vibrations may cause significant error
 Vibrational temperatures:     33.73    40.87    52.82   128.75   148.79
          (Kelvin)            215.51   256.82   315.85   359.11   420.37
                              439.28   482.22   551.82   581.19   598.63
                              652.86   705.23   752.08   778.17   832.02
                              904.21   911.18   934.89  1011.62  1030.52
                             1078.02  1114.00  1126.15  1180.02  1244.28
                             1270.64  1360.92  1377.68  1414.56  1415.30
                             1445.82  1452.57  1469.41  1492.29  1515.15
                             1519.56  1534.67  1585.84  1606.85  1646.49
                             1672.96  1722.67  1740.15  1777.11  1817.80
                             1879.99  1901.35  1946.44  1967.60  1978.11
                             2045.42  2107.55  2157.54  2177.78  2224.03
                             2344.78  2348.53  2350.46  2390.05  2411.77
                             4446.94  4579.40  4587.77  4597.59  4613.87
                             4620.75  4627.59  4628.37  4644.56  4651.56

 Zero-point correction=                           0.202596 (Hartree/Particle)
 Thermal correction to Energy=                    0.216742
 Thermal correction to Enthalpy=                  0.217687
 Thermal correction to Gibbs Free Energy=         0.158781
 Sum of electronic and zero-point Energies=          -1121.213762
 Sum of electronic and thermal Energies=             -1121.199615
 Sum of electronic and thermal Enthalpies=           -1121.198671
 Sum of electronic and thermal Free Energies=        -1121.257576

                     E (Thermal)             CV                S
                      KCal/Mol        Cal/Mol-Kelvin    Cal/Mol-Kelvin
 Total                  136.008             53.943            123.976
 Electronic               0.000              0.000              0.000
 Translational            0.889              2.981             42.402
 Rotational               0.889              2.981             33.487
 Vibrational            134.230             47.982             48.087
 Vibration     1          0.593              1.985              6.319
 Vibration     2          0.593              1.984              5.938
 Vibration     3          0.594              1.982              5.429
 Vibration     4          0.602              1.957              3.671
 Vibration     5          0.605              1.946              3.389
 Vibration     6          0.618              1.903              2.675
 Vibration     7          0.629              1.869              2.344
 Vibration     8          0.647              1.811              1.963
 Vibration     9          0.662              1.763              1.733
 Vibration    10          0.688              1.688              1.461
 Vibration    11          0.696              1.664              1.388
 Vibration    12          0.716              1.605              1.235
 Vibration    13          0.753              1.505              1.025
 Vibration    14          0.769              1.462              0.948
 Vibration    15          0.779              1.435              0.905
 Vibration    16          0.812              1.353              0.784
 Vibration    17          0.846              1.272              0.683
 Vibration    18          0.878              1.200              0.604
 Vibration    19          0.896              1.160              0.563
 Vibration    20          0.935              1.078              0.489

 Optimization completed.
    -- Stationary point found.
 Normal termination of Gaussian 16 at Fri Dec 11 12:17:29 2020.

 ----------------------------------------------------------------------
 # B3LYP/6-311++G(d,p) empiricaldispersion=gd3bj scf=xqc pop=npa geom=c
 heck
 ----------------------------------------------------------------------

 --------------------------------------
 CID_19377134_JID_7400_Energie_neutraal
 --------------------------------------
 Structure from the checkpoint file:  "JID_7400.chk"
 Charge =  0 Multiplicity = 1

 SCF Done:  E(RB3LYP) =  -1121.63273006     A.U. after   16 cycles
 Normal termination of Gaussian 16 at Fri Dec 11 12:20:44 2020.

 ----------------------------------------------------------------------
 # B3LYP/6-311++G(d,p) empiricaldispersion=gd3bj scf=xqc pop=npa geom=c
 heck
 ----------------------------------------------------------------------

 ------------------------------------
 CID_19377134_JID_7400_Energie_kation
 ------------------------------------
 Structure from the checkpoint file:  "JID_7400.chk"
 Charge =  1 Multiplicity = 2

 SCF Done:  E(UB3LYP) =  -1121.30105163     A.U. after   33 cycles
 SCF Done:  E(UB3LYP) =  -1121.30105163     a.u. after    1 cycles
 Normal termination of Gaussian 16 at Fri Dec 11 12:29:36 2020.
 Gaussian 16:  ES64L-G16RevA.03 25-Dec-2016

 ----------------------------------------------------------------------
 # B3LYP/6-311++G(d,p) empiricaldispersion=gd3bj scf=xqc pop=npa geom=c
 heck
 ----------------------------------------------------------------------

 -----------------------------------
 CID_19377134_JID_7400_Energie_anion
 -----------------------------------
 Structure from the checkpoint file:  "JID_7400.chk"
 Charge = -1 Multiplicity = 2

                         Standard orientation:
 ---------------------------------------------------------------------
 Center     Atomic      Atomic             Coordinates (Angstroms)
 Number     Number       Type             X           Y           Z
 ---------------------------------------------------------------------
      1          6           0        5.074000    1.135786    0.015799
      2          6           0        4.068942    1.500705    0.919329
      3          6           0        2.821998    0.892268    0.857908
      4          6           0        2.568720   -0.090953   -0.114167
      5          6           0        3.581327   -0.453213   -1.015331
      6          6           0        4.830564    0.159079   -0.950908
      7          6           0        1.269634   -0.749171   -0.213463
      8          7           0        0.289312   -0.445999    0.562507
      9         16           0       -1.141713   -1.361573    0.322642
     10          8           0       -1.052553   -2.193283   -0.887310
     11          8           0       -1.468585   -1.957964    1.618865
     12          6           0       -2.292068   -0.036271    0.002428
     13          6           0       -2.693324    0.244218   -1.304419
     14          7           0       -3.548712    1.229867   -1.596725
     15          6           0       -4.021857    1.956363   -0.576343
     16          6           0       -3.682155    1.740574    0.762053
     17          6           0       -2.792938    0.714823    1.064697
     18          1           0        6.047950    1.613880    0.068523
     19          1           0        4.264935    2.259706    1.670789
     20          1           0        2.030437    1.157936    1.550368
     21          1           0        3.382411   -1.215496   -1.764195
     22          1           0        5.611186   -0.124011   -1.650356
     23          1           0        1.158815   -1.515305   -0.989606
     24          1           0       -2.317984   -0.353034   -2.130498
     25          1           0       -4.713866    2.752763   -0.842806
     26          1           0       -4.109886    2.360021    1.543662
     27          1           0       -2.498739    0.486363    2.083432
 ---------------------------------------------------------------------

 SCF Done:  E(UB3LYP) =  -1121.67587824     A.U. after   24 cycles

 The electronic state is 2-A.
 Alpha  occ. eigenvalues --  -88.92546 -18.98875 -18.98549 -14.21174 -14.17586
 Alpha  occ. eigenvalues --  -10.10818 -10.10477 -10.09478 -10.09138 -10.08696
 Alpha  occ. eigenvalues --  -10.06851 -10.05893 -10.05876 -10.05481 -10.05276
 Alpha  occ. eigenvalues --  -10.05259 -10.04671  -7.98713  -5.95011  -5.94909
 Alpha  occ. eigenvalues --   -5.94840  -0.98510  -0.87878  -0.84545  -0.78712
 Alpha  occ. eigenvalues --   -0.73583  -0.71335  -0.67298  -0.64024  -0.63055
 Alpha  occ. eigenvalues --   -0.57599  -0.53481  -0.52728  -0.49470  -0.48325
 Alpha  occ. eigenvalues --   -0.44321  -0.42357  -0.39663  -0.39173  -0.38945
 Alpha  occ. eigenvalues --   -0.37041  -0.34829  -0.34503  -0.32910  -0.32203
 Alpha  occ. eigenvalues --   -0.30862  -0.30834  -0.30541  -0.29838  -0.28157
 Alpha  occ. eigenvalues --   -0.26577  -0.23782  -0.23480  -0.22477  -0.22145
 Alpha  occ. eigenvalues --   -0.20278  -0.19865  -0.19037  -0.17868  -0.17160
 Alpha  occ. eigenvalues --   -0.16052  -0.14412  -0.14073  -0.13048   0.01074
 Alpha virt. eigenvalues --    0.05756   0.07107   0.07347   0.07697   0.09164
 Alpha virt. eigenvalues --    0.09676   0.10001   0.10262   0.11144   0.11942
 Alpha virt. eigenvalues --    0.12844   0.13354   0.13747   0.14407   0.14802

  Beta  occ. eigenvalues --  -88.92543 -18.98861 -18.98513 -14.21196 -14.17331
  Beta  occ. eigenvalues --  -10.10764 -10.10304 -10.09430 -10.09028 -10.08738
  Beta  occ. eigenvalues --  -10.06419 -10.05964 -10.05948 -10.05343 -10.05268
  Beta  occ. eigenvalues --  -10.04994 -10.04476  -7.98707  -5.95010  -5.94891
  Beta  occ. eigenvalues --   -5.94835  -0.98384  -0.87796  -0.84442  -0.78081
  Beta  occ. eigenvalues --   -0.73326  -0.71167  -0.67099  -0.63611  -0.62818
  Beta  occ. eigenvalues --   -0.57232  -0.53378  -0.52138  -0.49296  -0.48130
  Beta  occ. eigenvalues --   -0.44067  -0.42172  -0.39443  -0.39027  -0.38656
  Beta  occ. eigenvalues --   -0.36898  -0.34763  -0.34301  -0.32799  -0.32065
  Beta  occ. eigenvalues --   -0.30779  -0.30730  -0.30263  -0.29562  -0.28054
  Beta  occ. eigenvalues --   -0.25577  -0.23581  -0.23335  -0.22127  -0.21063
  Beta  occ. eigenvalues --   -0.20056  -0.19709  -0.18690  -0.17549  -0.16525
  Beta  occ. eigenvalues --   -0.16002  -0.13827  -0.13759  -0.11825
  Beta virt. eigenvalues --    0.05944   0.06918   0.07319   0.07676   0.08270
  Beta virt. eigenvalues --    0.09131   0.09657   0.10237   0.10328   0.11140
  Beta virt. eigenvalues --    0.11918   0.12843   0.13344   0.14270   0.14725

 Mulliken charges and spin densities:
               1          2
     1  C   -0.445001   0.211363
     2  C   -0.390867  -0.070037
     3  C    0.086954   0.213051
     4  C    0.810863  -0.042104
     5  C   -0.969606   0.095787
     6  C   -0.258042  -0.038436
     7  C   -0.301004   0.287436
     8  N    0.020976   0.142673
     9  S    0.131872   0.004806
    10  O   -0.204454   0.009074
    11  O   -0.144631  -0.024856
    12  C   -0.375327   0.042024
    13  C   -0.274711   0.034596
    14  N   -0.062901  -0.018444
    15  C   -0.398293   0.122594
    16  C   -0.253044  -0.028646
    17  C    0.384614   0.111216
    18  H    0.109143  -0.016503
    19  H    0.129009   0.004266
    20  H    0.187031  -0.008054
    21  H    0.109652  -0.006002
    22  H    0.122009   0.002190
    23  H    0.194545  -0.017704
    24  H    0.239844   0.000207
    25  H    0.148595  -0.010038
    26  H    0.147628   0.003280
    27  H    0.255143  -0.003739
 Sum of Mulliken charges =  -1.00000   1.00000

 Dipole moment (field-independent basis, Debye):
    X=             -0.4656    Y=              3.2277    Z=              0.3600  Tot=              3.2809
 Quadrupole moment (field-independent basis, Debye-Ang):
   XX=           -149.1552   YY=           -126.1316   ZZ=           -120.4460
   XY=             -7.6817   XZ=             -8.2085   YZ=              9.4949

 Summary of Natural Population Analysis:

                                       Natural Population
                Natural  -----------------------------------------------
    Atom  No    Charge         Core      Valence    Rydberg      Total
 -----------------------------------------------------------------------
      C    1   -0.05097      0.99958     2.04195    0.00944     3.05097
      C    2   -0.13048      0.99958     2.12171    0.00920     3.13048
      C    3   -0.04043      0.99953     2.03217    0.00873     3.04043
      C    4   -0.05777      0.99950     2.04838    0.00989     3.05777
      C    5   -0.05444      0.99954     2.04653    0.00837     3.05444
      C    6   -0.12912      0.99958     2.12000    0.00954     3.12912
      C    7    0.14826      0.99959     1.83661    0.01553     2.85174
      N    8   -0.31551      0.99967     2.80583    0.01002     3.81551
      S    9    1.09328      4.99920     1.80656    0.10096     6.90672
      O   10   -0.47593      0.99991     3.47051    0.00551     4.47593
      O   11   -0.46655      0.99990     3.46070    0.00595     4.46655
      C   12   -0.14397      0.99937     2.12948    0.01512     3.14397
      C   13    0.04459      0.99952     1.94085    0.01504     2.95541
      N   14   -0.24102      0.99972     2.72923    0.01207     3.74102
      C   15    0.05673      0.99961     1.92879    0.01487     2.94327
      C   16   -0.13735      0.99957     2.12929    0.00849     3.13735
      C   17   -0.05152      0.99951     2.04178    0.01023     3.05152
      H   18    0.08849      0.00000     0.41050    0.00101     0.41151
      H   19    0.09317      0.00000     0.40581    0.00102     0.40683
      H   20    0.10481      0.00000     0.39358    0.00161     0.39519
      H   21    0.09384      0.00000     0.40506    0.00110     0.40616
      H   22    0.09282      0.00000     0.40615    0.00104     0.40718
      H   23    0.08132      0.00000     0.41637    0.00231     0.41868
      H   24    0.10257      0.00000     0.39607    0.00137     0.39743
      H   25    0.08304      0.00000     0.41575    0.00121     0.41696
      H   26    0.09948      0.00000     0.39943    0.00109     0.40052
      H   27    0.11266      0.00000     0.38618    0.00116     0.38734
 =======================================================================
   * Total *   -0.00000     20.99288    42.72524    0.28188    64.00000

 Normal termination of Gaussian 16 at Fri Dec 11 12:36:41 2020.
