 Gaussian 16, Revision A.03,

 -----------------------------------------------------------
 # opt freq B3LYP/6-31G(d) empiricaldispersion=gd3bj scf=xqc
 -----------------------------------------------------------

 -------------------------------
 CID_63291238_JID_10512_neutraal
 -------------------------------
 Symbolic Z-matrix:
 Charge =  0 Multiplicity = 1

 SCF Done:  E(RB3LYP) =  -1600.65383975     A.U. after   15 cycles
 SCF Done:  E(RB3LYP) =  -1600.65802016     A.U. after   13 cycles
 SCF Done:  E(RB3LYP) =  -1600.65721044     A.U. after   14 cycles
 SCF Done:  E(RB3LYP) =  -1600.66007537     A.U. after   13 cycles
 SCF Done:  E(RB3LYP) =  -1600.66056342     A.U. after   15 cycles
 SCF Done:  E(RB3LYP) =  -1600.66351079     A.U. after   12 cycles
 SCF Done:  E(RB3LYP) =  -1600.66434414     A.U. after   13 cycles
 SCF Done:  E(RB3LYP) =  -1600.66574771     A.U. after   12 cycles
 SCF Done:  E(RB3LYP) =  -1600.66793516     A.U. after   15 cycles
 SCF Done:  E(RB3LYP) =  -1600.66938514     A.U. after   15 cycles
 SCF Done:  E(RB3LYP) =  -1600.67183703     A.U. after   10 cycles
 SCF Done:  E(RB3LYP) =  -1600.67183265     A.U. after   10 cycles
 SCF Done:  E(RB3LYP) =  -1600.67183726     A.U. after   10 cycles
 SCF Done:  E(RB3LYP) =  -1600.67183725     A.U. after    7 cycles
 SCF Done:  E(RB3LYP) =  -1600.67183728     A.U. after    6 cycles
 Optimization completed.
    -- Stationary point found.
 Normal termination of Gaussian 16 at Sat Dec 12 16:07:29 2020.

 --------------------------------------------------------------------
 #N Geom=AllCheck Guess=TCheck SCRF=Check GenChk RB3LYP/6-31G(d) Freq
 --------------------------------------------------------------------

 Structure from the checkpoint file:  "JID_10512.chk"
 -------------------------------
 CID_63291238_JID_10512_neutraal
 -------------------------------
 Charge =  0 Multiplicity = 1

 SCF Done:  E(RB3LYP) =  -1600.67183728     A.U. after    1 cycles

  Exact polarizability: 238.722  26.970 176.964  19.670 -25.331 152.517
 Approx polarizability: 369.618  50.312 291.630  39.732 -75.499 280.113

                      1                      2                      3
                      A                      A                      A
 Frequencies --     24.3539                37.1105                42.9269
 Red. masses --      5.1694                 6.1636                 5.9160
 Frc consts  --      0.0018                 0.0050                 0.0064
 IR Inten    --      0.7469                 2.6511                 0.1898

                      4                      5                      6
                      A                      A                      A
 Frequencies --     65.2330                83.3248                89.8417
 Red. masses --      4.1930                 4.8515                 4.8027
 Frc consts  --      0.0105                 0.0198                 0.0228
 IR Inten    --      1.6146                 1.7263                 2.6501

                      7                      8                      9
                      A                      A                      A
 Frequencies --    104.4394               134.0191               177.1564
 Red. masses --      5.6138                 4.2693                 2.9072
 Frc consts  --      0.0361                 0.0452                 0.0538
 IR Inten    --      3.4097                 0.4894                 0.7872

                     10                     11                     12
                      A                      A                      A
 Frequencies --    178.3203               213.0343               226.4216
 Red. masses --      3.5562                 1.1224                 2.8527
 Frc consts  --      0.0666                 0.0300                 0.0862
 IR Inten    --      1.6356                 0.4768                 1.4850

                     13                     14                     15
                      A                      A                      A
 Frequencies --    247.2979               257.9811               275.5372
 Red. masses --      3.4185                 3.0514                 1.7111
 Frc consts  --      0.1232                 0.1197                 0.0765
 IR Inten    --      1.5794                 8.6869                 5.4405

                     16                     17                     18
                      A                      A                      A
 Frequencies --    279.5008               293.5650               296.1732
 Red. masses --      5.3038                 1.9883                 2.4144
 Frc consts  --      0.2441                 0.1010                 0.1248
 IR Inten    --      0.1688                 2.9110                 0.5468

                     19                     20                     21
                      A                      A                      A
 Frequencies --    317.8020               344.5826               374.2203
 Red. masses --      2.1960                 3.9047                 3.4970
 Frc consts  --      0.1307                 0.2732                 0.2885
 IR Inten    --      1.8275                 4.8086                 0.4674

                     22                     23                     24
                      A                      A                      A
 Frequencies --    395.5004               438.1913               452.0948
 Red. masses --      2.3838                 3.8070                 3.0553
 Frc consts  --      0.2197                 0.4307                 0.3679
 IR Inten    --      2.2517                 2.4762                11.1438

                     25                     26                     27
                      A                      A                      A
 Frequencies --    470.1984               478.7163               509.0720
 Red. masses --      5.2078                 6.0284                 5.2140
 Frc consts  --      0.6784                 0.8140                 0.7961
 IR Inten    --     22.4230                 6.4497                32.6747

                     28                     29                     30
                      A                      A                      A
 Frequencies --    519.2946               543.7942               565.5475
 Red. masses --      5.2389                 5.3100                 3.7508
 Frc consts  --      0.8324                 0.9252                 0.7068
 IR Inten    --     42.0694                 7.0397                13.9888

                     31                     32                     33
                      A                      A                      A
 Frequencies --    582.9732               598.4521               644.1304
 Red. masses --      3.9330                 3.7207                 5.3275
 Frc consts  --      0.7875                 0.7851                 1.3023
 IR Inten    --      4.1659                26.0216                 6.4081

                     34                     35                     36
                      A                      A                      A
 Frequencies --    659.8544               699.2735               709.0595
 Red. masses --      4.6282                 1.3658                 2.5816
 Frc consts  --      1.1873                 0.3935                 0.7647
 IR Inten    --     19.0142                53.2388                37.7682

                     37                     38                     39
                      A                      A                      A
 Frequencies --    725.0646               737.2719               752.7433
 Red. masses --      3.3415                 3.3665                 5.0753
 Frc consts  --      1.0350                 1.0782                 1.6944
 IR Inten    --      1.3284                 5.1359               122.3477

                     40                     41                     42
                      A                      A                      A
 Frequencies --    756.7839               809.9100               821.4211
 Red. masses --      4.7112                 1.7348                 1.7962
 Frc consts  --      1.5897                 0.6705                 0.7140
 IR Inten    --     13.1641                62.8922                 7.5172

                     43                     44                     45
                      A                      A                      A
 Frequencies --    835.9977               849.4398               868.1735
 Red. masses --      1.6715                 1.9830                 3.5537
 Frc consts  --      0.6883                 0.8430                 1.5781
 IR Inten    --     24.7675                 2.3253                17.6216

                     46                     47                     48
                      A                      A                      A
 Frequencies --    874.8362               896.8899               907.6023
 Red. masses --      1.3910                 1.6624                 1.3594
 Frc consts  --      0.6272                 0.7879                 0.6598
 IR Inten    --    114.7338                65.0084                 2.3059

                     49                     50                     51
                      A                      A                      A
 Frequencies --    919.1731               925.0232               943.6008
 Red. masses --      1.8945                 2.4781                 1.2934
 Frc consts  --      0.9431                 1.2493                 0.6785
 IR Inten    --     11.7013                23.4391                 3.2775

                     52                     53                     54
                      A                      A                      A
 Frequencies --    987.3875               989.0132               991.0330
 Red. masses --      1.6182                 1.6562                 1.6409
 Frc consts  --      0.9295                 0.9545                 0.9495
 IR Inten    --     28.0562                 3.8303                38.9599

                     55                     56                     57
                      A                      A                      A
 Frequencies --   1057.0684              1073.5850              1097.5170
 Red. masses --      1.6116                 1.7685                 2.6390
 Frc consts  --      1.0610                 1.2010                 1.8729
 IR Inten    --     10.7547                 4.7184                39.4378

                     58                     59                     60
                      A                      A                      A
 Frequencies --   1102.0123              1120.0571              1132.7687
 Red. masses --      2.0855                 1.3820                 2.3528
 Frc consts  --      1.4923                 1.0215                 1.7788
 IR Inten    --     31.0687                48.2351               195.4357

                     61                     62                     63
                      A                      A                      A
 Frequencies --   1143.1176              1154.0619              1188.4174
 Red. masses --      1.9034                 1.6348                 1.7184
 Frc consts  --      1.4654                 1.2828                 1.4299
 IR Inten    --     16.0463                89.0739                13.2600

                     64                     65                     66
                      A                      A                      A
 Frequencies --   1198.7252              1241.7706              1267.2471
 Red. masses --      1.8869                 1.9824                 1.7676
 Frc consts  --      1.5975                 1.8011                 1.6724
 IR Inten    --     29.3211                 5.9822                13.3799

                     67                     68                     69
                      A                      A                      A
 Frequencies --   1301.9401              1307.2501              1315.9143
 Red. masses --      2.0699                 2.2521                 1.7487
 Frc consts  --      2.0672                 2.2675                 1.7842
 IR Inten    --     32.8778                66.8129                45.2401

                     70                     71                     72
                      A                      A                      A
 Frequencies --   1321.0978              1337.0960              1368.0866
 Red. masses --      1.6282                 2.2982                 1.2183
 Frc consts  --      1.6743                 2.4208                 1.3434
 IR Inten    --     59.7214               114.2467                10.3447

                     73                     74                     75
                      A                      A                      A
 Frequencies --   1373.8332              1392.6173              1410.8360
 Red. masses --      2.6609                 1.4838                 2.0005
 Frc consts  --      2.9590                 1.6954                 2.3460
 IR Inten    --     64.2940                10.1373                 1.4628

                     76                     77                     78
                      A                      A                      A
 Frequencies --   1435.4576              1444.6763              1480.6519
 Red. masses --      1.4222                 1.3981                 1.2774
 Frc consts  --      1.7266                 1.7192                 1.6500
 IR Inten    --     12.8891                16.9600                15.1519

                     79                     80                     81
                      A                      A                      A
 Frequencies --   1481.4702              1483.7530              1498.8325
 Red. masses --      2.2327                 1.0553                 2.8807
 Frc consts  --      2.8872                 1.3688                 3.8129
 IR Inten    --      3.1525                 8.7683                 6.2308

                     82                     83                     84
                      A                      A                      A
 Frequencies --   1505.8975              1525.6018              1534.9678
 Red. masses --      1.3742                 1.0553                 2.3317
 Frc consts  --      1.8360                 1.4471                 3.2369
 IR Inten    --      6.7717                 1.9998                64.3563

                     85                     86                     87
                      A                      A                      A
 Frequencies --   1548.7847              1580.9756              1602.6969
 Red. masses --      1.0637                 2.0201                 5.2991
 Frc consts  --      1.5034                 2.9750                 8.0197
 IR Inten    --      4.3757                51.5136                 2.2992

                     88                     89                     90
                      A                      A                      A
 Frequencies --   1648.2318              1651.5603              1695.9806
 Red. masses --      3.2631                 3.2446                 1.2687
 Frc consts  --      5.2230                 5.2143                 2.1500
 IR Inten    --     12.6216               101.9964                77.8284

                     91                     92                     93
                      A                      A                      A
 Frequencies --   3036.4811              3048.4345              3068.1165
 Red. masses --      1.0717                 1.0731                 1.0391
 Frc consts  --      5.8217                 5.8755                 5.7630
 IR Inten    --      5.8446                72.0847                24.8164

                     94                     95                     96
                      A                      A                      A
 Frequencies --   3081.1098              3083.4783              3131.8296
 Red. masses --      1.0288                 1.1034                 1.1004
 Frc consts  --      5.7544                 6.1810                 6.3588
 IR Inten    --      1.1502                18.0180                29.8981

                     97                     98                     99
                      A                      A                      A
 Frequencies --   3155.1213              3182.3906              3188.2621
 Red. masses --      1.1021                 1.1066                 1.1075
 Frc consts  --      6.4641                 6.6028                 6.6328
 IR Inten    --     17.1766                 3.5663                 2.1170

                    100                    101                    102
                      A                      A                      A
 Frequencies --   3202.0830              3213.8399              3224.5596
 Red. masses --      1.0904                 1.0896                 1.0905
 Frc consts  --      6.5875                 6.6305                 6.6806
 IR Inten    --      3.3331                 4.1690                 0.1331

                    103                    104                    105
                      A                      A                      A
 Frequencies --   3230.1037              3270.6201              3291.0042
 Red. masses --      1.0942                 1.0972                 1.0892
 Frc consts  --      6.7263                 6.9152                 6.9504
 IR Inten    --      5.6571                 1.2820                 3.8115

                    106                    107                    108
                      A                      A                      A
 Frequencies --   3467.0998              3507.1376              3579.2946
 Red. masses --      1.0541                 1.0741                 1.0892
 Frc consts  --      7.4653                 7.7838                 8.2213
 IR Inten    --      2.0428                25.4739                 7.0699

 - Thermochemistry -
 -------------------
 Temperature   298.150 Kelvin.  Pressure   1.00000 Atm.
 Atom     1 has atomic number  6 and mass  12.00000

 Molecular mass:   310.08097 amu.
 Principal axes and moments of inertia in atomic units:
                           1         2         3
     Eigenvalues --  3827.520548460.32054**********
           X            0.99954   0.02666   0.01446
           Y           -0.02662   0.99964  -0.00277
           Z           -0.01453   0.00238   0.99989
 This molecule is an asymmetric top.
 Rotational symmetry number  1.
 Warning -- assumption of classical behavior for rotation
           may cause significant error
 Rotational temperatures (Kelvin)      0.02263     0.01024     0.00855
 Rotational constants (GHZ):           0.47152     0.21332     0.17808
 Zero-point vibrational energy     806916.4 (Joules/Mol)
                                  192.85764 (Kcal/Mol)
 Warning -- explicit consideration of  32 degrees of freedom as
           vibrations may cause significant error
 Vibrational temperatures:     35.04    53.39    61.76    93.86   119.89
          (Kelvin)            129.26   150.26   192.82   254.89   256.56
                              306.51   325.77   355.81   371.18   396.44
                              402.14   422.37   426.13   457.25   495.78
                              538.42   569.04   630.46   650.46   676.51
                              688.77   732.44   747.15   782.40   813.70
                              838.77   861.04   926.76   949.38  1006.10
                             1020.18  1043.21  1060.77  1083.03  1088.84
                             1165.28  1181.84  1202.81  1222.15  1249.11
                             1258.69  1290.42  1305.84  1322.49  1330.90
                             1357.63  1420.63  1422.97  1425.88  1520.89
                             1544.65  1579.08  1585.55  1611.51  1629.80
                             1644.69  1660.44  1709.87  1724.70  1786.63
                             1823.29  1873.20  1880.84  1893.31  1900.77
                             1923.78  1968.37  1976.64  2003.67  2029.88
                             2065.30  2078.57  2130.33  2131.51  2134.79
                             2156.49  2166.65  2195.00  2208.48  2228.36
                             2274.67  2305.92  2371.44  2376.23  2440.14
                             4368.82  4386.02  4414.34  4433.03  4436.44
                             4506.00  4539.52  4578.75  4587.20  4607.08
                             4624.00  4639.42  4647.40  4705.69  4735.02
                             4988.38  5045.99  5149.81

 Zero-point correction=                           0.307338 (Hartree/Particle)
 Thermal correction to Energy=                    0.327084
 Thermal correction to Enthalpy=                  0.328029
 Thermal correction to Gibbs Free Energy=         0.258507
 Sum of electronic and zero-point Energies=          -1600.364499
 Sum of electronic and thermal Energies=             -1600.344753
 Sum of electronic and thermal Enthalpies=           -1600.343809
 Sum of electronic and thermal Free Energies=        -1600.413331

                     E (Thermal)             CV                S
                      KCal/Mol        Cal/Mol-Kelvin    Cal/Mol-Kelvin
 Total                  205.249             76.347            146.322
 Electronic               0.000              0.000              0.000
 Translational            0.889              2.981             43.091
 Rotational               0.889              2.981             34.150
 Vibrational            203.471             70.386             69.080
 Vibration     1          0.593              1.985              6.243
 Vibration     2          0.594              1.982              5.408
 Vibration     3          0.595              1.980              5.119
 Vibration     4          0.597              1.971              4.292
 Vibration     5          0.600              1.961              3.811
 Vibration     6          0.602              1.956              3.664
 Vibration     7          0.605              1.946              3.370
 Vibration     8          0.613              1.919              2.888
 Vibration     9          0.628              1.870              2.358
 Vibration    10          0.629              1.869              2.346
 Vibration    11          0.644              1.821              2.018
 Vibration    12          0.650              1.801              1.907
 Vibration    13          0.661              1.767              1.750
 Vibration    14          0.667              1.749              1.675
 Vibration    15          0.677              1.719              1.561
 Vibration    16          0.680              1.711              1.537
 Vibration    17          0.688              1.686              1.453
 Vibration    18          0.690              1.681              1.438
 Vibration    19          0.704              1.640              1.321
 Vibration    20          0.723              1.586              1.191
 Vibration    21          0.745              1.525              1.062
 Vibration    22          0.762              1.480              0.979
 Vibration    23          0.798              1.387              0.832
 Vibration    24          0.811              1.356              0.789
 Vibration    25          0.827              1.316              0.737
 Vibration    26          0.835              1.297              0.714
 Vibration    27          0.864              1.230              0.636
 Vibration    28          0.874              1.207              0.612
 Vibration    29          0.899              1.153              0.557
 Vibration    30          0.921              1.106              0.513
 Vibration    31          0.940              1.068              0.480
 Vibration    32          0.956              1.035              0.452

 Optimization completed.
    -- Stationary point found.
 Normal termination of Gaussian 16 at Sat Dec 12 16:30:01 2020.

 ----------------------------------------------------------------------
 # B3LYP/6-311++G(d,p) empiricaldispersion=gd3bj scf=xqc pop=npa geom=c
 heck
 ----------------------------------------------------------------------

 ---------------------------------------
 CID_63291238_JID_10512_Energie_neutraal
 ---------------------------------------
 Structure from the checkpoint file:  "JID_10512.chk"
 Charge =  0 Multiplicity = 1

 SCF Done:  E(RB3LYP) =  -1600.95400261     A.U. after   17 cycles
 Normal termination of Gaussian 16 at Sat Dec 12 16:39:55 2020.

 ----------------------------------------------------------------------
 # B3LYP/6-311++G(d,p) empiricaldispersion=gd3bj scf=xqc pop=npa geom=c
 heck
 ----------------------------------------------------------------------

 -------------------------------------
 CID_63291238_JID_10512_Energie_kation
 -------------------------------------
 Structure from the checkpoint file:  "JID_10512.chk"
 Charge =  1 Multiplicity = 2

 SCF Done:  E(UB3LYP) =  -1600.68640146     A.U. after   24 cycles
 Normal termination of Gaussian 16 at Sat Dec 12 16:58:59 2020.
 Gaussian 16:  ES64L-G16RevA.03 25-Dec-2016

 ----------------------------------------------------------------------
 # B3LYP/6-311++G(d,p) empiricaldispersion=gd3bj scf=xqc pop=npa geom=c
 heck
 ----------------------------------------------------------------------

 ------------------------------------
 CID_63291238_JID_10512_Energie_anion
 ------------------------------------
 Structure from the checkpoint file:  "JID_10512.chk"
 Charge = -1 Multiplicity = 2

                         Standard orientation:
 ---------------------------------------------------------------------
 Center     Atomic      Atomic             Coordinates (Angstroms)
 Number     Number       Type             X           Y           Z
 ---------------------------------------------------------------------
      1          6           0        3.520435    0.742633    1.868179
      2          6           0        3.321093    1.208917    0.423003
      3          6           0        3.566246    0.078743   -0.623707
      4          6           0        2.470488   -0.934213   -0.762185
      5          6           0        1.426993   -0.908629   -1.650628
      6          6           0        0.494551   -1.973247   -1.469696
      7          6           0        0.839417   -2.809822   -0.444520
      8         16           0        2.319335   -2.306319    0.310466
      9          7           0        2.078393    1.955215    0.179752
     10          6           0        0.782277    1.470878    0.325091
     11          6           0       -0.203295    2.036306   -0.533383
     12          6           0       -1.504808    1.556633   -0.514606
     13          6           0       -1.858930    0.539644    0.375617
     14          6           0       -0.932351    0.040830    1.287619
     15          6           0        0.372491    0.516878    1.270355
     16         16           0       -3.493243   -0.153060    0.308103
     17          8           0       -3.834201   -0.686083    1.637477
     18          8           0       -4.378359    0.806393   -0.375266
     19          6           0       -3.290176   -1.573855   -0.794896
     20          7           0        0.228235    3.033710   -1.453656
     21          1           0        3.004931   -0.194325    2.088339
     22          1           0        3.175100    1.507496    2.569649
     23          1           0        4.587702    0.571487    2.044424
     24          1           0        4.104543    1.953175    0.233897
     25          1           0        3.696748    0.554241   -1.603397
     26          1           0        4.522083   -0.404335   -0.383141
     27          1           0        1.316548   -0.127073   -2.394686
     28          1           0       -0.389143   -2.112167   -2.082038
     29          1           0        0.331617   -3.700977   -0.101829
     30          1           0        2.142883    2.458375   -0.701659
     31          1           0       -2.257488    1.973240   -1.177673
     32          1           0       -1.232384   -0.712673    2.007252
     33          1           0        1.081424    0.110769    1.974075
     34          1           0       -2.988261   -1.213782   -1.780120
     35          1           0       -2.532842   -2.238334   -0.375421
     36          1           0       -4.259105   -2.075720   -0.849698
     37          1           0       -0.509302    3.278134   -2.107990
     38          1           0        0.514977    3.887404   -0.974911
 ---------------------------------------------------------------------

 SCF Done:  E(UB3LYP) =  -1600.95326774     A.U. after   33 cycles
 SCF Done:  E(UB3LYP) =  -1600.95326774     a.u. after    1 cycles

 The electronic state is 2-A.
 Alpha  occ. eigenvalues --  -88.95784 -88.77734 -19.02313 -19.02299 -14.23043
 Alpha  occ. eigenvalues --  -14.22707 -10.13073 -10.12387 -10.12199 -10.12151
 Alpha  occ. eigenvalues --  -10.10538 -10.10344 -10.10060 -10.09393 -10.09374
 Alpha  occ. eigenvalues --  -10.08629 -10.08312 -10.08240 -10.07392 -10.07346
 Alpha  occ. eigenvalues --   -8.02185  -7.86374  -5.98456  -5.98361  -5.98287
 Alpha  occ. eigenvalues --   -5.82654  -5.82295  -5.81982  -1.01571  -0.91287
 Alpha  occ. eigenvalues --   -0.85935  -0.81361  -0.78497  -0.76337  -0.70569
 Alpha  occ. eigenvalues --   -0.69120  -0.66034  -0.65185  -0.63875  -0.63703
 Alpha  occ. eigenvalues --   -0.58860  -0.56596  -0.53490  -0.51095  -0.48430
 Alpha  occ. eigenvalues --   -0.46853  -0.44929  -0.44366  -0.43420  -0.41504
 Alpha  occ. eigenvalues --   -0.40509  -0.39570  -0.38756  -0.38530  -0.37714
 Alpha  occ. eigenvalues --   -0.36971  -0.35597  -0.35375  -0.34819  -0.34088
 Alpha  occ. eigenvalues --   -0.33951  -0.31830  -0.31122  -0.30534  -0.29891
 Alpha  occ. eigenvalues --   -0.29334  -0.28761  -0.27547  -0.26952  -0.26091
 Alpha  occ. eigenvalues --   -0.24983  -0.24701  -0.24259  -0.23266  -0.22316
 Alpha  occ. eigenvalues --   -0.21565  -0.21366  -0.20107  -0.16127  -0.15220
 Alpha  occ. eigenvalues --   -0.14479  -0.10868   0.03465
 Alpha virt. eigenvalues --    0.05787   0.05961   0.06169   0.06780   0.07397
 Alpha virt. eigenvalues --    0.08039   0.08269   0.08614   0.09208   0.09417
 Alpha virt. eigenvalues --    0.09865   0.10542   0.11016   0.11180   0.11828

  Beta  occ. eigenvalues --  -88.95783 -88.77721 -19.02312 -19.02298 -14.23021
  Beta  occ. eigenvalues --  -14.22647 -10.13072 -10.12382 -10.12194 -10.12123
  Beta  occ. eigenvalues --  -10.10537 -10.10266 -10.09966 -10.09384 -10.09372
  Beta  occ. eigenvalues --  -10.08611 -10.08317 -10.08240 -10.07378 -10.07316
  Beta  occ. eigenvalues --   -8.02184  -7.86361  -5.98456  -5.98361  -5.98287
  Beta  occ. eigenvalues --   -5.82650  -5.82290  -5.81940  -1.01569  -0.91285
  Beta  occ. eigenvalues --   -0.85893  -0.81290  -0.78398  -0.76315  -0.70519
  Beta  occ. eigenvalues --   -0.69087  -0.66005  -0.65102  -0.63800  -0.63655
  Beta  occ. eigenvalues --   -0.58782  -0.56568  -0.53463  -0.51041  -0.48387
  Beta  occ. eigenvalues --   -0.46757  -0.44873  -0.44294  -0.43356  -0.41454
  Beta  occ. eigenvalues --   -0.40447  -0.39566  -0.38721  -0.38488  -0.37677
  Beta  occ. eigenvalues --   -0.36898  -0.35582  -0.35348  -0.34794  -0.34068
  Beta  occ. eigenvalues --   -0.33915  -0.31808  -0.31065  -0.30492  -0.29840
  Beta  occ. eigenvalues --   -0.29283  -0.28692  -0.27355  -0.26919  -0.26052
  Beta  occ. eigenvalues --   -0.24904  -0.24695  -0.24187  -0.23261  -0.22288
  Beta  occ. eigenvalues --   -0.21562  -0.21333  -0.20098  -0.15938  -0.15128
  Beta  occ. eigenvalues --   -0.14132  -0.10771
  Beta virt. eigenvalues --    0.05759   0.06074   0.06395   0.06958   0.07167
  Beta virt. eigenvalues --    0.07604   0.08049   0.08783   0.08889   0.09526
  Beta virt. eigenvalues --    0.09793   0.10342   0.10622   0.11142   0.11233

 Mulliken charges and spin densities:
               1          2
     1  C   -0.195476  -0.470025
     2  C    0.661253  -0.425474
     3  C    0.599219  -1.616105
     4  C    0.216936   0.273874
     5  C   -1.137337   0.919009
     6  C    1.105308  -0.974392
     7  C   -1.012165   0.345252
     8  S    0.183157  -0.034232
     9  N   -0.080933  -0.008689
    10  C    0.514575  -0.007219
    11  C    0.797879  -1.094171
    12  C   -0.668417   0.181575
    13  C    0.652948  -0.189742
    14  C   -0.585008   0.017259
    15  C   -0.540773   0.048079
    16  S    0.445998  -0.238290
    17  O   -0.167053  -0.000972
    18  O   -0.176598  -0.002460
    19  C   -0.615991  -0.018878
    20  N   -0.594530   0.226711
    21  H    0.046936   0.061667
    22  H    0.127635   0.047692
    23  H   -0.124237   0.284536
    24  H   -0.853436   1.079286
    25  H   -0.018756   0.210638
    26  H   -0.312513   0.510438
    27  H   -0.310476   0.518268
    28  H    0.091030   0.041493
    29  H    0.172121   0.052547
    30  H    0.106123   0.190588
    31  H    0.102092   0.129126
    32  H    0.194625   0.029412
    33  H    0.185927  -0.057683
    34  H    0.148480   0.064463
    35  H    0.221934  -0.000090
    36  H    0.178562   0.010481
    37  H   -0.121219   0.385715
    38  H   -0.237820   0.510311
 Sum of Mulliken charges =  -1.00000   1.00000

 Dipole moment (field-independent basis, Debye):
    X=             -3.7953    Y=             -6.6423    Z=              1.4953  Tot=              7.7948
 Quadrupole moment (field-independent basis, Debye-Ang):
   XX=           -232.2323   YY=           -180.1346   ZZ=           -167.3466
   XY=             -3.8218   XZ=             15.7009   YZ=              7.6216

 Summary of Natural Population Analysis:

                                       Natural Population
                Natural  -----------------------------------------------
    Atom  No    Charge         Core      Valence    Rydberg      Total
 -----------------------------------------------------------------------
      C    1   -0.29270      0.99963     2.28713    0.00594     3.29270
      C    2   -0.00278      0.99958     1.98800    0.01520     3.00278
      C    3   -0.21175      0.99955     2.19972    0.01249     3.21175
      C    4   -0.08576      0.99948     2.07202    0.01426     3.08576
      C    5   -0.12390      0.99945     2.11330    0.01115     3.12390
      C    6   -0.12976      0.99953     2.11903    0.01120     3.12976
      C    7   -0.18627      0.99954     2.17635    0.01038     3.18627
      S    8    0.20098      4.99939     2.78011    0.01952     7.79902
      N    9   -0.31621      0.99966     2.80311    0.01344     3.81621
      C   10    0.09920      0.99945     1.88777    0.01358     2.90080
      C   11    0.06265      0.99944     1.92581    0.01211     2.93735
      C   12   -0.10962      0.99946     2.09919    0.01097     3.10962
      C   13   -0.16956      0.99937     2.15395    0.01624     3.16956
      C   14   -0.09013      0.99951     2.08147    0.00916     3.09013
      C   15   -0.12205      0.99952     2.11343    0.00910     3.12205
      S   16    1.03000      4.99919     1.87333    0.09749     6.97000
      O   17   -0.47183      0.99991     3.46657    0.00534     4.47183
      O   18   -0.47300      0.99991     3.46718    0.00590     4.47300
      C   19   -0.39074      0.99961     2.38391    0.00722     3.39074
      N   20   -0.41182      0.99973     2.90129    0.01080     3.91182
      H   21    0.09699      0.00000     0.40156    0.00145     0.40301
      H   22    0.10453      0.00000     0.39464    0.00082     0.39547
      H   23    0.10439      0.00000     0.39475    0.00086     0.39561
      H   24    0.10386      0.00000     0.39142    0.00472     0.39614
      H   25    0.11280      0.00000     0.38499    0.00221     0.38720
      H   26    0.10937      0.00000     0.38899    0.00165     0.39063
      H   27    0.11064      0.00000     0.38769    0.00167     0.38936
      H   28    0.10279      0.00000     0.39621    0.00100     0.39721
      H   29    0.10476      0.00000     0.39442    0.00081     0.39524
      H   30    0.19839      0.00000     0.29621    0.00540     0.30161
      H   31    0.11371      0.00000     0.38509    0.00120     0.38629
      H   32    0.11125      0.00000     0.38761    0.00115     0.38875
      H   33    0.10698      0.00000     0.39134    0.00169     0.39302
      H   34    0.11318      0.00000     0.38552    0.00130     0.38682
      H   35    0.11495      0.00000     0.38379    0.00126     0.38505
      H   36    0.11223      0.00000     0.38659    0.00118     0.38777
      H   37    0.18689      0.00000     0.31042    0.00269     0.31311
      H   38    0.18734      0.00000     0.30958    0.00308     0.31266
 =======================================================================
   * Total *    0.00000     27.99089    53.66349    0.34562    82.00000

 Normal termination of Gaussian 16 at Sat Dec 12 17:25:16 2020.
