 Gaussian 16, Revision A.03,

 -----------------------------------------------------------
 # opt freq B3LYP/6-31G(d) empiricaldispersion=gd3bj scf=xqc
 -----------------------------------------------------------

 -------------------------------
 CID_151320237_JID_6535_neutraal
 -------------------------------
 Symbolic Z-matrix:
 Charge =  0 Multiplicity = 1

 SCF Done:  E(RB3LYP) =  -692.153678662     A.U. after   15 cycles
 SCF Done:  E(RB3LYP) =  -692.159510160     A.U. after   13 cycles
 SCF Done:  E(RB3LYP) =  -692.160624932     A.U. after   13 cycles
 SCF Done:  E(RB3LYP) =  -692.160944007     A.U. after   15 cycles
 SCF Done:  E(RB3LYP) =  -692.162061095     A.U. after   12 cycles
 SCF Done:  E(RB3LYP) =  -692.162449016     A.U. after   13 cycles
 SCF Done:  E(RB3LYP) =  -692.162621721     A.U. after   13 cycles
 SCF Done:  E(RB3LYP) =  -692.162694434     A.U. after   11 cycles
 SCF Done:  E(RB3LYP) =  -692.162708417     A.U. after   10 cycles
 SCF Done:  E(RB3LYP) =  -692.162709736     A.U. after    9 cycles
 SCF Done:  E(RB3LYP) =  -692.162710286     A.U. after    8 cycles
 SCF Done:  E(RB3LYP) =  -692.162710498     A.U. after    8 cycles
 SCF Done:  E(RB3LYP) =  -692.162710557     A.U. after    7 cycles
 SCF Done:  E(RB3LYP) =  -692.162710594     A.U. after    6 cycles
 Optimization completed.
    -- Stationary point found.
 Normal termination of Gaussian 16 at Thu Dec 10 23:29:20 2020.

 --------------------------------------------------------------------
 #N Geom=AllCheck Guess=TCheck SCRF=Check GenChk RB3LYP/6-31G(d) Freq
 --------------------------------------------------------------------

 Structure from the checkpoint file:  "JID_6535.chk"
 -------------------------------
 CID_151320237_JID_6535_neutraal
 -------------------------------
 Charge =  0 Multiplicity = 1

 SCF Done:  E(RB3LYP) =  -692.162710594     A.U. after    1 cycles

  Exact polarizability: 191.579  -5.178 146.079   3.294   4.488 109.974
 Approx polarizability: 242.621  -9.379 229.677   0.846  14.315 169.612

                      1                      2                      3
                      A                      A                      A
 Frequencies --     40.4554                49.0196                53.6460
 Red. masses --      3.5885                 3.8876                 4.0691
 Frc consts  --      0.0035                 0.0055                 0.0069
 IR Inten    --      2.2141                 0.1088                 0.6145

                      4                      5                      6
                      A                      A                      A
 Frequencies --     74.9677               114.8054               140.2880
 Red. masses --      3.3280                 2.3407                 2.7453
 Frc consts  --      0.0110                 0.0182                 0.0318
 IR Inten    --      0.5533                 0.9238                 0.1972

                      7                      8                      9
                      A                      A                      A
 Frequencies --    160.2798               193.3089               193.8805
 Red. masses --      2.8177                 2.6718                 1.1540
 Frc consts  --      0.0426                 0.0588                 0.0256
 IR Inten    --      0.0550                 2.2425                 0.7821

                     10                     11                     12
                      A                      A                      A
 Frequencies --    224.4072               269.9011               298.6073
 Red. masses --      4.2347                 2.9482                 2.5413
 Frc consts  --      0.1256                 0.1265                 0.1335
 IR Inten    --      0.1261                 0.3882                 0.9078

                     13                     14                     15
                      A                      A                      A
 Frequencies --    323.0616               350.9340               366.4770
 Red. masses --      3.0446                 2.5810                 2.9344
 Frc consts  --      0.1872                 0.1873                 0.2322
 IR Inten    --      0.9955                 4.5900                 5.4890

                     16                     17                     18
                      A                      A                      A
 Frequencies --    387.8414               441.9053               471.1026
 Red. masses --      3.5584                 2.8616                 3.0302
 Frc consts  --      0.3154                 0.3292                 0.3962
 IR Inten    --     10.1924                10.6643                 5.3802

                     19                     20                     21
                      A                      A                      A
 Frequencies --    489.3595               512.6141               549.3998
 Red. masses --      2.8720                 3.3049                 2.7647
 Frc consts  --      0.4052                 0.5117                 0.4917
 IR Inten    --      0.8252                 0.3843                11.5137

                     22                     23                     24
                      A                      A                      A
 Frequencies --    564.7369               592.4473               627.4803
 Red. masses --      1.5947                 3.7865                 2.0524
 Frc consts  --      0.2997                 0.7830                 0.4761
 IR Inten    --     13.6399                 5.5183                20.5744

                     25                     26                     27
                      A                      A                      A
 Frequencies --    632.6031               674.4159               718.7119
 Red. masses --      2.8360                 3.3631                 2.0265
 Frc consts  --      0.6687                 0.9012                 0.6167
 IR Inten    --     11.2728                 5.8126               136.1799

                     28                     29                     30
                      A                      A                      A
 Frequencies --    759.4433               762.0947               791.0741
 Red. masses --      1.5898                 1.5857                 2.4969
 Frc consts  --      0.5402                 0.5426                 0.9206
 IR Inten    --      7.7874                 8.1722                21.3604

                     31                     32                     33
                      A                      A                      A
 Frequencies --    850.3580               876.1045               891.5279
 Red. masses --      2.7154                 2.2347                 1.5813
 Frc consts  --      1.1569                 1.0106                 0.7405
 IR Inten    --     23.5966                 4.8171                10.3200

                     34                     35                     36
                      A                      A                      A
 Frequencies --    906.7854               947.7487               952.8170
 Red. masses --      2.0268                 2.5442                 2.5339
 Frc consts  --      0.9819                 1.3465                 1.3554
 IR Inten    --      4.9676                10.7577                 2.5295

                     37                     38                     39
                      A                      A                      A
 Frequencies --    977.7316               982.2593               990.0672
 Red. masses --      1.5755                 1.4975                 2.1797
 Frc consts  --      0.8874                 0.8513                 1.2588
 IR Inten    --      5.2868                 9.8926                11.4455

                     40                     41                     42
                      A                      A                      A
 Frequencies --    995.9052              1030.6193              1036.3710
 Red. masses --      2.1756                 2.3943                 2.1264
 Frc consts  --      1.2714                 1.4984                 1.3457
 IR Inten    --     18.5029                10.4337                 7.3610

                     43                     44                     45
                      A                      A                      A
 Frequencies --   1056.6438              1060.0214              1082.1886
 Red. masses --      1.9256                 2.3918                 2.0457
 Frc consts  --      1.2667                 1.5835                 1.4116
 IR Inten    --      1.2894                 4.7822                 4.2010

                     46                     47                     48
                      A                      A                      A
 Frequencies --   1088.2327              1143.8030              1148.9876
 Red. masses --      2.4312                 2.0518                 2.4901
 Frc consts  --      1.6964                 1.5816                 1.9368
 IR Inten    --     20.4142                11.1509                69.3851

                     49                     50                     51
                      A                      A                      A
 Frequencies --   1152.8434              1182.3642              1201.9218
 Red. masses --      1.8164                 2.6750                 2.4939
 Frc consts  --      1.4224                 2.2033                 2.1227
 IR Inten    --      5.8471                 4.4973                22.9495

                     52                     53                     54
                      A                      A                      A
 Frequencies --   1208.2749              1226.9894              1254.1784
 Red. masses --      1.3532                 1.1875                 1.2275
 Frc consts  --      1.1640                 1.0533                 1.1376
 IR Inten    --     16.2040                 4.8413                 2.8992

                     55                     56                     57
                      A                      A                      A
 Frequencies --   1271.1056              1278.3113              1308.6814
 Red. masses --      1.8396                 1.8048                 1.5133
 Frc consts  --      1.7512                 1.7376                 1.5270
 IR Inten    --     93.8139               151.6154                 2.8501

                     58                     59                     60
                      A                      A                      A
 Frequencies --   1316.2057              1343.5885              1350.7710
 Red. masses --      1.1806                 1.3648                 1.3954
 Frc consts  --      1.2050                 1.4516                 1.5000
 IR Inten    --      2.6806                10.1208                 7.4124

                     61                     62                     63
                      A                      A                      A
 Frequencies --   1367.2802              1375.8322              1395.0627
 Red. masses --      1.4250                 1.3710                 1.2751
 Frc consts  --      1.5696                 1.5290                 1.4621
 IR Inten    --      5.2196                 4.5023                 1.6092

                     64                     65                     66
                      A                      A                      A
 Frequencies --   1397.9975              1404.9402              1411.1207
 Red. masses --      1.5585                 1.2914                 1.3180
 Frc consts  --      1.7947                 1.5018                 1.5463
 IR Inten    --     63.9857                 2.1676                70.0002

                     67                     68                     69
                      A                      A                      A
 Frequencies --   1416.8228              1429.3876              1448.4911
 Red. masses --      1.3016                 1.3129                 1.6108
 Frc consts  --      1.5394                 1.5804                 1.9912
 IR Inten    --      4.8412                12.6126                13.0096

                     70                     71                     72
                      A                      A                      A
 Frequencies --   1450.0070              1497.8183              1499.4514
 Red. masses --      1.4168                 1.0578                 1.0760
 Frc consts  --      1.7551                 1.3983                 1.4254
 IR Inten    --      3.4526                11.3836                 0.8185

                     73                     74                     75
                      A                      A                      A
 Frequencies --   1503.1686              1506.9111              1510.4936
 Red. masses --      1.0965                 1.0491                 1.0790
 Frc consts  --      1.4597                 1.4036                 1.4505
 IR Inten    --      2.3158                 9.6333                 0.9333

                     76                     77                     78
                      A                      A                      A
 Frequencies --   1511.0823              1519.9505              1527.0008
 Red. masses --      1.2099                 1.1204                 1.1136
 Frc consts  --      1.6277                 1.5250                 1.5298
 IR Inten    --     13.4068                 6.1740                 5.0530

                     79                     80                     81
                      A                      A                      A
 Frequencies --   1532.6560              1653.4234              1706.4207
 Red. masses --      1.1067                 8.4258                 6.5512
 Frc consts  --      1.5317                13.5715                11.2394
 IR Inten    --      2.1629                60.8194                24.8351

                     82                     83                     84
                      A                      A                      A
 Frequencies --   1786.8129              2922.6344              2959.3175
 Red. masses --     10.2558                 1.0725                 1.0722
 Frc consts  --     19.2921                 5.3977                 5.5325
 IR Inten    --    109.1942                48.2665                55.6548

                     85                     86                     87
                      A                      A                      A
 Frequencies --   2968.1545              3010.5636              3024.4010
 Red. masses --      1.0811                 1.0701                 1.0634
 Frc consts  --      5.6115                 5.7144                 5.7307
 IR Inten    --     11.4188                33.1399                22.5994

                     88                     89                     90
                      A                      A                      A
 Frequencies --   3035.8882              3041.5677              3049.4088
 Red. masses --      1.0617                 1.0674                 1.0387
 Frc consts  --      5.7654                 5.8178                 5.6910
 IR Inten    --     65.8561                89.4108                 3.1081

                     91                     92                     93
                      A                      A                      A
 Frequencies --   3062.8459              3071.8037              3079.0032
 Red. masses --      1.0987                 1.0883                 1.0919
 Frc consts  --      6.0728                 6.0507                 6.0991
 IR Inten    --     18.6071                40.4077                29.1536

                     94                     95                     96
                      A                      A                      A
 Frequencies --   3085.8425              3087.8492              3102.1382
 Red. masses --      1.1029                 1.0907                 1.0976
 Frc consts  --      6.1876                 6.1274                 6.2233
 IR Inten    --     22.9082                31.9720                50.4310

                     97                     98                     99
                      A                      A                      A
 Frequencies --   3107.4363              3170.8165              3180.1113
 Red. masses --      1.0994                 1.1009                 1.0872
 Frc consts  --      6.2545                 6.5216                 6.4782
 IR Inten    --     10.1225                14.6090                10.6787

                    100                    101                    102
                      A                      A                      A
 Frequencies --   3210.1118              3214.4995              3495.3995
 Red. masses --      1.0942                 1.0900                 1.0736
 Frc consts  --      6.6435                 6.6360                 7.7282
 IR Inten    --     27.9293                 0.5845                 1.5124

 - Thermochemistry -
 -------------------
 Temperature   298.150 Kelvin.  Pressure   1.00000 Atm.
 Atom     1 has atomic number  6 and mass  12.00000

 Molecular mass:   220.15756 amu.
 Principal axes and moments of inertia in atomic units:
                           1         2         3
     Eigenvalues --  1755.126826635.779167565.86186
           X            0.99998   0.00462   0.00485
           Y           -0.00459   0.99997  -0.00636
           Z           -0.00488   0.00634   0.99997
 This molecule is an asymmetric top.
 Rotational symmetry number  1.
 Warning -- assumption of classical behavior for rotation
           may cause significant error
 Rotational temperatures (Kelvin)      0.04935     0.01305     0.01145
 Rotational constants (GHZ):           1.02827     0.27197     0.23854
 Zero-point vibrational energy     835439.7 (Joules/Mol)
                                  199.67487 (Kcal/Mol)
 Warning -- explicit consideration of  23 degrees of freedom as
           vibrations may cause significant error
 Vibrational temperatures:     58.21    70.53    77.18   107.86   165.18
          (Kelvin)            201.84   230.61   278.13   278.95   322.87
                              388.33   429.63   464.81   504.92   527.28
                              558.02   635.80   677.81   704.08   737.54
                              790.46   812.53   852.40   902.80   910.17
                              970.33  1034.07  1092.67  1096.48  1138.18
                             1223.48  1260.52  1282.71  1304.66  1363.60
                             1370.89  1406.74  1413.25  1424.49  1432.89
                             1482.83  1491.11  1520.27  1525.13  1557.03
                             1565.72  1645.68  1653.14  1658.68  1701.16
                             1729.30  1738.44  1765.36  1804.48  1828.84
                             1839.20  1882.90  1893.73  1933.12  1943.46
                             1967.21  1979.52  2007.18  2011.41  2021.40
                             2030.29  2038.49  2056.57  2084.06  2086.24
                             2155.03  2157.38  2162.72  2168.11  2173.26
                             2174.11  2186.87  2197.01  2205.15  2378.91
                             2455.16  2570.83  4205.02  4257.80  4270.51
                             4331.53  4351.44  4367.97  4376.14  4387.42
                             4406.75  4419.64  4430.00  4439.84  4442.73
                             4463.29  4470.91  4562.10  4575.47  4618.63
                             4624.95  5029.10

 Zero-point correction=                           0.318202 (Hartree/Particle)
 Thermal correction to Energy=                    0.333551
 Thermal correction to Enthalpy=                  0.334495
 Thermal correction to Gibbs Free Energy=         0.275053
 Sum of electronic and zero-point Energies=           -691.844508
 Sum of electronic and thermal Energies=              -691.829160
 Sum of electronic and thermal Enthalpies=            -691.828216
 Sum of electronic and thermal Free Energies=         -691.887658

                     E (Thermal)             CV                S
                      KCal/Mol        Cal/Mol-Kelvin    Cal/Mol-Kelvin
 Total                  209.306             59.742            125.106
 Electronic               0.000              0.000              0.000
 Translational            0.889              2.981             42.070
 Rotational               0.889              2.981             32.844
 Vibrational            207.529             53.781             50.192
 Vibration     1          0.594              1.981              5.237
 Vibration     2          0.595              1.978              4.857
 Vibration     3          0.596              1.976              4.678
 Vibration     4          0.599              1.966              4.018
 Vibration     5          0.608              1.937              3.186
 Vibration     6          0.615              1.913              2.800
 Vibration     7          0.622              1.891              2.546
 Vibration     8          0.635              1.849              2.196
 Vibration     9          0.635              1.848              2.190
 Vibration    10          0.649              1.804              1.923
 Vibration    11          0.674              1.729              1.597
 Vibration    12          0.692              1.676              1.425
 Vibration    13          0.708              1.629              1.295
 Vibration    14          0.728              1.573              1.162
 Vibration    15          0.739              1.541              1.094
 Vibration    16          0.756              1.496              1.008
 Vibration    17          0.802              1.379              0.821
 Vibration    18          0.828              1.314              0.734
 Vibration    19          0.845              1.274              0.685
 Vibration    20          0.868              1.222              0.627
 Vibration    21          0.905              1.141              0.545
 Vibration    22          0.921              1.108              0.514
 Vibration    23          0.950              1.048              0.463

 Optimization completed.
    -- Stationary point found.
 Normal termination of Gaussian 16 at Thu Dec 10 23:41:06 2020.

 ----------------------------------------------------------------------
 # B3LYP/6-311++G(d,p) empiricaldispersion=gd3bj scf=xqc pop=npa geom=c
 heck
 ----------------------------------------------------------------------

 ---------------------------------------
 CID_151320237_JID_6535_Energie_neutraal
 ---------------------------------------
 Structure from the checkpoint file:  "JID_6535.chk"
 Charge =  0 Multiplicity = 1

 SCF Done:  E(RB3LYP) =  -692.355300485     A.U. after   15 cycles
 Normal termination of Gaussian 16 at Thu Dec 10 23:47:18 2020.

 ----------------------------------------------------------------------
 # B3LYP/6-311++G(d,p) empiricaldispersion=gd3bj scf=xqc pop=npa geom=c
 heck
 ----------------------------------------------------------------------

 -------------------------------------
 CID_151320237_JID_6535_Energie_kation
 -------------------------------------
 Structure from the checkpoint file:  "JID_6535.chk"
 Charge =  1 Multiplicity = 2

 SCF Done:  E(UB3LYP) =  -692.081779483     A.U. after   25 cycles
 Normal termination of Gaussian 16 at Fri Dec 11 00:01:44 2020.
 Gaussian 16:  ES64L-G16RevA.03 25-Dec-2016

 ----------------------------------------------------------------------
 # B3LYP/6-311++G(d,p) empiricaldispersion=gd3bj scf=xqc pop=npa geom=c
 heck
 ----------------------------------------------------------------------

 ------------------------------------
 CID_151320237_JID_6535_Energie_anion
 ------------------------------------
 Structure from the checkpoint file:  "JID_6535.chk"
 Charge = -1 Multiplicity = 2

                         Standard orientation:
 ---------------------------------------------------------------------
 Center     Atomic      Atomic             Coordinates (Angstroms)
 Number     Number       Type             X           Y           Z
 ---------------------------------------------------------------------
      1          6           0        4.868902   -0.852288   -0.066181
      2          6           0        3.394709   -1.162834   -0.254663
      3          8           0        3.021143   -2.306912   -0.464796
      4          6           0        2.419616   -0.027436   -0.169623
      5          6           0        1.108136   -0.291530   -0.343453
      6          6           0        0.077814    0.806075   -0.352708
      7          6           0        0.494371    1.957892    0.590868
      8          6           0        1.956411    2.297802    0.436115
      9          6           0        2.848429    1.357473    0.089784
     10          7           0       -1.267046    0.266327   -0.137938
     11          6           0       -2.343319    1.195530   -0.493693
     12          6           0       -3.488299    0.542602   -1.282105
     13          6           0       -3.903710   -0.856179   -0.779158
     14          7           0       -3.858884   -1.096567    0.661194
     15          6           0       -2.540865   -1.425949    1.190714
     16          6           0       -1.467896   -0.327046    1.185083
     17          1           0        5.437034   -1.782226   -0.118371
     18          1           0        5.046460   -0.364388    0.899801
     19          1           0        5.224923   -0.165389   -0.844120
     20          1           0        0.786287   -1.305953   -0.559313
     21          1           0        0.083075    1.210289   -1.379980
     22          1           0       -0.135049    2.833857    0.400498
     23          1           0        0.308101    1.666728    1.637048
     24          1           0        2.284647    3.307311    0.671386
     25          1           0        3.902981    1.604941    0.020932
     26          1           0       -1.927993    2.009392   -1.098541
     27          1           0       -2.749641    1.671764    0.415950
     28          1           0       -4.347962    1.226815   -1.248852
     29          1           0       -3.204030    0.453429   -2.338769
     30          1           0       -4.919747   -1.067818   -1.138327
     31          1           0       -3.249739   -1.605942   -1.235675
     32          1           0       -4.283805   -0.330539    1.179919
     33          1           0       -2.166708   -2.276846    0.608839
     34          1           0       -2.663398   -1.773931    2.225338
     35          1           0       -0.523270   -0.773582    1.518056
     36          1           0       -1.735590    0.444394    1.933884
 ---------------------------------------------------------------------

 SCF Done:  E(UB3LYP) =  -692.369046566     A.U. after   31 cycles

 The electronic state is 2-A.
 Alpha  occ. eigenvalues --  -18.92649 -14.19722 -14.18326 -10.09245 -10.08577
 Alpha  occ. eigenvalues --  -10.08390 -10.07677 -10.07338 -10.06568 -10.06373
 Alpha  occ. eigenvalues --  -10.03580 -10.03145 -10.02312 -10.01877 -10.00033
 Alpha  occ. eigenvalues --   -9.98819  -0.86491  -0.82009  -0.78949  -0.69027
 Alpha  occ. eigenvalues --   -0.67336  -0.62012  -0.60613  -0.58751  -0.57653
 Alpha  occ. eigenvalues --   -0.56522  -0.50329  -0.48801  -0.45709  -0.44106
 Alpha  occ. eigenvalues --   -0.40334  -0.38727  -0.37529  -0.36201  -0.35222
 Alpha  occ. eigenvalues --   -0.35028  -0.33557  -0.31565  -0.30884  -0.29707
 Alpha  occ. eigenvalues --   -0.29558  -0.29350  -0.28741  -0.27173  -0.26870
 Alpha  occ. eigenvalues --   -0.25877  -0.25762  -0.24686  -0.24364  -0.23505
 Alpha  occ. eigenvalues --   -0.22621  -0.22451  -0.21045  -0.19683  -0.18165
 Alpha  occ. eigenvalues --   -0.15739  -0.12419  -0.09966  -0.08613  -0.07108
 Alpha  occ. eigenvalues --    0.04297
 Alpha virt. eigenvalues --    0.06729   0.08182   0.08509   0.08960   0.09747
 Alpha virt. eigenvalues --    0.10223   0.11206   0.11249   0.11483   0.12164
 Alpha virt. eigenvalues --    0.12313   0.12783   0.13459   0.13921   0.14606

  Beta  occ. eigenvalues --  -18.92391 -14.19713 -14.18310 -10.09243 -10.08577
  Beta  occ. eigenvalues --  -10.08376 -10.07439 -10.07320 -10.06565 -10.06413
  Beta  occ. eigenvalues --  -10.03559 -10.03160 -10.02285 -10.01717 -10.00035
  Beta  occ. eigenvalues --   -9.98191  -0.85990  -0.81978  -0.78909  -0.68696
  Beta  occ. eigenvalues --   -0.67299  -0.61832  -0.60256  -0.58358  -0.57596
  Beta  occ. eigenvalues --   -0.56376  -0.50237  -0.48714  -0.45201  -0.43762
  Beta  occ. eigenvalues --   -0.40036  -0.38640  -0.37303  -0.36148  -0.35154
  Beta  occ. eigenvalues --   -0.34856  -0.33325  -0.31487  -0.30685  -0.29437
  Beta  occ. eigenvalues --   -0.29300  -0.29202  -0.28653  -0.27057  -0.26707
  Beta  occ. eigenvalues --   -0.25824  -0.25595  -0.24513  -0.24236  -0.23389
  Beta  occ. eigenvalues --   -0.22589  -0.22177  -0.19818  -0.19426  -0.17882
  Beta  occ. eigenvalues --   -0.14744  -0.12393  -0.09732  -0.08342  -0.05349
  Beta virt. eigenvalues --    0.06642   0.08094   0.08450   0.08894   0.09636
  Beta virt. eigenvalues --    0.10130   0.10967   0.11136   0.11152   0.11448
  Beta virt. eigenvalues --    0.12178   0.12474   0.12799   0.13393   0.14445

 Mulliken charges and spin densities:
               1          2
     1  C   -0.513521  -0.010417
     2  C   -0.182029   0.161762
     3  O   -0.363420   0.099887
     4  C    0.983980  -0.031145
     5  C   -0.192410   0.567364
     6  C   -0.362496   0.172051
     7  C   -0.113720  -0.256807
     8  C   -0.254001   0.351809
     9  C   -1.287443  -0.109585
    10  N    0.400009  -0.027107
    11  C    0.063546  -0.108370
    12  C   -0.194220  -0.155286
    13  C   -0.368241  -0.058846
    14  N   -0.132438   0.020871
    15  C   -0.376156  -0.219315
    16  C   -0.365400   0.068408
    17  H    0.145774  -0.000999
    18  H    0.125905   0.007616
    19  H    0.123103   0.005262
    20  H    0.207810  -0.045025
    21  H    0.074504   0.066807
    22  H    0.026304   0.066619
    23  H    0.105658   0.004325
    24  H    0.131690   0.008617
    25  H    0.092331  -0.005199
    26  H    0.083286   0.072270
    27  H    0.054477   0.075081
    28  H    0.045154   0.075014
    29  H    0.120906   0.014694
    30  H    0.126983   0.034419
    31  H    0.152100  -0.005262
    32  H    0.164284   0.044115
    33  H    0.156087   0.014911
    34  H    0.112727   0.032646
    35  H    0.150483   0.037715
    36  H    0.058394   0.031100
 Sum of Mulliken charges =  -1.00000   1.00000

 Dipole moment (field-independent basis, Debye):
    X=             -5.3773    Y=              3.4381    Z=              0.9007  Tot=              6.4457
 Quadrupole moment (field-independent basis, Debye-Ang):
   XX=           -149.2073   YY=           -128.9201   ZZ=           -109.4621
   XY=              6.2562   XZ=              3.5865   YZ=             -1.8468

 Summary of Natural Population Analysis:

                                       Natural Population
                Natural  -----------------------------------------------
    Atom  No    Charge         Core      Valence    Rydberg      Total
 -----------------------------------------------------------------------
      C    1   -0.33085      0.99964     2.32701    0.00420     3.33085
      C    2    0.30563      0.99964     1.67414    0.02059     2.69437
      O    3   -0.29226      0.99988     3.28499    0.00739     4.29226
      C    4   -0.11409      0.99942     2.10348    0.01119     3.11409
      C    5    0.08412      0.99948     1.90731    0.00909     2.91588
      C    6   -0.01771      0.99957     2.00379    0.01435     3.01771
      C    7   -0.20866      0.99961     2.20167    0.00738     3.20866
      C    8   -0.08050      0.99956     2.07082    0.01012     3.08050
      C    9   -0.09772      0.99952     2.08997    0.00823     3.09772
      N   10   -0.28430      0.99969     2.77051    0.01410     3.78430
      C   11   -0.08727      0.99962     2.07310    0.01455     3.08727
      C   12   -0.19985      0.99963     2.19198    0.00824     3.19985
      C   13   -0.08834      0.99963     2.07739    0.01132     3.08834
      N   14   -0.34385      0.99976     2.83140    0.01269     3.84385
      C   15   -0.08804      0.99962     2.07721    0.01121     3.08804
      C   16   -0.09368      0.99961     2.08381    0.01026     3.09368
      H   17    0.10013      0.00000     0.39818    0.00169     0.39987
      H   18    0.10135      0.00000     0.39766    0.00099     0.39865
      H   19    0.10032      0.00000     0.39868    0.00100     0.39968
      H   20    0.09961      0.00000     0.39909    0.00131     0.40039
      H   21    0.10015      0.00000     0.39784    0.00201     0.39985
      H   22    0.09359      0.00000     0.40465    0.00176     0.40641
      H   23    0.09607      0.00000     0.40249    0.00144     0.40393
      H   24    0.08336      0.00000     0.41486    0.00177     0.41664
      H   25    0.09085      0.00000     0.40803    0.00112     0.40915
      H   26    0.09888      0.00000     0.39991    0.00122     0.40112
      H   27    0.07659      0.00000     0.42105    0.00235     0.42341
      H   28    0.08763      0.00000     0.41064    0.00173     0.41237
      H   29    0.09623      0.00000     0.40243    0.00134     0.40377
      H   30    0.08650      0.00000     0.41238    0.00112     0.41350
      H   31    0.09530      0.00000     0.40320    0.00149     0.40470
      H   32    0.16652      0.00000     0.33052    0.00296     0.33348
      H   33    0.09274      0.00000     0.40583    0.00143     0.40726
      H   34    0.08811      0.00000     0.41071    0.00118     0.41189
      H   35    0.11117      0.00000     0.38717    0.00166     0.38883
      H   36    0.07226      0.00000     0.42535    0.00240     0.42774
 =======================================================================
   * Total *   -0.00000     15.99386    43.79926    0.20688    60.00000

 Normal termination of Gaussian 16 at Fri Dec 11 00:19:27 2020.
