 Gaussian 16, Revision A.03,

 -----------------------------------------------------------
 # opt freq B3LYP/6-31G(d) empiricaldispersion=gd3bj scf=xqc
 -----------------------------------------------------------

 -------------------------------
 CID_115131382_JID_6095_neutraal
 -------------------------------
 Symbolic Z-matrix:
 Charge =  0 Multiplicity = 1

 SCF Done:  E(RB3LYP) =  -655.070662581     A.U. after   15 cycles
 SCF Done:  E(RB3LYP) =  -655.092876508     A.U. after   13 cycles
 SCF Done:  E(RB3LYP) =  -655.086606568     A.U. after   15 cycles
 SCF Done:  E(RB3LYP) =  -655.092886847     A.U. after   13 cycles
 SCF Done:  E(RB3LYP) =  -655.096257088     A.U. after   14 cycles
 SCF Done:  E(RB3LYP) =  -655.096995465     A.U. after   12 cycles
 SCF Done:  E(RB3LYP) =  -655.097190602     A.U. after   11 cycles
 SCF Done:  E(RB3LYP) =  -655.097311014     A.U. after   11 cycles
 SCF Done:  E(RB3LYP) =  -655.097348680     A.U. after   10 cycles
 SCF Done:  E(RB3LYP) =  -655.097362266     A.U. after   11 cycles
 SCF Done:  E(RB3LYP) =  -655.097457561     A.U. after    9 cycles
 SCF Done:  E(RB3LYP) =  -655.097457678     A.U. after    8 cycles
 SCF Done:  E(RB3LYP) =  -655.097457692     A.U. after    8 cycles
 SCF Done:  E(RB3LYP) =  -655.097457712     A.U. after    6 cycles
 SCF Done:  E(RB3LYP) =  -655.097457728     A.U. after    6 cycles
 Optimization completed.
    -- Stationary point found.
 Normal termination of Gaussian 16 at Thu Dec 10 21:33:42 2020.

 --------------------------------------------------------------------
 #N Geom=AllCheck Guess=TCheck SCRF=Check GenChk RB3LYP/6-31G(d) Freq
 --------------------------------------------------------------------

 Structure from the checkpoint file:  "JID_6095.chk"
 -------------------------------
 CID_115131382_JID_6095_neutraal
 -------------------------------
 Charge =  0 Multiplicity = 1

 SCF Done:  E(RB3LYP) =  -655.097457728     A.U. after    1 cycles

  Exact polarizability: 173.829  18.801 156.695  17.348 -13.651 128.673
 Approx polarizability: 230.725  29.633 251.230  33.984 -32.685 204.076

                      1                      2                      3
                      A                      A                      A
 Frequencies --     14.4958                34.2540                54.3763
 Red. masses --      5.7339                 4.2825                 3.9653
 Frc consts  --      0.0007                 0.0030                 0.0069
 IR Inten    --      1.4801                 0.9686                 0.2105

                      4                      5                      6
                      A                      A                      A
 Frequencies --     72.4429               118.4521               136.5613
 Red. masses --      4.5386                 3.1923                 1.7797
 Frc consts  --      0.0140                 0.0264                 0.0196
 IR Inten    --      2.4106                 0.4156                 2.8363

                      7                      8                      9
                      A                      A                      A
 Frequencies --    137.9498               156.0027               167.5802
 Red. masses --      1.4802                 1.5286                 2.3010
 Frc consts  --      0.0166                 0.0219                 0.0381
 IR Inten    --      2.0162                 6.0015                 2.2289

                     10                     11                     12
                      A                      A                      A
 Frequencies --    191.5921               199.8243               229.4848
 Red. masses --      1.1385                 1.7135                 1.6181
 Frc consts  --      0.0246                 0.0403                 0.0502
 IR Inten    --      0.4062                 2.5314                 0.5883

                     13                     14                     15
                      A                      A                      A
 Frequencies --    257.9326               288.9173               299.3392
 Red. masses --      2.2048                 2.2259                 2.5341
 Frc consts  --      0.0864                 0.1095                 0.1338
 IR Inten    --      0.1054                 1.7866                 0.0870

                     16                     17                     18
                      A                      A                      A
 Frequencies --    302.8416               337.9771               356.5720
 Red. masses --      2.5003                 2.4686                 4.1608
 Frc consts  --      0.1351                 0.1661                 0.3117
 IR Inten    --      0.5424                 2.3480                 0.7464

                     19                     20                     21
                      A                      A                      A
 Frequencies --    366.6743               381.1717               432.6684
 Red. masses --      3.6703                 2.6910                 1.9763
 Frc consts  --      0.2907                 0.2304                 0.2180
 IR Inten    --      0.0816                 2.4385                 1.9804

                     22                     23                     24
                      A                      A                      A
 Frequencies --    442.8525               460.7795               506.1601
 Red. masses --      3.8034                 2.7626                 2.8943
 Frc consts  --      0.4395                 0.3456                 0.4369
 IR Inten    --      0.8538                 0.5198                 2.8044

                     25                     26                     27
                      A                      A                      A
 Frequencies --    522.4031               536.1480               619.9824
 Red. masses --      3.2181                 2.8651                 4.2895
 Frc consts  --      0.5174                 0.4852                 0.9715
 IR Inten    --      0.1518                 3.7714                 2.5885

                     28                     29                     30
                      A                      A                      A
 Frequencies --    636.4587               669.9080               737.4417
 Red. masses --      3.8033                 3.6781                 3.1818
 Frc consts  --      0.9077                 0.9725                 1.0195
 IR Inten    --      3.2229                 0.8752                 0.0790

                     31                     32                     33
                      A                      A                      A
 Frequencies --    757.4598               781.2126               822.7395
 Red. masses --      5.0429                 3.0546                 2.9504
 Frc consts  --      1.7047                 1.0984                 1.1767
 IR Inten    --      0.3859                 3.2147                 1.5351

                     34                     35                     36
                      A                      A                      A
 Frequencies --    887.1027               891.4646               904.7677
 Red. masses --      1.4201                 4.3274                 1.3251
 Frc consts  --      0.6584                 2.0262                 0.6391
 IR Inten    --     19.3423                13.6089                 0.9658

                     37                     38                     39
                      A                      A                      A
 Frequencies --    936.0952               968.2372               993.7755
 Red. masses --      2.2152                 2.5412                 1.8952
 Frc consts  --      1.1437                 1.4036                 1.1028
 IR Inten    --      6.0757                14.4084                 5.5266

                     40                     41                     42
                      A                      A                      A
 Frequencies --   1020.2985              1030.8149              1047.1164
 Red. masses --      1.5690                 1.4208                 1.7493
 Frc consts  --      0.9623                 0.8895                 1.1301
 IR Inten    --      2.9691                14.6691                 1.8194

                     43                     44                     45
                      A                      A                      A
 Frequencies --   1059.8149              1069.8396              1076.0672
 Red. masses --      1.4297                 1.9864                 2.1203
 Frc consts  --      0.9462                 1.3395                 1.4465
 IR Inten    --      4.1850                12.0535                28.0892

                     46                     47                     48
                      A                      A                      A
 Frequencies --   1081.1670              1086.5112              1103.1693
 Red. masses --      1.6360                 1.5829                 2.7060
 Frc consts  --      1.1267                 1.1010                 1.9403
 IR Inten    --      1.1360                 0.0999                 2.8171

                     49                     50                     51
                      A                      A                      A
 Frequencies --   1152.7480              1177.7302              1212.8524
 Red. masses --      1.7877                 1.5928                 2.8713
 Frc consts  --      1.3996                 1.3017                 2.4885
 IR Inten    --     29.7910                 6.4807                 3.2437

                     52                     53                     54
                      A                      A                      A
 Frequencies --   1231.3162              1236.3747              1250.8066
 Red. masses --      1.5628                 1.4715                 1.5862
 Frc consts  --      1.3960                 1.3253                 1.4622
 IR Inten    --      7.3320                 1.6145                 0.1715

                     55                     56                     57
                      A                      A                      A
 Frequencies --   1307.6395              1324.0366              1333.4241
 Red. masses --      5.1392                 1.3005                 1.5296
 Frc consts  --      5.1775                 1.3433                 1.6024
 IR Inten    --      0.2585                 0.6944                 7.8784

                     58                     59                     60
                      A                      A                      A
 Frequencies --   1352.3027              1366.7740              1382.5038
 Red. masses --      3.6628                 1.5078                 1.2546
 Frc consts  --      3.9465                 1.6595                 1.4128
 IR Inten    --      0.4199                 2.0057                 9.3631

                     61                     62                     63
                      A                      A                      A
 Frequencies --   1397.5805              1424.0766              1436.0661
 Red. masses --      1.3173                 1.6094                 1.3712
 Frc consts  --      1.5159                 1.9230                 1.6661
 IR Inten    --      3.7959                17.4054                 9.6018

                     64                     65                     66
                      A                      A                      A
 Frequencies --   1442.7346              1450.6258              1451.7653
 Red. masses --      1.2746                 1.6656                 1.4348
 Frc consts  --      1.5631                 2.0651                 1.7816
 IR Inten    --      3.1850                 1.9820                 1.3595

                     67                     68                     69
                      A                      A                      A
 Frequencies --   1482.9469              1495.3597              1506.8194
 Red. masses --      1.1374                 1.1028                 1.0453
 Frc consts  --      1.4737                 1.4529                 1.3984
 IR Inten    --      1.2962                 3.0138                 0.0277

                     70                     71                     72
                      A                      A                      A
 Frequencies --   1512.0545              1517.1397              1520.9375
 Red. masses --      1.0956                 1.0548                 1.0501
 Frc consts  --      1.4759                 1.4304                 1.4312
 IR Inten    --      4.1511                 1.6267                14.3223

                     73                     74                     75
                      A                      A                      A
 Frequencies --   1522.1443              1523.5281              1524.9671
 Red. masses --      1.0472                 1.1202                 1.1222
 Frc consts  --      1.4295                 1.5319                 1.5376
 IR Inten    --     14.6391                 8.0284                 0.3210

                     76                     77                     78
                      A                      A                      A
 Frequencies --   1528.6900              1540.6013              1542.2835
 Red. masses --      1.1032                 1.1325                 1.0588
 Frc consts  --      1.5189                 1.5837                 1.4839
 IR Inten    --      4.8445                14.1520                 4.3407

                     79                     80                     81
                      A                      A                      A
 Frequencies --   1558.0840              1622.4169              1678.8959
 Red. masses --      2.5613                 6.0918                 6.0162
 Frc consts  --      3.6634                 9.4476                 9.9912
 IR Inten    --     23.2257                 0.3162                 0.6795

                     82                     83                     84
                      A                      A                      A
 Frequencies --   2353.1805              2983.7695              2991.9195
 Red. masses --     12.5559                 1.0575                 1.0685
 Frc consts  --     40.9646                 5.5468                 5.6355
 IR Inten    --      1.8140                42.8107                44.7922

                     85                     86                     87
                      A                      A                      A
 Frequencies --   3037.4783              3038.6531              3041.4541
 Red. masses --      1.0388                 1.0383                 1.0398
 Frc consts  --      5.6469                 5.6484                 5.6673
 IR Inten    --     15.5152                58.3346                22.8358

                     88                     89                     90
                      A                      A                      A
 Frequencies --   3045.9797              3079.6927              3084.2133
 Red. masses --      1.0685                 1.0685                 1.1002
 Frc consts  --      5.8410                 5.9706                 6.1660
 IR Inten    --     30.6959                10.6584                37.3974

                     91                     92                     93
                      A                      A                      A
 Frequencies --   3086.2795              3088.6396              3092.9288
 Red. masses --      1.1001                 1.0802                 1.0903
 Frc consts  --      6.1740                 6.0711                 6.1451
 IR Inten    --      3.2021                28.8575                35.4974

                     94                     95                     96
                      A                      A                      A
 Frequencies --   3098.3813              3118.3722              3126.6742
 Red. masses --      1.0975                 1.0950                 1.1000
 Frc consts  --      6.2073                 6.2738                 6.3356
 IR Inten    --     13.1967                25.3530                25.3486

                     97                     98                     99
                      A                      A                      A
 Frequencies --   3127.8800              3129.6046              3132.8972
 Red. masses --      1.1013                 1.0997                 1.1031
 Frc consts  --      6.3482                 6.3459                 6.3788
 IR Inten    --     11.3213                 9.3766                29.9940

                    100                    101                    102
                      A                      A                      A
 Frequencies --   3153.4179              3163.6830              3168.2763
 Red. masses --      1.0950                 1.0893                 1.0897
 Frc consts  --      6.4155                 6.4237                 6.4446
 IR Inten    --      7.4014                31.9077                14.2857

 - Thermochemistry -
 -------------------
 Temperature   298.150 Kelvin.  Pressure   1.00000 Atm.
 Atom     1 has atomic number  6 and mass  12.00000

 Molecular mass:   216.16265 amu.
 Principal axes and moments of inertia in atomic units:
                           1         2         3
     Eigenvalues --  2396.095494884.399615822.86543
           X            0.99923   0.03796   0.00960
           Y           -0.03754   0.99844  -0.04143
           Z           -0.01116   0.04103   0.99910
 This molecule is an asymmetric top.
 Rotational symmetry number  1.
 Warning -- assumption of classical behavior for rotation
           may cause significant error
 Rotational temperatures (Kelvin)      0.03615     0.01773     0.01487
 Rotational constants (GHZ):           0.75320     0.36949     0.30994
 Zero-point vibrational energy     827448.0 (Joules/Mol)
                                  197.76481 (Kcal/Mol)
 Warning -- explicit consideration of  27 degrees of freedom as
           vibrations may cause significant error
 Vibrational temperatures:     20.86    49.28    78.24   104.23   170.43
          (Kelvin)            196.48   198.48   224.45   241.11   275.66
                              287.50   330.18   371.11   415.69   430.68
                              435.72   486.27   513.03   527.56   548.42
                              622.51   637.17   662.96   728.25   751.62
                              771.40   892.02   915.72   963.85  1061.01
                             1089.82  1123.99  1183.74  1276.34  1282.62
                             1301.76  1346.83  1393.08  1429.82  1467.98
                             1483.11  1506.57  1524.84  1539.26  1548.22
                             1555.56  1563.25  1587.21  1658.55  1694.49
                             1745.02  1771.59  1778.87  1799.63  1881.40
                             1904.99  1918.50  1945.66  1966.48  1989.11
                             2010.81  2048.93  2066.18  2075.77  2087.13
                             2088.77  2133.63  2151.49  2167.98  2175.51
                             2182.83  2188.29  2190.03  2192.02  2194.09
                             2199.44  2216.58  2219.00  2241.74  2334.30
                             2415.56  3385.70  4292.98  4304.70  4370.25
                             4371.94  4375.97  4382.49  4430.99  4437.50
                             4440.47  4443.86  4450.03  4457.88  4486.64
                             4498.59  4500.32  4502.80  4507.54  4537.07
                             4551.83  4558.44

 Zero-point correction=                           0.315158 (Hartree/Particle)
 Thermal correction to Energy=                    0.332462
 Thermal correction to Enthalpy=                  0.333406
 Thermal correction to Gibbs Free Energy=         0.269215
 Sum of electronic and zero-point Energies=           -654.782299
 Sum of electronic and thermal Energies=              -654.764996
 Sum of electronic and thermal Enthalpies=            -654.764052
 Sum of electronic and thermal Free Energies=         -654.828242

                     E (Thermal)             CV                S
                      KCal/Mol        Cal/Mol-Kelvin    Cal/Mol-Kelvin
 Total                  208.623             64.359            135.100
 Electronic               0.000              0.000              0.000
 Translational            0.889              2.981             42.016
 Rotational               0.889              2.981             32.588
 Vibrational            206.845             58.398             60.496
 Vibration     1          0.593              1.986              7.273
 Vibration     2          0.594              1.983              5.566
 Vibration     3          0.596              1.976              4.652
 Vibration     4          0.599              1.967              4.086
 Vibration     5          0.609              1.934              3.125
 Vibration     6          0.614              1.917              2.851
 Vibration     7          0.614              1.915              2.832
 Vibration     8          0.620              1.896              2.598
 Vibration     9          0.624              1.882              2.462
 Vibration    10          0.634              1.851              2.212
 Vibration    11          0.638              1.840              2.135
 Vibration    12          0.652              1.796              1.883
 Vibration    13          0.667              1.749              1.676
 Vibration    14          0.685              1.694              1.480
 Vibration    15          0.692              1.675              1.421
 Vibration    16          0.694              1.668              1.401
 Vibration    17          0.718              1.600              1.222
 Vibration    18          0.732              1.562              1.137
 Vibration    19          0.740              1.541              1.094
 Vibration    20          0.751              1.510              1.035
 Vibration    21          0.794              1.399              0.850
 Vibration    22          0.802              1.377              0.818
 Vibration    23          0.819              1.337              0.764
 Vibration    24          0.861              1.236              0.643
 Vibration    25          0.877              1.200              0.604
 Vibration    26          0.891              1.170              0.574
 Vibration    27          0.980              0.990              0.417

 Optimization completed.
    -- Stationary point found.
 Normal termination of Gaussian 16 at Thu Dec 10 21:47:10 2020.

 ----------------------------------------------------------------------
 # B3LYP/6-311++G(d,p) empiricaldispersion=gd3bj scf=xqc pop=npa geom=c
 heck
 ----------------------------------------------------------------------

 ---------------------------------------
 CID_115131382_JID_6095_Energie_neutraal
 ---------------------------------------
 Structure from the checkpoint file:  "JID_6095.chk"
 Charge =  0 Multiplicity = 1

 SCF Done:  E(RB3LYP) =  -655.270137518     A.U. after   15 cycles
 Normal termination of Gaussian 16 at Thu Dec 10 21:53:31 2020.

 ----------------------------------------------------------------------
 # B3LYP/6-311++G(d,p) empiricaldispersion=gd3bj scf=xqc pop=npa geom=c
 heck
 ----------------------------------------------------------------------

 -------------------------------------
 CID_115131382_JID_6095_Energie_kation
 -------------------------------------
 Structure from the checkpoint file:  "JID_6095.chk"
 Charge =  1 Multiplicity = 2

 SCF Done:  E(UB3LYP) =  -654.983062547     A.U. after   23 cycles
 Normal termination of Gaussian 16 at Thu Dec 10 22:09:23 2020.
 Gaussian 16:  ES64L-G16RevA.03 25-Dec-2016

 ----------------------------------------------------------------------
 # B3LYP/6-311++G(d,p) empiricaldispersion=gd3bj scf=xqc pop=npa geom=c
 heck
 ----------------------------------------------------------------------

 ------------------------------------
 CID_115131382_JID_6095_Energie_anion
 ------------------------------------
 Structure from the checkpoint file:  "JID_6095.chk"
 Charge = -1 Multiplicity = 2

                         Standard orientation:
 ---------------------------------------------------------------------
 Center     Atomic      Atomic             Coordinates (Angstroms)
 Number     Number       Type             X           Y           Z
 ---------------------------------------------------------------------
      1          6           0       -3.939224   -0.242679   -1.199191
      2          6           0       -2.678831    0.107587   -0.448947
      3          6           0       -1.953323    1.254116   -0.780072
      4          6           0       -0.773055    1.622991   -0.124740
      5          6           0       -0.305062    0.801669    0.916502
      6          6           0       -1.037500   -0.340802    1.256283
      7          6           0       -2.209683   -0.711228    0.596135
      8          6           0       -2.950737   -1.962545    0.994273
      9          6           0        0.999603    1.075339    1.631360
     10          6           0        2.170469    0.177700    1.191954
     11          7           0        2.554159    0.338730   -0.220851
     12          6           0        3.985725    0.124808   -0.430585
     13          6           0        1.760433   -0.473840   -1.139036
     14          6           0        1.890003   -1.934722   -0.908692
     15          7           0        2.025261   -3.062039   -0.665401
     16          6           0       -0.018496    2.855855   -0.566195
     17          1           0       -4.153170    0.494937   -1.978246
     18          1           0       -3.863952   -1.226673   -1.679579
     19          1           0       -4.808812   -0.286188   -0.530796
     20          1           0       -2.318008    1.884898   -1.588418
     21          1           0       -0.670327   -0.975066    2.061279
     22          1           0       -3.024198   -2.670752    0.159121
     23          1           0       -2.446924   -2.473203    1.819918
     24          1           0       -3.978069   -1.741642    1.311425
     25          1           0        1.300133    2.118764    1.505878
     26          1           0        0.862119    0.911494    2.708415
     27          1           0        3.042005    0.450874    1.795248
     28          1           0        1.947216   -0.876799    1.426429
     29          1           0        4.320037   -0.893971   -0.168632
     30          1           0        4.228205    0.303682   -1.483524
     31          1           0        4.549035    0.841552    0.173713
     32          1           0        0.705085   -0.210741   -1.054723
     33          1           0        2.073327   -0.255619   -2.165904
     34          1           0        1.018187    2.614720   -0.826147
     35          1           0       -0.495600    3.310272   -1.439789
     36          1           0        0.015844    3.617121    0.223799
 ---------------------------------------------------------------------

 SCF Done:  E(UB3LYP) =  -655.258132997     A.U. after   33 cycles
 SCF Done:  E(UB3LYP) =  -655.258132997     a.u. after    1 cycles

 The electronic state is 2-A.
 Alpha  occ. eigenvalues --  -14.23072 -14.22191 -10.14115 -10.11842 -10.10683
 Alpha  occ. eigenvalues --  -10.09823 -10.08668 -10.08572 -10.08526 -10.08231
 Alpha  occ. eigenvalues --  -10.07909 -10.07830 -10.07596 -10.07506 -10.07427
 Alpha  occ. eigenvalues --  -10.06917  -0.85161  -0.81250  -0.77378  -0.71150
 Alpha  occ. eigenvalues --   -0.68528  -0.66516  -0.64779  -0.62744  -0.60039
 Alpha  occ. eigenvalues --   -0.57196  -0.55175  -0.51836  -0.50128  -0.45745
 Alpha  occ. eigenvalues --   -0.42508  -0.41124  -0.40502  -0.39089  -0.37991
 Alpha  occ. eigenvalues --   -0.35082  -0.34616  -0.34079  -0.33533  -0.32397
 Alpha  occ. eigenvalues --   -0.32168  -0.31424  -0.31047  -0.30519  -0.29939
 Alpha  occ. eigenvalues --   -0.29681  -0.28364  -0.28124  -0.27923  -0.27819
 Alpha  occ. eigenvalues --   -0.27006  -0.24672  -0.24348  -0.24005  -0.23407
 Alpha  occ. eigenvalues --   -0.23122  -0.15338  -0.14940  -0.13329   0.04037
 Alpha virt. eigenvalues --    0.05680   0.06412   0.07029   0.07829   0.07888
 Alpha virt. eigenvalues --    0.08198   0.08566   0.09090   0.09660   0.10025
 Alpha virt. eigenvalues --    0.10386   0.10737   0.10904   0.11202   0.11326

  Beta  occ. eigenvalues --  -14.23068 -14.22185 -10.14091 -10.11842 -10.10663
  Beta  occ. eigenvalues --  -10.09784 -10.08669 -10.08557 -10.08520 -10.08220
  Beta  occ. eigenvalues --  -10.07896 -10.07811 -10.07568 -10.07495 -10.07418
  Beta  occ. eigenvalues --  -10.06896  -0.85144  -0.81239  -0.77355  -0.71119
  Beta  occ. eigenvalues --   -0.68500  -0.66478  -0.64737  -0.62712  -0.59990
  Beta  occ. eigenvalues --   -0.57147  -0.55124  -0.51787  -0.50094  -0.45704
  Beta  occ. eigenvalues --   -0.42465  -0.41102  -0.40452  -0.39069  -0.37952
  Beta  occ. eigenvalues --   -0.35042  -0.34576  -0.34043  -0.33506  -0.32364
  Beta  occ. eigenvalues --   -0.32136  -0.31393  -0.31015  -0.30492  -0.29907
  Beta  occ. eigenvalues --   -0.29641  -0.28337  -0.28079  -0.27910  -0.27787
  Beta  occ. eigenvalues --   -0.26981  -0.24654  -0.24321  -0.23981  -0.23381
  Beta  occ. eigenvalues --   -0.23096  -0.15286  -0.14903  -0.13277
  Beta virt. eigenvalues --    0.06006   0.06655   0.06946   0.07406   0.08086
  Beta virt. eigenvalues --    0.08400   0.08568   0.08862   0.09442   0.09894
  Beta virt. eigenvalues --    0.10222   0.10749   0.10993   0.11037   0.11447

 Mulliken charges and spin densities:
               1          2
     1  C    1.309567  -1.885426
     2  C   -0.501509   0.724229
     3  C    0.669290  -1.329945
     4  C   -0.297380   0.690246
     5  C   -0.157912   0.917125
     6  C   -0.430258  -0.013636
     7  C   -0.992044   1.363645
     8  C    0.109340  -0.779162
     9  C   -0.777515   0.057733
    10  C    0.570022  -0.976316
    11  N    0.062277   0.191679
    12  C    0.644198  -0.984650
    13  C   -0.274027   0.064466
    14  C    0.267384  -0.316673
    15  N   -0.329577   0.014992
    16  C    0.930666  -1.616902
    17  H   -0.293855   0.438018
    18  H   -0.060709   0.215322
    19  H   -0.130740   0.285711
    20  H   -0.283722   0.445377
    21  H    0.111003   0.044458
    22  H    0.050183   0.104137
    23  H   -0.025143   0.161133
    24  H   -0.042677   0.192415
    25  H   -0.002193   0.148208
    26  H   -0.247297   0.426954
    27  H   -0.278586   0.448628
    28  H    0.140719  -0.025160
    29  H    0.083241   0.065783
    30  H   -0.218423   0.361545
    31  H   -0.488736   0.643220
    32  H    0.549224  -0.461062
    33  H   -0.365668   0.598161
    34  H   -0.161374   0.349707
    35  H   -0.036702   0.169225
    36  H   -0.101070   0.266812
 Sum of Mulliken charges =  -1.00000   1.00000

 Dipole moment (field-independent basis, Debye):
    X=             -2.2387    Y=             -0.6461    Z=              1.4212  Tot=              2.7292
 Quadrupole moment (field-independent basis, Debye-Ang):
   XX=           -182.4525   YY=           -152.1948   ZZ=           -137.5432
   XY=             -1.5727   XZ=             -2.7182   YZ=             -1.4839

 Summary of Natural Population Analysis:

                                       Natural Population
                Natural  -----------------------------------------------
    Atom  No    Charge         Core      Valence    Rydberg      Total
 -----------------------------------------------------------------------
      C    1   -0.29241      0.99964     2.28788    0.00489     3.29241
      C    2   -0.01288      0.99947     2.00326    0.01015     3.01288
      C    3   -0.09701      0.99947     2.08817    0.00937     3.09701
      C    4   -0.01660      0.99946     2.00708    0.01006     3.01660
      C    5   -0.02088      0.99946     2.01054    0.01088     3.02088
      C    6   -0.09393      0.99947     2.08599    0.00847     3.09393
      C    7   -0.01798      0.99947     2.00854    0.00997     3.01798
      C    8   -0.29189      0.99964     2.28767    0.00458     3.29189
      C    9   -0.20152      0.99959     2.19182    0.01010     3.20152
      C   10   -0.07911      0.99959     2.06847    0.01105     3.07911
      N   11   -0.27522      0.99974     2.76128    0.01420     3.77522
      C   12   -0.17740      0.99964     2.16901    0.00876     3.17740
      C   13   -0.14285      0.99951     2.13192    0.01142     3.14285
      C   14    0.15265      0.99965     1.83145    0.01625     2.84735
      N   15   -0.18721      0.99979     2.67634    0.01108     3.68721
      C   16   -0.29878      0.99963     2.29318    0.00596     3.29878
      H   17    0.10304      0.00000     0.39588    0.00108     0.39696
      H   18    0.10309      0.00000     0.39563    0.00129     0.39691
      H   19    0.10420      0.00000     0.39416    0.00164     0.39580
      H   20    0.09702      0.00000     0.40155    0.00143     0.40298
      H   21    0.09675      0.00000     0.40160    0.00165     0.40325
      H   22    0.10417      0.00000     0.39464    0.00119     0.39583
      H   23    0.10192      0.00000     0.39726    0.00082     0.39808
      H   24    0.10307      0.00000     0.39570    0.00123     0.39693
      H   25    0.10608      0.00000     0.39207    0.00185     0.39392
      H   26    0.10344      0.00000     0.39549    0.00107     0.39656
      H   27    0.10056      0.00000     0.39773    0.00170     0.39944
      H   28    0.08652      0.00000     0.41143    0.00206     0.41348
      H   29    0.08496      0.00000     0.41369    0.00135     0.41504
      H   30    0.09725      0.00000     0.40120    0.00155     0.40275
      H   31    0.10086      0.00000     0.39756    0.00159     0.39914
      H   32    0.12621      0.00000     0.37069    0.00310     0.37379
      H   33    0.11729      0.00000     0.38108    0.00163     0.38271
      H   34    0.11239      0.00000     0.38554    0.00207     0.38761
      H   35    0.10132      0.00000     0.39768    0.00100     0.39868
      H   36    0.10289      0.00000     0.39607    0.00104     0.39711
 =======================================================================
   * Total *   -0.00000     15.99321    42.81925    0.18754    59.00000

 Normal termination of Gaussian 16 at Thu Dec 10 22:29:47 2020.
