 Gaussian 16, Revision A.03,

 -----------------------------------------------------------
 # opt freq B3LYP/6-31G(d) empiricaldispersion=gd3bj scf=xqc
 -----------------------------------------------------------

 ------------------------------
 CID_47062760_JID_9637_neutraal
 ------------------------------
 Symbolic Z-matrix:
 Charge =  0 Multiplicity = 1

 SCF Done:  E(RB3LYP) =  -916.674162466     A.U. after   15 cycles
 SCF Done:  E(RB3LYP) =  -916.677870813     A.U. after   13 cycles
 SCF Done:  E(RB3LYP) =  -916.678162252     A.U. after   13 cycles
 SCF Done:  E(RB3LYP) =  -916.678880437     A.U. after   12 cycles
 SCF Done:  E(RB3LYP) =  -916.679282736     A.U. after   12 cycles
 SCF Done:  E(RB3LYP) =  -916.679560090     A.U. after   12 cycles
 SCF Done:  E(RB3LYP) =  -916.679797842     A.U. after   12 cycles
 SCF Done:  E(RB3LYP) =  -916.679961615     A.U. after   12 cycles
 SCF Done:  E(RB3LYP) =  -916.680018442     A.U. after   11 cycles
 SCF Done:  E(RB3LYP) =  -916.680037467     A.U. after   10 cycles
 SCF Done:  E(RB3LYP) =  -916.680060434     A.U. after    8 cycles
 SCF Done:  E(RB3LYP) =  -916.680061491     A.U. after    9 cycles
 SCF Done:  E(RB3LYP) =  -916.680061938     A.U. after    8 cycles
 SCF Done:  E(RB3LYP) =  -916.680062078     A.U. after    8 cycles
 SCF Done:  E(RB3LYP) =  -916.680062094     A.U. after    7 cycles
 Optimization completed.
    -- Stationary point found.
 Normal termination of Gaussian 16 at Mon Dec 14 17:09:07 2020.

 --------------------------------------------------------------------
 #N Geom=AllCheck Guess=TCheck SCRF=Check GenChk RB3LYP/6-31G(d) Freq
 --------------------------------------------------------------------

 Structure from the checkpoint file:  "JID_9637.chk"
 ------------------------------
 CID_47062760_JID_9637_neutraal
 ------------------------------
 Charge =  0 Multiplicity = 1

 SCF Done:  E(RB3LYP) =  -916.680062094     A.U. after    1 cycles

  Exact polarizability: 221.251  21.456 149.406  21.222 -11.671 116.421
 Approx polarizability: 284.884  42.484 254.646  40.889 -24.772 182.485

                      1                      2                      3
                      A                      A                      A
 Frequencies --     17.9881                23.3754                33.7334
 Red. masses --      5.9079                 5.5497                 4.8542
 Frc consts  --      0.0011                 0.0018                 0.0033
 IR Inten    --      0.3412                 0.3137                 2.3079

                      4                      5                      6
                      A                      A                      A
 Frequencies --     45.4343                54.9894                61.7439
 Red. masses --      7.2080                 3.6122                 4.1916
 Frc consts  --      0.0088                 0.0064                 0.0094
 IR Inten    --      1.1979                 0.2987                 1.1915

                      7                      8                      9
                      A                      A                      A
 Frequencies --     86.9094               101.0801               120.0815
 Red. masses --      3.6711                 4.4339                 2.7279
 Frc consts  --      0.0163                 0.0267                 0.0232
 IR Inten    --      2.2497                 5.3741                 5.5365

                     10                     11                     12
                      A                      A                      A
 Frequencies --    129.5134               149.4296               179.2224
 Red. masses --      4.3828                 4.8959                 1.3422
 Frc consts  --      0.0433                 0.0644                 0.0254
 IR Inten    --      2.8075                 1.5122                 0.4887

                     13                     14                     15
                      A                      A                      A
 Frequencies --    219.5163               240.9903               256.3679
 Red. masses --      2.5300                 2.4487                 1.8809
 Frc consts  --      0.0718                 0.0838                 0.0728
 IR Inten    --      2.4354                 7.5615                 3.1998

                     16                     17                     18
                      A                      A                      A
 Frequencies --    272.0160               297.9927               325.1250
 Red. masses --      3.6036                 3.0413                 5.1039
 Frc consts  --      0.1571                 0.1591                 0.3179
 IR Inten    --      5.6557                 2.1895                 1.0563

                     19                     20                     21
                      A                      A                      A
 Frequencies --    357.4313               384.1361               421.0572
 Red. masses --      3.3006                 2.5304                 2.4282
 Frc consts  --      0.2484                 0.2200                 0.2536
 IR Inten    --      7.8604                 7.3308                 3.1997

                     22                     23                     24
                      A                      A                      A
 Frequencies --    434.3409               470.6131               482.3075
 Red. masses --      3.1609                 4.0911                 4.2633
 Frc consts  --      0.3513                 0.5339                 0.5843
 IR Inten    --      0.5603                 6.6327                 0.3898

                     25                     26                     27
                      A                      A                      A
 Frequencies --    493.5248               526.9115               552.5906
 Red. masses --      2.4504                 2.9321                 3.0924
 Frc consts  --      0.3516                 0.4796                 0.5564
 IR Inten    --      3.9491                 8.8675                14.5086

                     28                     29                     30
                      A                      A                      A
 Frequencies --    570.4452               581.0889               636.3646
 Red. masses --      3.7216                 3.3977                 1.5564
 Frc consts  --      0.7135                 0.6760                 0.3713
 IR Inten    --     15.6876                54.7527                90.9280

                     31                     32                     33
                      A                      A                      A
 Frequencies --    648.8448               688.2349               690.2432
 Red. masses --      6.3933                 3.4069                 3.9186
 Frc consts  --      1.5858                 0.9508                 1.1000
 IR Inten    --      1.8127                19.7947                20.6844

                     34                     35                     36
                      A                      A                      A
 Frequencies --    708.6397               776.7773               797.4379
 Red. masses --      3.3702                 2.9797                 2.5025
 Frc consts  --      0.9971                 1.0593                 0.9376
 IR Inten    --     12.1077                 3.5487                72.0843

                     37                     38                     39
                      A                      A                      A
 Frequencies --    830.0462               832.1865               843.0601
 Red. masses --      4.6777                 1.3024                 2.0576
 Frc consts  --      1.8989                 0.5314                 0.8617
 IR Inten    --     17.0636                 4.6682                89.2966

                     40                     41                     42
                      A                      A                      A
 Frequencies --    865.1040               897.5879               935.4145
 Red. masses --      1.8708                 2.3827                 2.7457
 Frc consts  --      0.8249                 1.1310                 1.4155
 IR Inten    --     24.4925                16.8064                 8.4065

                     43                     44                     45
                      A                      A                      A
 Frequencies --    951.4932               970.2163               979.5262
 Red. masses --      3.7979                 1.2905                 1.3058
 Frc consts  --      2.0258                 0.7157                 0.7382
 IR Inten    --     26.5800                 2.0400                 1.2453

                     46                     47                     48
                      A                      A                      A
 Frequencies --   1025.1990              1033.1430              1068.1752
 Red. masses --      2.0430                 2.5800                 2.2996
 Frc consts  --      1.2652                 1.6226                 1.5459
 IR Inten    --      4.8122                 5.4877                48.9863

                     49                     50                     51
                      A                      A                      A
 Frequencies --   1079.2709              1122.4712              1141.4773
 Red. masses --      4.5195                 2.5834                 3.5107
 Frc consts  --      3.1017                 1.9178                 2.6951
 IR Inten    --     32.4202                15.2054                92.0270

                     52                     53                     54
                      A                      A                      A
 Frequencies --   1144.4844              1161.3157              1169.2627
 Red. masses --      1.3110                 3.4572                 3.4818
 Frc consts  --      1.0118                 2.7471                 2.8046
 IR Inten    --     17.6538                 8.2117                40.1382

                     55                     56                     57
                      A                      A                      A
 Frequencies --   1185.7147              1191.4343              1206.7816
 Red. masses --      1.2709                 1.2851                 1.1868
 Frc consts  --      1.0527                 1.0748                 1.0183
 IR Inten    --      0.7277                 7.2662               101.7390

                     58                     59                     60
                      A                      A                      A
 Frequencies --   1219.2950              1224.7443              1256.8240
 Red. masses --      1.3787                 1.5996                 1.3931
 Frc consts  --      1.2076                 1.4137                 1.2966
 IR Inten    --     12.8472                37.7251                83.8087

                     61                     62                     63
                      A                      A                      A
 Frequencies --   1301.3452              1308.9271              1312.4281
 Red. masses --      1.3387                 4.4116                 1.2604
 Frc consts  --      1.3357                 4.4533                 1.2791
 IR Inten    --     16.7716               325.5848                 8.4528

                     64                     65                     66
                      A                      A                      A
 Frequencies --   1340.9615              1361.7630              1370.4060
 Red. masses --      1.3200                 2.0072                 2.8947
 Frc consts  --      1.3984                 2.1931                 3.2030
 IR Inten    --     25.7957               314.3001                14.0565

                     67                     68                     69
                      A                      A                      A
 Frequencies --   1375.0920              1399.5214              1407.5819
 Red. masses --      2.1589                 1.4819                 1.6477
 Frc consts  --      2.4052                 1.7102                 1.9235
 IR Inten    --      5.6058                63.9546                93.7033

                     70                     71                     72
                      A                      A                      A
 Frequencies --   1428.0438              1467.9524              1483.5217
 Red. masses --      1.5739                 3.1838                 1.3248
 Frc consts  --      1.8911                 4.0422                 1.7178
 IR Inten    --     34.2696                27.9683                 5.9154

                     73                     74                     75
                      A                      A                      A
 Frequencies --   1497.7144              1500.0573              1510.9189
 Red. masses --      1.1130                 1.2019                 1.4517
 Frc consts  --      1.4709                 1.5934                 1.9525
 IR Inten    --      1.8957                12.7105                52.2186

                     76                     77                     78
                      A                      A                      A
 Frequencies --   1516.2083              1516.8039              1521.8410
 Red. masses --      1.2786                 1.0652                 1.0958
 Frc consts  --      1.7318                 1.4439                 1.4953
 IR Inten    --     67.8237                 1.6541                10.4481

                     79                     80                     81
                      A                      A                      A
 Frequencies --   1522.0771              1524.5742              1534.5244
 Red. masses --      1.0476                 1.1466                 1.0622
 Frc consts  --      1.4300                 1.5702                 1.4736
 IR Inten    --      5.9258                 7.1404                32.3593

                     82                     83                     84
                      A                      A                      A
 Frequencies --   1536.4981              1567.0944              1627.3439
 Red. masses --      1.0649                 2.5602                 6.8742
 Frc consts  --      1.4813                 3.7044                10.7258
 IR Inten    --      4.8943                44.3672                29.0587

                     85                     86                     87
                      A                      A                      A
 Frequencies --   1671.5362              1761.0128              1793.0147
 Red. masses --      5.6970                 8.0309                 8.0521
 Frc consts  --      9.3784                14.6738                15.2520
 IR Inten    --    185.8985               250.1408               409.8090

                     88                     89                     90
                      A                      A                      A
 Frequencies --   3011.6724              3031.5003              3051.7016
 Red. masses --      1.0350                 1.0346                 1.0587
 Frc consts  --      5.5313                 5.6017                 5.8090
 IR Inten    --     39.8194                53.3726                39.8694

                     91                     92                     93
                      A                      A                      A
 Frequencies --   3063.5907              3064.5177              3092.7265
 Red. masses --      1.1022                 1.0716                 1.1069
 Frc consts  --      6.0948                 5.9293                 6.2380
 IR Inten    --     68.0179                16.3910                39.1152

                     94                     95                     96
                      A                      A                      A
 Frequencies --   3106.1340              3111.1551              3144.5264
 Red. masses --      1.1071                 1.0603                 1.0994
 Frc consts  --      6.2933                 6.0468                 6.4051
 IR Inten    --     22.6306                17.2125                22.5483

                     97                     98                     99
                      A                      A                      A
 Frequencies --   3146.6939              3163.2017              3165.6733
 Red. masses --      1.0957                 1.1064                 1.1002
 Frc consts  --      6.3922                 6.5223                 6.4962
 IR Inten    --     16.5028                28.9238                23.2382

                    100                    101                    102
                      A                      A                      A
 Frequencies --   3207.1786              3213.5182              3227.3323
 Red. masses --      1.0887                 1.0879                 1.0948
 Frc consts  --      6.5981                 6.6190                 6.7185
 IR Inten    --      7.4179                 1.6834                 4.7919

                    103                    104                    105
                      A                      A                      A
 Frequencies --   3233.4500              3542.8261              3575.4748
 Red. masses --      1.0920                 1.0742                 1.0763
 Frc consts  --      6.7270                 7.9442                 8.1071
 IR Inten    --      9.1287                12.2698                27.8146

 - Thermochemistry -
 -------------------
 Temperature   298.150 Kelvin.  Pressure   1.00000 Atm.
 Atom     1 has atomic number  6 and mass  12.00000

 Molecular mass:   266.12666 amu.
 Principal axes and moments of inertia in atomic units:
                           1         2         3
     Eigenvalues --  2192.00754********************
           X            0.99999   0.00089   0.00444
           Y           -0.00068   0.99898  -0.04523
           Z           -0.00448   0.04522   0.99897
 This molecule is an asymmetric top.
 Rotational symmetry number  1.
 Warning -- assumption of classical behavior for rotation
           may cause significant error
 Rotational temperatures (Kelvin)      0.03951     0.00708     0.00672
 Rotational constants (GHZ):           0.82333     0.14752     0.14009
 Zero-point vibrational energy     810364.5 (Joules/Mol)
                                  193.68176 (Kcal/Mol)
 Warning -- explicit consideration of  29 degrees of freedom as
           vibrations may cause significant error
 Vibrational temperatures:     25.88    33.63    48.53    65.37    79.12
          (Kelvin)             88.84   125.04   145.43   172.77   186.34
                              215.00   257.86   315.84   346.73   368.86
                              391.37   428.74   467.78   514.26   552.69
                              605.81   624.92   677.11   693.93   710.07
                              758.11   795.05   820.74   836.06   915.59
                              933.54   990.22   993.11  1019.57  1117.61
                             1147.34  1194.25  1197.33  1212.98  1244.69
                             1291.43  1345.85  1368.99  1395.92  1409.32
                             1475.03  1486.46  1536.87  1552.83  1614.99
                             1642.33  1646.66  1670.87  1682.31  1705.98
                             1714.21  1736.29  1754.29  1762.13  1808.29
                             1872.35  1883.25  1888.29  1929.34  1959.27
                             1971.71  1978.45  2013.60  2025.20  2054.64
                             2112.06  2134.46  2154.88  2158.25  2173.88
                             2181.49  2182.34  2189.59  2189.93  2193.52
                             2207.84  2210.68  2254.70  2341.38  2404.97
                             2533.70  2579.75  4333.12  4361.65  4390.72
                             4407.82  4409.16  4449.74  4469.03  4476.26
                             4524.27  4527.39  4551.14  4554.70  4614.41
                             4623.54  4643.41  4652.21  5097.34  5144.31

 Zero-point correction=                           0.308652 (Hartree/Particle)
 Thermal correction to Energy=                    0.327968
 Thermal correction to Enthalpy=                  0.328912
 Thermal correction to Gibbs Free Energy=         0.257486
 Sum of electronic and zero-point Energies=           -916.371411
 Sum of electronic and thermal Energies=              -916.352094
 Sum of electronic and thermal Enthalpies=            -916.351150
 Sum of electronic and thermal Free Energies=         -916.422576

                     E (Thermal)             CV                S
                      KCal/Mol        Cal/Mol-Kelvin    Cal/Mol-Kelvin
 Total                  205.803             70.246            150.329
 Electronic               0.000              0.000              0.000
 Translational            0.889              2.981             42.636
 Rotational               0.889              2.981             34.201
 Vibrational            204.025             64.285             73.493
 Vibration     1          0.593              1.986              6.845
 Vibration     2          0.593              1.985              6.325
 Vibration     3          0.594              1.983              5.597
 Vibration     4          0.595              1.979              5.007
 Vibration     5          0.596              1.976              4.629
 Vibration     6          0.597              1.973              4.401
 Vibration     7          0.601              1.958              3.728
 Vibration     8          0.604              1.948              3.433
 Vibration     9          0.609              1.933              3.099
 Vibration    10          0.612              1.924              2.953
 Vibration    11          0.618              1.903              2.679
 Vibration    12          0.629              1.868              2.336
 Vibration    13          0.647              1.811              1.963
 Vibration    14          0.658              1.778              1.796
 Vibration    15          0.666              1.752              1.686
 Vibration    16          0.675              1.725              1.583
 Vibration    17          0.691              1.677              1.428
 Vibration    18          0.709              1.625              1.284
 Vibration    19          0.733              1.560              1.133
 Vibration    20          0.753              1.504              1.023
 Vibration    21          0.784              1.424              0.888
 Vibration    22          0.795              1.395              0.845
 Vibration    23          0.828              1.315              0.736
 Vibration    24          0.839              1.289              0.704
 Vibration    25          0.849              1.264              0.675
 Vibration    26          0.882              1.190              0.594
 Vibration    27          0.908              1.134              0.539
 Vibration    28          0.927              1.095              0.503
 Vibration    29          0.938              1.072              0.483

 Optimization completed.
    -- Stationary point found.
 Normal termination of Gaussian 16 at Mon Dec 14 17:24:20 2020.

 ----------------------------------------------------------------------
 # B3LYP/6-311++G(d,p) empiricaldispersion=gd3bj scf=xqc pop=npa geom=c
 heck
 ----------------------------------------------------------------------

 --------------------------------------
 CID_47062760_JID_9637_Energie_neutraal
 --------------------------------------
 Structure from the checkpoint file:  "JID_9637.chk"
 Charge =  0 Multiplicity = 1

 SCF Done:  E(RB3LYP) =  -916.949415999     A.U. after   15 cycles
 Normal termination of Gaussian 16 at Mon Dec 14 17:30:10 2020.

 ----------------------------------------------------------------------
 # B3LYP/6-311++G(d,p) empiricaldispersion=gd3bj scf=xqc pop=npa geom=c
 heck
 ----------------------------------------------------------------------

 ------------------------------------
 CID_47062760_JID_9637_Energie_kation
 ------------------------------------
 Structure from the checkpoint file:  "JID_9637.chk"
 Charge =  1 Multiplicity = 2

 SCF Done:  E(UB3LYP) =  -916.648130332     A.U. after   32 cycles
 Normal termination of Gaussian 16 at Mon Dec 14 17:46:45 2020.
 Gaussian 16:  ES64L-G16RevA.03 25-Dec-2016

 ----------------------------------------------------------------------
 # B3LYP/6-311++G(d,p) empiricaldispersion=gd3bj scf=xqc pop=npa geom=c
 heck
 ----------------------------------------------------------------------

 -----------------------------------
 CID_47062760_JID_9637_Energie_anion
 -----------------------------------
 Structure from the checkpoint file:  "JID_9637.chk"
 Charge = -1 Multiplicity = 2

                         Standard orientation:
 ---------------------------------------------------------------------
 Center     Atomic      Atomic             Coordinates (Angstroms)
 Number     Number       Type             X           Y           Z
 ---------------------------------------------------------------------
      1          6           0        4.659333   -1.460891    1.132058
      2          8           0        4.032033   -1.779059   -0.100467
      3          6           0        4.387076   -0.874266   -1.133060
      4          6           0        3.827887    0.541645   -0.929386
      5          8           0        4.566722    1.517896   -0.923300
      6          7           0        2.476955    0.654354   -0.749397
      7          6           0        1.457525   -0.384206   -0.794727
      8          6           0        0.988869   -0.821669    0.602492
      9          7           0        0.639346    0.319637    1.456425
     10          6           0       -0.311343    1.257327    1.062419
     11          8           0       -0.081491    2.460303    1.149403
     12          6           0       -1.617096    0.741091    0.565774
     13          6           0       -2.334603    1.520449   -0.356640
     14          6           0       -3.565424    1.101300   -0.831495
     15          6           0       -4.123465   -0.102735   -0.371067
     16          6           0       -3.433663   -0.875139    0.572610
     17          6           0       -2.187135   -0.448594    1.028762
     18          8           0       -5.335656   -0.426788   -0.893160
     19          6           0       -5.955497   -1.626995   -0.455690
     20          1           0        4.355446   -2.227758    1.848415
     21          1           0        4.352240   -0.473402    1.506357
     22          1           0        5.754539   -1.468197    1.033820
     23          1           0        5.475757   -0.764904   -1.215010
     24          1           0        4.006364   -1.307368   -2.064605
     25          1           0        2.164225    1.606549   -0.592739
     26          1           0        0.600193    0.009875   -1.353101
     27          1           0        1.834563   -1.251245   -1.339895
     28          1           0        0.132985   -1.491930    0.500410
     29          1           0        1.789642   -1.372942    1.098171
     30          1           0        1.464213    0.817496    1.780149
     31          1           0       -1.905345    2.460696   -0.686520
     32          1           0       -4.125106    1.687473   -1.552788
     33          1           0       -3.858180   -1.792910    0.961010
     34          1           0       -1.667980   -1.033426    1.781432
     35          1           0       -5.341155   -2.504789   -0.693633
     36          1           0       -6.153209   -1.605211    0.623526
     37          1           0       -6.900948   -1.688656   -0.996295
 ---------------------------------------------------------------------

 SCF Done:  E(UB3LYP) =  -916.947196768     A.U. after   33 cycles
 SCF Done:  E(UB3LYP) =  -916.947867060     a.u. after    6 cycles

 The electronic state is 2-A.
 Alpha  occ. eigenvalues --  -19.06305 -19.05243 -19.01067 -18.96531 -14.25617
 Alpha  occ. eigenvalues --  -14.21453 -10.19414 -10.15437 -10.13899 -10.13842
 Alpha  occ. eigenvalues --  -10.12910 -10.12380 -10.11914 -10.10874 -10.06510
 Alpha  occ. eigenvalues --  -10.06378 -10.06196 -10.06120 -10.05458  -0.97807
 Alpha  occ. eigenvalues --   -0.96995  -0.95595  -0.91699  -0.84604  -0.80218
 Alpha  occ. eigenvalues --   -0.74512  -0.67254  -0.66011  -0.65341  -0.64129
 Alpha  occ. eigenvalues --   -0.60294  -0.59172  -0.55794  -0.51441  -0.50706
 Alpha  occ. eigenvalues --   -0.50164  -0.46008  -0.43560  -0.43308  -0.42162
 Alpha  occ. eigenvalues --   -0.41642  -0.39448  -0.38985  -0.38752  -0.37520
 Alpha  occ. eigenvalues --   -0.37329  -0.36250  -0.35077  -0.34005  -0.33185
 Alpha  occ. eigenvalues --   -0.32791  -0.32371  -0.31474  -0.31309  -0.30454
 Alpha  occ. eigenvalues --   -0.29655  -0.28924  -0.27873  -0.27206  -0.26640
 Alpha  occ. eigenvalues --   -0.25894  -0.25745  -0.22504  -0.21769  -0.21215
 Alpha  occ. eigenvalues --   -0.18068  -0.17222  -0.15961  -0.15253  -0.13355
 Alpha  occ. eigenvalues --   -0.12082   0.03959
 Alpha virt. eigenvalues --    0.05412   0.05682   0.06840   0.07640   0.07960
 Alpha virt. eigenvalues --    0.08390   0.08942   0.09153   0.09502   0.09711
 Alpha virt. eigenvalues --    0.10096   0.10708   0.11212   0.11547   0.11870

  Beta  occ. eigenvalues --  -19.06302 -19.05190 -19.01066 -18.96315 -14.25615
  Beta  occ. eigenvalues --  -14.21445 -10.19414 -10.15434 -10.13871 -10.13639
  Beta  occ. eigenvalues --  -10.12880 -10.12374 -10.11688 -10.10853 -10.06571
  Beta  occ. eigenvalues --  -10.06317 -10.06152 -10.06034 -10.05382  -0.97802
  Beta  occ. eigenvalues --   -0.96850  -0.95593  -0.91308  -0.84582  -0.80087
  Beta  occ. eigenvalues --   -0.74313  -0.67230  -0.65793  -0.65266  -0.63970
  Beta  occ. eigenvalues --   -0.60133  -0.59132  -0.55706  -0.51119  -0.50586
  Beta  occ. eigenvalues --   -0.50092  -0.45868  -0.43527  -0.43221  -0.42144
  Beta  occ. eigenvalues --   -0.41583  -0.39427  -0.38870  -0.38646  -0.37315
  Beta  occ. eigenvalues --   -0.37223  -0.36193  -0.35026  -0.33907  -0.33144
  Beta  occ. eigenvalues --   -0.32653  -0.32323  -0.31406  -0.31235  -0.30331
  Beta  occ. eigenvalues --   -0.29582  -0.28345  -0.27698  -0.26848  -0.26612
  Beta  occ. eigenvalues --   -0.25647  -0.25419  -0.22427  -0.21343  -0.21133
  Beta  occ. eigenvalues --   -0.17994  -0.17210  -0.15612  -0.14847  -0.13065
  Beta  occ. eigenvalues --   -0.11321
  Beta virt. eigenvalues --    0.05795   0.06215   0.06854   0.07819   0.07946
  Beta virt. eigenvalues --    0.08370   0.08601   0.09024   0.09388   0.09520
  Beta virt. eigenvalues --    0.09944   0.10218   0.10949   0.11208   0.11678

 Mulliken charges and spin densities:
               1          2
     1  C    0.274661  -0.560442
     2  O   -0.122190   0.033412
     3  C   -0.323597  -0.090335
     4  C    0.074221  -0.012236
     5  O   -0.310837   0.005373
     6  N   -0.181343   0.005055
     7  C   -0.655335   0.116147
     8  C   -0.035576  -0.164290
     9  N   -0.111376   0.041374
    10  C   -0.322673  -0.101902
    11  O   -0.342159   0.079672
    12  C    0.757820  -0.171306
    13  C   -0.099983   0.146859
    14  C   -0.438650   0.035576
    15  C   -0.775814   0.294478
    16  C    0.250223  -0.080973
    17  C    0.058716  -0.190826
    18  O   -0.193307   0.042596
    19  C    0.372528  -0.693093
    20  H   -0.303672   0.471483
    21  H    0.085256   0.074391
    22  H   -0.073951   0.195447
    23  H    0.167139   0.016229
    24  H    0.141873   0.026010
    25  H    0.376864  -0.004397
    26  H    0.213438  -0.003529
    27  H    0.154698   0.032955
    28  H    0.055730   0.032294
    29  H    0.302783  -0.058036
    30  H    0.242595   0.087684
    31  H    0.182132   0.001045
    32  H    0.153249   0.007261
    33  H    0.033174   0.143907
    34  H   -0.140963   0.311404
    35  H   -0.196825   0.353661
    36  H    0.019223   0.126085
    37  H   -0.288074   0.450969
 Sum of Mulliken charges =  -1.00000   1.00000

 Dipole moment (field-independent basis, Debye):
    X=              3.2964    Y=             -2.0423    Z=             -3.2672  Tot=              5.0707
 Quadrupole moment (field-independent basis, Debye-Ang):
   XX=           -217.2284   YY=           -156.3243   ZZ=           -136.7335
   XY=            -13.4952   XZ=             -6.6770   YZ=             -0.8629

 Summary of Natural Population Analysis:

                                       Natural Population
                Natural  -----------------------------------------------
    Atom  No    Charge         Core      Valence    Rydberg      Total
 -----------------------------------------------------------------------
      C    1   -0.10409      0.99961     2.09414    0.01034     3.10409
      O    2   -0.29658      0.99989     3.28675    0.00994     4.29658
      C    3   -0.05383      0.99955     2.04143    0.01284     3.05383
      C    4    0.32210      0.99969     1.65564    0.02257     2.67790
      O    5   -0.32037      0.99988     3.31437    0.00612     4.32037
      N    6   -0.31888      0.99967     2.80946    0.00975     3.81888
      C    7   -0.09738      0.99961     2.08818    0.00959     3.09738
      C    8   -0.09398      0.99961     2.08308    0.01130     3.09398
      N    9   -0.33209      0.99969     2.82148    0.01091     3.83209
      C   10    0.35936      0.99962     1.61692    0.02410     2.64064
      O   11   -0.30553      0.99988     3.30036    0.00529     4.30553
      C   12   -0.08109      0.99946     2.07063    0.01100     3.08109
      C   13   -0.06136      0.99954     2.05414    0.00768     3.06136
      C   14   -0.13702      0.99953     2.12834    0.00915     3.13702
      C   15    0.19859      0.99940     1.78805    0.01396     2.80141
      C   16   -0.16691      0.99953     2.15872    0.00866     3.16691
      C   17   -0.05172      0.99955     2.04311    0.00907     3.05172
      O   18   -0.27038      0.99985     3.26100    0.00953     4.27038
      C   19   -0.10096      0.99960     2.09217    0.00918     3.10096
      H   20    0.09481      0.00000     0.40385    0.00135     0.40519
      H   21    0.08338      0.00000     0.41531    0.00131     0.41662
      H   22    0.08105      0.00000     0.41778    0.00116     0.41895
      H   23    0.09283      0.00000     0.40582    0.00135     0.40717
      H   24    0.09693      0.00000     0.40205    0.00102     0.40307
      H   25    0.20426      0.00000     0.29427    0.00148     0.29574
      H   26    0.10202      0.00000     0.39690    0.00108     0.39798
      H   27    0.10028      0.00000     0.39870    0.00101     0.39972
      H   28    0.10161      0.00000     0.39726    0.00114     0.39839
      H   29    0.09991      0.00000     0.39853    0.00156     0.40009
      H   30    0.18502      0.00000     0.31238    0.00259     0.31498
      H   31    0.10567      0.00000     0.39345    0.00088     0.39433
      H   32    0.10185      0.00000     0.39721    0.00094     0.39815
      H   33    0.10261      0.00000     0.39611    0.00127     0.39739
      H   34    0.10017      0.00000     0.39833    0.00150     0.39983
      H   35    0.08577      0.00000     0.41242    0.00181     0.41423
      H   36    0.08260      0.00000     0.41614    0.00125     0.41740
      H   37    0.09133      0.00000     0.40757    0.00110     0.40867
 =======================================================================
   * Total *    0.00000     18.99316    51.77206    0.23479    71.00000

 Normal termination of Gaussian 16 at Mon Dec 14 19:14:24 2020.
