 Gaussian 16, Revision A.03,

 -----------------------------------------------------------
 # opt freq B3LYP/6-31G(d) empiricaldispersion=gd3bj scf=xqc
 -----------------------------------------------------------

 --------------------------------
 CID_120190720_JID_10959_neutraal
 --------------------------------
 Symbolic Z-matrix:
 Charge =  0 Multiplicity = 1

 SCF Done:  E(RB3LYP) =  -901.653747538     A.U. after   15 cycles
 SCF Done:  E(RB3LYP) =  -901.660230153     A.U. after   13 cycles
 SCF Done:  E(RB3LYP) =  -901.660795837     A.U. after   14 cycles
 SCF Done:  E(RB3LYP) =  -901.663310754     A.U. after   12 cycles
 SCF Done:  E(RB3LYP) =  -901.663931650     A.U. after   13 cycles
 SCF Done:  E(RB3LYP) =  -901.664710547     A.U. after   13 cycles
 SCF Done:  E(RB3LYP) =  -901.665250298     A.U. after   12 cycles
 SCF Done:  E(RB3LYP) =  -901.666204619     A.U. after   13 cycles
 SCF Done:  E(RB3LYP) =  -901.665653676     A.U. after   15 cycles
 SCF Done:  E(RB3LYP) =  -901.667503436     A.U. after   13 cycles
 SCF Done:  E(RB3LYP) =  -901.669533522     A.U. after   10 cycles
 SCF Done:  E(RB3LYP) =  -901.669538526     A.U. after   10 cycles
 SCF Done:  E(RB3LYP) =  -901.669540604     A.U. after    9 cycles
 SCF Done:  E(RB3LYP) =  -901.669541385     A.U. after    8 cycles
 SCF Done:  E(RB3LYP) =  -901.669541508     A.U. after    8 cycles
 Optimization completed.
    -- Stationary point found.
 Normal termination of Gaussian 16 at Sat Dec 12 16:28:12 2020.

 --------------------------------------------------------------------
 #N Geom=AllCheck Guess=TCheck SCRF=Check GenChk RB3LYP/6-31G(d) Freq
 --------------------------------------------------------------------

 Structure from the checkpoint file:  "JID_10959.chk"
 --------------------------------
 CID_120190720_JID_10959_neutraal
 --------------------------------
 Charge =  0 Multiplicity = 1

 SCF Done:  E(RB3LYP) =  -901.669541508     A.U. after    1 cycles

  Exact polarizability: 162.882  -3.390 175.788 -17.915  -4.707 165.694
 Approx polarizability: 219.220  -3.053 271.001 -38.426   1.144 300.797

                      1                      2                      3
                      A                      A                      A
 Frequencies --     26.6942                36.9497                45.7442
 Red. masses --      5.0941                 4.6149                 7.3062
 Frc consts  --      0.0021                 0.0037                 0.0090
 IR Inten    --      0.1388                 0.4146                 0.9529

                      4                      5                      6
                      A                      A                      A
 Frequencies --     57.1226                61.0976                74.8892
 Red. masses --      4.3523                 6.2045                 4.8929
 Frc consts  --      0.0084                 0.0136                 0.0162
 IR Inten    --      0.5613                 1.7399                 1.0342

                      7                      8                      9
                      A                      A                      A
 Frequencies --     76.6045               109.0556               152.3320
 Red. masses --      4.5477                 5.0911                 2.8232
 Frc consts  --      0.0157                 0.0357                 0.0386
 IR Inten    --      0.2242                 0.9737                 0.6807

                     10                     11                     12
                      A                      A                      A
 Frequencies --    168.6565               173.6775               193.2524
 Red. masses --      2.5431                 2.8936                 3.4628
 Frc consts  --      0.0426                 0.0514                 0.0762
 IR Inten    --      0.2390                 0.9214                 0.1707

                     13                     14                     15
                      A                      A                      A
 Frequencies --    213.6653               233.1458               247.4590
 Red. masses --      1.2061                 3.1312                 5.1634
 Frc consts  --      0.0324                 0.1003                 0.1863
 IR Inten    --      0.6069                 0.2147                 4.8471

                     16                     17                     18
                      A                      A                      A
 Frequencies --    277.8168               315.8045               345.6665
 Red. masses --      2.9924                 3.6467                 3.2667
 Frc consts  --      0.1361                 0.2143                 0.2300
 IR Inten    --      2.5298                 1.5154                 1.2375

                     19                     20                     21
                      A                      A                      A
 Frequencies --    385.4134               415.5078               436.9295
 Red. masses --      4.4043                 2.9886                 3.1597
 Frc consts  --      0.3855                 0.3040                 0.3554
 IR Inten    --      0.6207                 0.1767                 9.5926

                     22                     23                     24
                      A                      A                      A
 Frequencies --    455.8902               482.3551               540.6141
 Red. masses --      3.8238                 2.7176                 3.0124
 Frc consts  --      0.4682                 0.3725                 0.5187
 IR Inten    --      1.3167                 3.5057                14.5146

                     25                     26                     27
                      A                      A                      A
 Frequencies --    569.8104               574.6193               600.5477
 Red. masses --      3.8271                 2.8854                 2.8964
 Frc consts  --      0.7321                 0.5613                 0.6155
 IR Inten    --     27.9536                 3.5605                 9.8968

                     28                     29                     30
                      A                      A                      A
 Frequencies --    616.2391               630.8166               641.2316
 Red. masses --      3.0946                 3.5027                 3.1758
 Frc consts  --      0.6924                 0.8212                 0.7694
 IR Inten    --     42.9354                37.4800                45.3278

                     31                     32                     33
                      A                      A                      A
 Frequencies --    666.2183               696.9936               714.4814
 Red. masses --      2.2044                 2.3119                 1.8790
 Frc consts  --      0.5765                 0.6617                 0.5652
 IR Inten    --     30.1740                 7.3201                38.7971

                     34                     35                     36
                      A                      A                      A
 Frequencies --    731.0564               759.1991               783.8423
 Red. masses --      1.8017                 2.2414                 3.5820
 Frc consts  --      0.5673                 0.7612                 1.2967
 IR Inten    --     32.5229                22.7123                13.3157

                     37                     38                     39
                      A                      A                      A
 Frequencies --    787.6943               802.1771               859.5780
 Red. masses --      4.1836                 2.9131                 1.3078
 Frc consts  --      1.5294                 1.1045                 0.5693
 IR Inten    --     53.6130                32.7713                 0.0969

                     40                     41                     42
                      A                      A                      A
 Frequencies --    863.0804               882.4129               898.8827
 Red. masses --      1.9750                 3.4137                 1.5032
 Frc consts  --      0.8668                 1.5661                 0.7156
 IR Inten    --      1.8487                 8.1102                 0.2631

                     43                     44                     45
                      A                      A                      A
 Frequencies --    924.4245               927.2345               945.5174
 Red. masses --      1.5565                 1.9831                 2.1044
 Frc consts  --      0.7837                 1.0046                 1.1085
 IR Inten    --      3.1151                 1.8416                 1.2999

                     46                     47                     48
                      A                      A                      A
 Frequencies --    967.8203               976.9817               995.8492
 Red. masses --      1.3527                 2.4300                 1.2639
 Frc consts  --      0.7465                 1.3666                 0.7385
 IR Inten    --      0.5113                14.2579                 0.6143

                     49                     50                     51
                      A                      A                      A
 Frequencies --   1011.9343              1022.5645              1023.7697
 Red. masses --      1.6557                 3.6202                 3.7367
 Frc consts  --      0.9989                 2.2303                 2.3075
 IR Inten    --      0.4270                 9.4906                 2.8641

                     52                     53                     54
                      A                      A                      A
 Frequencies --   1027.8049              1061.8474              1073.5695
 Red. masses --      2.1388                 2.1835                 1.8001
 Frc consts  --      1.3312                 1.4505                 1.2224
 IR Inten    --      1.4994                 3.0962                 6.1771

                     55                     56                     57
                      A                      A                      A
 Frequencies --   1100.2890              1106.8569              1119.3308
 Red. masses --      2.2494                 1.6892                 1.7046
 Frc consts  --      1.6044                 1.2193                 1.2583
 IR Inten    --     16.0160                 2.6806                37.7318

                     58                     59                     60
                      A                      A                      A
 Frequencies --   1145.9445              1170.8286              1185.4572
 Red. masses --      3.4823                 1.2717                 2.8039
 Frc consts  --      2.6943                 1.0271                 2.3216
 IR Inten    --      8.9752                 2.4655                88.3571

                     61                     62                     63
                      A                      A                      A
 Frequencies --   1194.8687              1216.6499              1231.8746
 Red. masses --      1.0988                 1.1405                 2.0046
 Frc consts  --      0.9243                 0.9946                 1.7923
 IR Inten    --      0.0395                 2.0655                70.4626

                     64                     65                     66
                      A                      A                      A
 Frequencies --   1232.0620              1245.1295              1259.8016
 Red. masses --      1.7159                 1.2482                 1.4407
 Frc consts  --      1.5346                 1.1402                 1.3472
 IR Inten    --     14.3639                 3.6151                13.8582

                     67                     68                     69
                      A                      A                      A
 Frequencies --   1261.4064              1299.5079              1329.8953
 Red. masses --      1.8771                 1.6250                 1.6702
 Frc consts  --      1.7597                 1.6168                 1.7404
 IR Inten    --     20.3722                16.9502                64.0982

                     70                     71                     72
                      A                      A                      A
 Frequencies --   1338.7067              1343.3902              1349.2843
 Red. masses --      2.0274                 1.7376                 1.5787
 Frc consts  --      2.1407                 1.8475                 1.6934
 IR Inten    --     10.4228                 1.8614                10.6601

                     73                     74                     75
                      A                      A                      A
 Frequencies --   1361.4991              1370.7729              1396.9624
 Red. masses --      1.4670                 2.1168                 1.7397
 Frc consts  --      1.6022                 2.3435                 2.0003
 IR Inten    --     22.2241                 0.4891                28.0429

                     76                     77                     78
                      A                      A                      A
 Frequencies --   1406.9760              1416.4882              1441.7122
 Red. masses --      2.0409                 2.3553                 1.2864
 Frc consts  --      2.3804                 2.7843                 1.5753
 IR Inten    --     65.1440               111.0922                 3.5583

                     79                     80                     81
                      A                      A                      A
 Frequencies --   1488.6888              1496.5315              1507.5021
 Red. masses --      1.2897                 1.2051                 1.8544
 Frc consts  --      1.6840                 1.5902                 2.4829
 IR Inten    --     43.8472                17.4746                 6.3901

                     82                     83                     84
                      A                      A                      A
 Frequencies --   1510.9535              1514.7356              1516.9134
 Red. masses --      1.0977                 1.0844                 1.0656
 Frc consts  --      1.4765                 1.4660                 1.4446
 IR Inten    --      1.7812                 4.5855                 5.5548

                     85                     86                     87
                      A                      A                      A
 Frequencies --   1520.1379              1536.1918              1548.2905
 Red. masses --      1.0737                 1.1079                 2.1984
 Frc consts  --      1.4619                 1.5404                 3.1050
 IR Inten    --     15.0426                 3.0562                 6.4552

                     88                     89                     90
                      A                      A                      A
 Frequencies --   1649.7299              1667.9983              1726.7245
 Red. masses --      5.5245                 5.5398                 7.6523
 Frc consts  --      8.8587                 9.0810                13.4427
 IR Inten    --      0.7478                 1.5128                40.1450

                     91                     92                     93
                      A                      A                      A
 Frequencies --   1772.6784              1865.8567              3012.3237
 Red. masses --      8.5741                 9.6876                 1.0670
 Frc consts  --     15.8744                19.8711                 5.7043
 IR Inten    --    320.6629               249.1171                41.8738

                     94                     95                     96
                      A                      A                      A
 Frequencies --   3026.5014              3043.5255              3054.0541
 Red. masses --      1.0427                 1.0682                 1.0896
 Frc consts  --      5.6273                 5.8300                 5.9878
 IR Inten    --     35.8792                28.2673                15.9625

                     97                     98                     99
                      A                      A                      A
 Frequencies --   3070.1335              3072.4832              3072.5649
 Red. masses --      1.0964                 1.0682                 1.0662
 Frc consts  --      6.0886                 5.9414                 5.9304
 IR Inten    --     22.2371                33.1307                11.3858

                    100                    101                    102
                      A                      A                      A
 Frequencies --   3096.0390              3097.6784              3119.0937
 Red. masses --      1.0845                 1.0930                 1.1055
 Frc consts  --      6.1247                 6.1792                 6.3368
 IR Inten    --     11.9765                21.9908                44.9123

                    103                    104                    105
                      A                      A                      A
 Frequencies --   3136.1192              3156.4761              3173.2465
 Red. masses --      1.0983                 1.0986                 1.0874
 Frc consts  --      6.3646                 6.4492                 6.4510
 IR Inten    --     11.2784                 5.0664                 8.2454

                    106                    107                    108
                      A                      A                      A
 Frequencies --   3188.2095              3197.2027              3207.1612
 Red. masses --      1.0864                 1.0906                 1.0931
 Frc consts  --      6.5062                 6.5683                 6.6245
 IR Inten    --      0.2358                16.6011                23.3545

                    109                    110                    111
                      A                      A                      A
 Frequencies --   3215.0372              3564.0116              3683.6922
 Red. masses --      1.0974                 1.0754                 1.0642
 Frc consts  --      6.6830                 8.0486                 8.5080
 IR Inten    --     13.1647                81.2583                58.4847

 - Thermochemistry -
 -------------------
 Temperature   298.150 Kelvin.  Pressure   1.00000 Atm.
 Atom     1 has atomic number  6 and mass  12.00000

 Molecular mass:   273.13649 amu.
 Principal axes and moments of inertia in atomic units:
                           1         2         3
     Eigenvalues --  3814.130836102.447527631.47779
           X            0.99987  -0.00778  -0.01428
           Y            0.00720   0.99916  -0.04026
           Z            0.01458   0.04015   0.99909
 This molecule is an asymmetric top.
 Rotational symmetry number  1.
 Warning -- assumption of classical behavior for rotation
           may cause significant error
 Rotational temperatures (Kelvin)      0.02271     0.01419     0.01135
 Rotational constants (GHZ):           0.47317     0.29574     0.23649
 Zero-point vibrational energy     858911.1 (Joules/Mol)
                                  205.28468 (Kcal/Mol)
 Warning -- explicit consideration of  28 degrees of freedom as
           vibrations may cause significant error
 Vibrational temperatures:     38.41    53.16    65.82    82.19    87.91
          (Kelvin)            107.75   110.22   156.91   219.17   242.66
                              249.88   278.05   307.42   335.44   356.04
                              399.72   454.37   497.34   554.52   597.82
                              628.64   655.92   694.00   777.82   819.83
                              826.75   864.05   886.63   907.60   922.59
                              958.54  1002.82  1027.98  1051.83  1092.32
                             1127.77  1133.32  1154.15  1236.74  1241.78
                             1269.60  1293.29  1330.04  1334.08  1360.39
                             1392.48  1405.66  1432.80  1455.95  1471.24
                             1472.98  1478.78  1527.76  1544.63  1583.07
                             1592.52  1610.47  1648.76  1684.56  1705.61
                             1719.15  1750.49  1772.39  1772.66  1791.46
                             1812.57  1814.88  1869.70  1913.42  1926.10
                             1932.84  1941.32  1958.89  1972.24  2009.92
                             2024.32  2038.01  2074.30  2141.89  2153.18
                             2168.96  2173.93  2179.37  2182.50  2187.14
                             2210.24  2227.64  2373.59  2399.88  2484.37
                             2550.49  2684.55  4334.06  4354.46  4378.95
                             4394.10  4417.24  4420.62  4420.74  4454.51
                             4456.87  4487.68  4512.18  4541.47  4565.59
                             4587.12  4600.06  4614.39  4625.72  5127.82
                             5300.01

 Zero-point correction=                           0.327142 (Hartree/Particle)
 Thermal correction to Energy=                    0.346043
 Thermal correction to Enthalpy=                  0.346987
 Thermal correction to Gibbs Free Energy=         0.278276
 Sum of electronic and zero-point Energies=           -901.342400
 Sum of electronic and thermal Energies=              -901.323499
 Sum of electronic and thermal Enthalpies=            -901.322554
 Sum of electronic and thermal Free Energies=         -901.391265

                     E (Thermal)             CV                S
                      KCal/Mol        Cal/Mol-Kelvin    Cal/Mol-Kelvin
 Total                  217.145             71.462            144.614
 Electronic               0.000              0.000              0.000
 Translational            0.889              2.981             42.713
 Rotational               0.889              2.981             33.540
 Vibrational            215.368             65.500             68.361
 Vibration     1          0.593              1.984              6.061
 Vibration     2          0.594              1.982              5.416
 Vibration     3          0.595              1.979              4.993
 Vibration     4          0.596              1.975              4.554
 Vibration     5          0.597              1.973              4.421
 Vibration     6          0.599              1.966              4.021
 Vibration     7          0.599              1.965              3.976
 Vibration     8          0.606              1.942              3.286
 Vibration     9          0.619              1.900              2.643
 Vibration    10          0.625              1.881              2.450
 Vibration    11          0.627              1.875              2.395
 Vibration    12          0.635              1.849              2.196
 Vibration    13          0.644              1.820              2.012
 Vibration    14          0.654              1.790              1.855
 Vibration    15          0.661              1.767              1.749
 Vibration    16          0.679              1.715              1.547
 Vibration    17          0.703              1.643              1.332
 Vibration    18          0.724              1.584              1.186
 Vibration    19          0.754              1.501              1.018
 Vibration    20          0.779              1.437              0.907
 Vibration    21          0.797              1.390              0.836
 Vibration    22          0.814              1.348              0.778
 Vibration    23          0.839              1.289              0.704
 Vibration    24          0.896              1.160              0.564
 Vibration    25          0.926              1.097              0.505
 Vibration    26          0.931              1.086              0.495
 Vibration    27          0.959              1.031              0.449
 Vibration    28          0.976              0.998              0.423

                           ! Non-Optimized Parameters !
 Normal termination of Gaussian 16 at Sat Dec 12 16:53:30 2020.

 ----------------------------------------------------------------------
 # B3LYP/6-311++G(d,p) empiricaldispersion=gd3bj scf=xqc pop=npa geom=c
 heck
 ----------------------------------------------------------------------

 ----------------------------------------
 CID_120190720_JID_10959_Energie_neutraal
 ----------------------------------------
 Structure from the checkpoint file:  "JID_10959.chk"
 Charge =  0 Multiplicity = 1

 SCF Done:  E(RB3LYP) =  -901.928602213     A.U. after   16 cycles
 Normal termination of Gaussian 16 at Sat Dec 12 17:05:15 2020.

 ----------------------------------------------------------------------
 # B3LYP/6-311++G(d,p) empiricaldispersion=gd3bj scf=xqc pop=npa geom=c
 heck
 ----------------------------------------------------------------------

 --------------------------------------
 CID_120190720_JID_10959_Energie_kation
 --------------------------------------
 Structure from the checkpoint file:  "JID_10959.chk"
 Charge =  1 Multiplicity = 2

 SCF Done:  E(UB3LYP) =  -901.628983434     A.U. after   31 cycles
 Normal termination of Gaussian 16 at Sat Dec 12 17:37:07 2020.
 Gaussian 16:  ES64L-G16RevA.03 25-Dec-2016

 ----------------------------------------------------------------------
 # B3LYP/6-311++G(d,p) empiricaldispersion=gd3bj scf=xqc pop=npa geom=c
 heck
 ----------------------------------------------------------------------

 -------------------------------------
 CID_120190720_JID_10959_Energie_anion
 -------------------------------------
 Structure from the checkpoint file:  "JID_10959.chk"
 Charge = -1 Multiplicity = 2

                         Standard orientation:
 ---------------------------------------------------------------------
 Center     Atomic      Atomic             Coordinates (Angstroms)
 Number     Number       Type             X           Y           Z
 ---------------------------------------------------------------------
      1          6           0       -2.271783   -2.114277    1.581460
      2          6           0       -2.525192   -0.990045    0.626166
      3          6           0       -1.872124   -0.703206   -0.513094
      4          6           0       -2.514345    0.443973   -1.265655
      5          6           0       -3.417218    1.088227   -0.190232
      6          6           0       -3.694565   -0.045651    0.822290
      7          6           0       -0.740677   -1.448550   -1.127259
      8          8           0       -0.795569   -1.868520   -2.278051
      9          7           0        0.386682   -1.640025   -0.349294
     10          6           0        0.759776   -0.738602    0.742565
     11          6           0        2.146154   -1.140181    1.303140
     12          6           0        3.310146   -0.844309    0.383418
     13          8           0        4.203449   -0.060874    0.593966
     14          8           0        3.250702   -1.589352   -0.759144
     15          6           0        0.706056    0.735244    0.363738
     16          6           0        1.133738    1.179695   -0.891656
     17          6           0        1.076037    2.534286   -1.218466
     18          6           0        0.588276    3.459638   -0.294725
     19          6           0        0.160067    3.022941    0.959968
     20          6           0        0.219461    1.668017    1.283384
     21          1           0       -2.065759   -1.733982    2.592148
     22          1           0       -3.162189   -2.751419    1.668668
     23          1           0       -1.433834   -2.742041    1.266814
     24          1           0       -1.775698    1.143235   -1.671251
     25          1           0       -3.087296    0.054058   -2.117914
     26          1           0       -2.857405    1.887255    0.307733
     27          1           0       -4.330372    1.527452   -0.602688
     28          1           0       -4.638593   -0.569463    0.605310
     29          1           0       -3.773190    0.312800    1.857274
     30          1           0        1.156766   -2.025982   -0.886593
     31          1           0        0.060829   -0.891757    1.568725
     32          1           0        2.326338   -0.586283    2.225620
     33          1           0        2.133811   -2.213207    1.528396
     34          1           0        4.016750   -1.325013   -1.303018
     35          1           0        1.489587    0.461312   -1.623682
     36          1           0        1.406142    2.865465   -2.198915
     37          1           0        0.536607    4.513361   -0.552822
     38          1           0       -0.228731    3.735012    1.682477
     39          1           0       -0.132037    1.326142    2.254355
 ---------------------------------------------------------------------

 SCF Done:  E(UB3LYP) =  -901.922054157     A.U. after   33 cycles
 SCF Done:  E(UB3LYP) =  -901.922054157     a.u. after    1 cycles

 The electronic state is 2-A.
 Alpha  occ. eigenvalues --  -19.08385 -19.02632 -18.99385 -14.23370 -10.21520
 Alpha  occ. eigenvalues --  -10.17660 -10.13448 -10.10016 -10.09168 -10.08883
 Alpha  occ. eigenvalues --  -10.08558 -10.08510 -10.08476 -10.08326 -10.08060
 Alpha  occ. eigenvalues --  -10.07877 -10.07735 -10.07561 -10.07508 -10.07366
 Alpha  occ. eigenvalues --   -1.02182  -0.94227  -0.93356  -0.83408  -0.76715
 Alpha  occ. eigenvalues --   -0.76073  -0.70349  -0.66018  -0.65890  -0.65754
 Alpha  occ. eigenvalues --   -0.63098  -0.58474  -0.57589  -0.52547  -0.52275
 Alpha  occ. eigenvalues --   -0.51594  -0.49623  -0.48363  -0.44164  -0.42923
 Alpha  occ. eigenvalues --   -0.40933  -0.39745  -0.39470  -0.38596  -0.38278
 Alpha  occ. eigenvalues --   -0.37450  -0.36835  -0.35168  -0.34548  -0.33940
 Alpha  occ. eigenvalues --   -0.33214  -0.32673  -0.32478  -0.31560  -0.30862
 Alpha  occ. eigenvalues --   -0.30379  -0.29707  -0.29227  -0.28410  -0.27336
 Alpha  occ. eigenvalues --   -0.25890  -0.25787  -0.25319  -0.25208  -0.24794
 Alpha  occ. eigenvalues --   -0.24443  -0.24109  -0.19508  -0.17898  -0.16799
 Alpha  occ. eigenvalues --   -0.16018  -0.15652  -0.14240   0.03857
 Alpha virt. eigenvalues --    0.05854   0.06268   0.06378   0.06901   0.07118
 Alpha virt. eigenvalues --    0.07692   0.07809   0.08319   0.08805   0.09110
 Alpha virt. eigenvalues --    0.09902   0.10094   0.10347   0.11233   0.11732

  Beta  occ. eigenvalues --  -19.08340 -19.02592 -18.99376 -14.23360 -10.21459
  Beta  occ. eigenvalues --  -10.17652 -10.13434 -10.09990 -10.09166 -10.08875
  Beta  occ. eigenvalues --  -10.08543 -10.08493 -10.08446 -10.08320 -10.08004
  Beta  occ. eigenvalues --  -10.07857 -10.07732 -10.07555 -10.07506 -10.07327
  Beta  occ. eigenvalues --   -1.02082  -0.94209  -0.93272  -0.83383  -0.76661
  Beta  occ. eigenvalues --   -0.76054  -0.70284  -0.65972  -0.65825  -0.65685
  Beta  occ. eigenvalues --   -0.63069  -0.58395  -0.57535  -0.52497  -0.52182
  Beta  occ. eigenvalues --   -0.51519  -0.49580  -0.48326  -0.44125  -0.42875
  Beta  occ. eigenvalues --   -0.40849  -0.39649  -0.39411  -0.38556  -0.38243
  Beta  occ. eigenvalues --   -0.37398  -0.36732  -0.35120  -0.34475  -0.33909
  Beta  occ. eigenvalues --   -0.33168  -0.32625  -0.32431  -0.31501  -0.30824
  Beta  occ. eigenvalues --   -0.30339  -0.29653  -0.29178  -0.28363  -0.27239
  Beta  occ. eigenvalues --   -0.25862  -0.25747  -0.25281  -0.25181  -0.24769
  Beta  occ. eigenvalues --   -0.24417  -0.23952  -0.19446  -0.17844  -0.16653
  Beta  occ. eigenvalues --   -0.15964  -0.15591  -0.14185
  Beta virt. eigenvalues --    0.06026   0.06572   0.06761   0.06802   0.07107
  Beta virt. eigenvalues --    0.07446   0.07933   0.08189   0.08719   0.09276
  Beta virt. eigenvalues --    0.09502   0.10007   0.10197   0.10743   0.11369

 Mulliken charges and spin densities:
               1          2
     1  C    0.564909  -1.206990
     2  C   -1.110882   1.144609
     3  C    1.292771  -0.296453
     4  C   -0.263216  -0.007752
     5  C   -0.515152   0.205836
     6  C    0.008854  -0.649369
     7  C   -0.621207  -0.021277
     8  O   -0.257940   0.004163
     9  N   -0.314274   0.096364
    10  C    1.261877  -0.691903
    11  C    1.066402  -1.620401
    12  C   -0.200073  -0.022772
    13  O   -0.260202   0.047469
    14  O   -0.156980   0.016343
    15  C   -0.143308   0.599752
    16  C   -0.596915   0.356684
    17  C   -0.837653   0.195200
    18  C    0.459618  -0.600359
    19  C    0.449986  -1.032879
    20  C   -0.669398   0.600147
    21  H   -0.206121   0.400862
    22  H   -0.167769   0.326471
    23  H   -0.019569   0.202406
    24  H    0.124482   0.056335
    25  H    0.199432  -0.009452
    26  H    0.287816  -0.140561
    27  H    0.004682   0.148379
    28  H    0.132530   0.004542
    29  H   -0.204296   0.370408
    30  H    0.337858   0.011949
    31  H    0.247023  -0.018284
    32  H   -0.003700   0.219040
    33  H   -0.275185   0.488430
    34  H   -0.141357   0.439427
    35  H    0.268874  -0.023756
    36  H   -0.008539   0.164993
    37  H    0.056305   0.098064
    38  H   -0.320453   0.501209
    39  H   -0.469231   0.643121
 Sum of Mulliken charges =  -1.00000   1.00000

 Dipole moment (field-independent basis, Debye):
    X=             -1.9084    Y=              2.3425    Z=             -2.7940  Tot=              4.1153
 Quadrupole moment (field-independent basis, Debye-Ang):
   XX=           -180.4981   YY=           -163.9558   ZZ=           -166.9915
   XY=             -2.0143   XZ=              1.0642   YZ=             -6.6029

 Summary of Natural Population Analysis:

                                       Natural Population
                Natural  -----------------------------------------------
    Atom  No    Charge         Core      Valence    Rydberg      Total
 -----------------------------------------------------------------------
      C    1   -0.30390      0.99962     2.29820    0.00609     3.30390
      C    2    0.01647      0.99943     1.97458    0.00952     2.98353
      C    3   -0.06398      0.99935     2.05241    0.01223     3.06398
      C    4   -0.19206      0.99961     2.18520    0.00725     3.19206
      C    5   -0.18770      0.99965     2.18051    0.00754     3.18770
      C    6   -0.19955      0.99960     2.19156    0.00839     3.19955
      C    7    0.34356      0.99959     1.63468    0.02218     2.65644
      O    8   -0.31495      0.99988     3.31006    0.00500     4.31495
      N    9   -0.32707      0.99967     2.81802    0.00938     3.82707
      C   10   -0.01828      0.99954     2.00298    0.01577     3.01828
      C   11   -0.23452      0.99955     2.22546    0.00951     3.23452
      C   12    0.41334      0.99972     1.56145    0.02549     2.58666
      O   13   -0.29419      0.99986     3.28860    0.00573     4.29419
      O   14   -0.35769      0.99987     3.35117    0.00665     4.35769
      C   15   -0.02276      0.99948     2.01084    0.01243     3.02276
      C   16   -0.10410      0.99950     2.09556    0.00904     3.10410
      C   17   -0.09304      0.99956     2.08426    0.00922     3.09304
      C   18   -0.10313      0.99956     2.09450    0.00908     3.10313
      C   19   -0.09913      0.99956     2.08924    0.01033     3.09913
      C   20   -0.08905      0.99950     2.07911    0.01044     3.08905
      H   21    0.10816      0.00000     0.39024    0.00160     0.39184
      H   22    0.10614      0.00000     0.39286    0.00100     0.39386
      H   23    0.10928      0.00000     0.38938    0.00134     0.39072
      H   24    0.10512      0.00000     0.39329    0.00159     0.39488
      H   25    0.10098      0.00000     0.39798    0.00104     0.39902
      H   26    0.10100      0.00000     0.39757    0.00142     0.39900
      H   27    0.09526      0.00000     0.40394    0.00080     0.40474
      H   28    0.09780      0.00000     0.40113    0.00107     0.40220
      H   29    0.10330      0.00000     0.39562    0.00108     0.39670
      H   30    0.20279      0.00000     0.29431    0.00290     0.29721
      H   31    0.11006      0.00000     0.38644    0.00350     0.38994
      H   32    0.11831      0.00000     0.38062    0.00108     0.38169
      H   33    0.11907      0.00000     0.37874    0.00219     0.38093
      H   34    0.24484      0.00000     0.24905    0.00611     0.25516
      H   35    0.10640      0.00000     0.39192    0.00168     0.39360
      H   36    0.09919      0.00000     0.40004    0.00077     0.40081
      H   37    0.09894      0.00000     0.40032    0.00074     0.40106
      H   38    0.10151      0.00000     0.39752    0.00097     0.39849
      H   39    0.10358      0.00000     0.39418    0.00224     0.39642
 =======================================================================
   * Total *    0.00000     19.99208    52.76356    0.24437    73.00000

 Normal termination of Gaussian 16 at Sat Dec 12 18:09:34 2020.
