 Gaussian 16, Revision A.03,

 -----------------------------------------------------------
 # opt freq B3LYP/6-31G(d) empiricaldispersion=gd3bj scf=xqc
 -----------------------------------------------------------

 -------------------------------
 CID_82310715_JID_10680_neutraal
 -------------------------------
 Symbolic Z-matrix:
 Charge =  0 Multiplicity = 1

 SCF Done:  E(RB3LYP) =  -859.264976182     A.U. after   15 cycles
 SCF Done:  E(RB3LYP) =  -859.272005389     A.U. after   12 cycles
 SCF Done:  E(RB3LYP) =  -859.272415915     A.U. after   12 cycles
 SCF Done:  E(RB3LYP) =  -859.273185206     A.U. after   12 cycles
 SCF Done:  E(RB3LYP) =  -859.273467051     A.U. after   11 cycles
 SCF Done:  E(RB3LYP) =  -859.273443185     A.U. after   11 cycles
 SCF Done:  E(RB3LYP) =  -859.273656880     A.U. after   11 cycles
 SCF Done:  E(RB3LYP) =  -859.273722155     A.U. after   10 cycles
 SCF Done:  E(RB3LYP) =  -859.273759788     A.U. after   10 cycles
 SCF Done:  E(RB3LYP) =  -859.273763430     A.U. after    9 cycles
 SCF Done:  E(RB3LYP) =  -859.273765323     A.U. after    9 cycles
 SCF Done:  E(RB3LYP) =  -859.273765470     A.U. after    7 cycles
 SCF Done:  E(RB3LYP) =  -859.273765488     A.U. after    7 cycles
 SCF Done:  E(RB3LYP) =  -859.273765525     A.U. after    6 cycles
 SCF Done:  E(RB3LYP) =  -859.273765535     A.U. after    6 cycles
 Optimization completed.
    -- Stationary point found.
 Normal termination of Gaussian 16 at Mon Dec 14 17:59:14 2020.

 --------------------------------------------------------------------
 #N Geom=AllCheck Guess=TCheck SCRF=Check GenChk RB3LYP/6-31G(d) Freq
 --------------------------------------------------------------------

 Structure from the checkpoint file:  "JID_10680.chk"
 -------------------------------
 CID_82310715_JID_10680_neutraal
 -------------------------------
 Charge =  0 Multiplicity = 1

 SCF Done:  E(RB3LYP) =  -859.273765535     A.U. after    1 cycles

  Exact polarizability: 223.952  -7.265 197.731 -19.907   4.646 137.870
 Approx polarizability: 325.313  -6.719 313.102 -41.449  12.686 204.360

                      1                      2                      3
                      A                      A                      A
 Frequencies --     38.6687                43.4201                48.4607
 Red. masses --      3.7185                 4.5481                 3.5289
 Frc consts  --      0.0033                 0.0051                 0.0049
 IR Inten    --      0.1861                 0.2068                 1.0927

                      4                      5                      6
                      A                      A                      A
 Frequencies --     55.9041                78.6688               108.6326
 Red. masses --      3.9759                 4.2073                 2.0599
 Frc consts  --      0.0073                 0.0153                 0.0143
 IR Inten    --      0.8527                 0.3788                 3.8134

                      7                      8                      9
                      A                      A                      A
 Frequencies --    122.3262               157.9894               177.7499
 Red. masses --      4.3535                 3.3026                 3.2260
 Frc consts  --      0.0384                 0.0486                 0.0601
 IR Inten    --      1.5005                 0.8027                 2.3139

                     10                     11                     12
                      A                      A                      A
 Frequencies --    207.2289               225.6578               241.9880
 Red. masses --      2.7984                 3.7150                 1.2677
 Frc consts  --      0.0708                 0.1115                 0.0437
 IR Inten    --      0.9533                 3.4753                29.0172

                     13                     14                     15
                      A                      A                      A
 Frequencies --    251.1026               265.3639               289.2821
 Red. masses --      1.7772                 1.4690                 2.4930
 Frc consts  --      0.0660                 0.0609                 0.1229
 IR Inten    --      4.2298                 2.5596                10.0983

                     16                     17                     18
                      A                      A                      A
 Frequencies --    305.2089               332.6008               338.7062
 Red. masses --      2.6929                 3.2073                 2.3167
 Frc consts  --      0.1478                 0.2090                 0.1566
 IR Inten    --      7.1820                 8.2060                 0.2325

                     19                     20                     21
                      A                      A                      A
 Frequencies --    363.9417               402.7965               419.7347
 Red. masses --      2.8795                 3.4423                 4.5045
 Frc consts  --      0.2247                 0.3291                 0.4676
 IR Inten    --      4.1091                 1.2291                 2.8084

                     22                     23                     24
                      A                      A                      A
 Frequencies --    441.2627               469.5275               480.4433
 Red. masses --      2.4796                 2.7638                 3.2555
 Frc consts  --      0.2845                 0.3590                 0.4427
 IR Inten    --      9.7807                 0.3121                 2.6004

                     25                     26                     27
                      A                      A                      A
 Frequencies --    513.6775               523.6720               590.0939
 Red. masses --      4.2934                 3.3191                 4.1231
 Frc consts  --      0.6675                 0.5363                 0.8459
 IR Inten    --      0.6723                 4.7719                 1.2671

                     28                     29                     30
                      A                      A                      A
 Frequencies --    600.6824               604.0025               635.8922
 Red. masses --      4.3622                 1.8032                 5.7327
 Frc consts  --      0.9274                 0.3876                 1.3658
 IR Inten    --      1.6940                 6.5527                 2.5629

                     31                     32                     33
                      A                      A                      A
 Frequencies --    691.6411               737.8768               755.0969
 Red. masses --      3.7558                 3.6822                 1.4644
 Frc consts  --      1.0585                 1.1812                 0.4919
 IR Inten    --      6.8659                14.3119                33.5421

                     34                     35                     36
                      A                      A                      A
 Frequencies --    770.1891               776.8021               777.6135
 Red. masses --      3.4022                 3.6812                 2.2548
 Frc consts  --      1.1891                 1.3087                 0.8033
 IR Inten    --      5.9268                23.0438                10.9231

                     37                     38                     39
                      A                      A                      A
 Frequencies --    803.3690               826.6694               837.0413
 Red. masses --      1.6207                 2.5856                 1.6301
 Frc consts  --      0.6163                 1.0410                 0.6729
 IR Inten    --      4.4693               105.6389                 2.1519

                     40                     41                     42
                      A                      A                      A
 Frequencies --    860.8989               862.3623               878.3952
 Red. masses --      1.4803                 1.7392                 1.7109
 Frc consts  --      0.6464                 0.7620                 0.7778
 IR Inten    --     24.9147               108.9414                24.9871

                     43                     44                     45
                      A                      A                      A
 Frequencies --    890.7788               897.1563               922.2560
 Red. masses --      2.1803                 2.3381                 4.2608
 Frc consts  --      1.0193                 1.1088                 2.1352
 IR Inten    --     69.0273                 6.3930                 5.1260

                     46                     47                     48
                      A                      A                      A
 Frequencies --    927.5129               970.8290               980.1830
 Red. masses --      1.3554                 1.2327                 2.0200
 Frc consts  --      0.6870                 0.6845                 1.1435
 IR Inten    --      2.5294                 0.0183                 6.9868

                     49                     50                     51
                      A                      A                      A
 Frequencies --    989.1642              1021.4188              1035.4437
 Red. masses --      2.0368                 2.2400                 1.5747
 Frc consts  --      1.1742                 1.3769                 0.9947
 IR Inten    --      0.5698                 5.9375                11.4532

                     52                     53                     54
                      A                      A                      A
 Frequencies --   1040.8528              1046.7223              1071.5844
 Red. masses --      2.0115                 2.3375                 1.7569
 Frc consts  --      1.2840                 1.5089                 1.1886
 IR Inten    --      8.1530                11.8866                28.1402

                     55                     56                     57
                      A                      A                      A
 Frequencies --   1085.7220              1103.6490              1121.3120
 Red. masses --      2.8850                 2.4723                 2.2559
 Frc consts  --      2.0037                 1.7743                 1.6712
 IR Inten    --     21.1381                 5.3391                 6.7222

                     58                     59                     60
                      A                      A                      A
 Frequencies --   1134.6049              1137.3981              1142.6736
 Red. masses --      2.0116                 2.2215                 3.6220
 Frc consts  --      1.5257                 1.6933                 2.7864
 IR Inten    --      2.0022                27.6521                15.5172

                     61                     62                     63
                      A                      A                      A
 Frequencies --   1170.5713              1183.3300              1190.1362
 Red. masses --      1.7566                 1.9390                 1.2844
 Frc consts  --      1.4181                 1.5997                 1.0719
 IR Inten    --      1.9334                34.7213                10.4093

                     64                     65                     66
                      A                      A                      A
 Frequencies --   1205.5039              1219.0997              1235.2514
 Red. masses --      2.0515                 1.3721                 1.8025
 Frc consts  --      1.7566                 1.2014                 1.6205
 IR Inten    --     29.4529                10.9827                 7.5726

                     67                     68                     69
                      A                      A                      A
 Frequencies --   1270.1671              1288.6031              1302.1283
 Red. masses --      2.1100                 1.2836                 2.0533
 Frc consts  --      2.0056                 1.2558                 2.0512
 IR Inten    --     17.3800                20.5052                28.4899

                     70                     71                     72
                      A                      A                      A
 Frequencies --   1318.0826              1338.1105              1348.2922
 Red. masses --      1.6652                 1.3480                 1.4031
 Frc consts  --      1.7045                 1.4221                 1.5028
 IR Inten    --     41.7208                 3.0340                24.2880

                     73                     74                     75
                      A                      A                      A
 Frequencies --   1355.3497              1368.0422              1372.4775
 Red. masses --      1.3112                 1.2875                 2.7869
 Frc consts  --      1.4192                 1.4197                 3.0930
 IR Inten    --      1.7218                 2.1015                17.7310

                     76                     77                     78
                      A                      A                      A
 Frequencies --   1382.0745              1389.4324              1395.8438
 Red. masses --      1.4604                 1.5323                 1.5858
 Frc consts  --      1.6435                 1.7429                 1.8204
 IR Inten    --     10.0577                 2.2167                 3.0288

                     79                     80                     81
                      A                      A                      A
 Frequencies --   1398.2132              1416.2247              1418.7912
 Red. masses --      1.3932                 2.2438                 1.3526
 Frc consts  --      1.6048                 2.6515                 1.6042
 IR Inten    --     21.0332                 1.3710                 9.9846

                     82                     83                     84
                      A                      A                      A
 Frequencies --   1426.0077              1427.2005              1451.1465
 Red. masses --      1.3514                 1.4470                 1.4869
 Frc consts  --      1.6191                 1.7366                 1.8448
 IR Inten    --     33.3537                 5.3672                11.1831

                     85                     86                     87
                      A                      A                      A
 Frequencies --   1457.8875              1491.7645              1498.6170
 Red. masses --      1.7095                 1.1168                 2.6112
 Frc consts  --      2.1408                 1.4642                 3.4552
 IR Inten    --     35.0761                12.1027                58.9833

                     88                     89                     90
                      A                      A                      A
 Frequencies --   1501.7270              1507.1232              1511.1589
 Red. masses --      1.1045                 1.0869                 1.1758
 Frc consts  --      1.4675                 1.4546                 1.5819
 IR Inten    --      2.8189                 0.3744                 5.8026

                     91                     92                     93
                      A                      A                      A
 Frequencies --   1517.4704              1522.3065              1523.8351
 Red. masses --      1.0584                 1.1459                 1.1210
 Frc consts  --      1.4359                 1.5646                 1.5337
 IR Inten    --      1.5780                 8.0513                 8.6597

                     94                     95                     96
                      A                      A                      A
 Frequencies --   1532.3603              1537.3022              1544.9576
 Red. masses --      2.5066                 1.1324                 1.0894
 Frc consts  --      3.4678                 1.5768                 1.5320
 IR Inten    --      3.0815                 1.7077                 3.7489

                     97                     98                     99
                      A                      A                      A
 Frequencies --   1554.8984              1643.0867              1673.4221
 Red. masses --      4.7017                 6.5923                 6.9785
 Frc consts  --      6.6974                10.4859                11.5140
 IR Inten    --     20.7645                 0.9270                 5.3821

                    100                    101                    102
                      A                      A                      A
 Frequencies --   1701.6166              2981.9144              2987.9405
 Red. masses --      1.0893                 1.0707                 1.0731
 Frc consts  --      1.8583                 5.6092                 5.6448
 IR Inten    --     25.3928                26.2595               131.1442

                    103                    104                    105
                      A                      A                      A
 Frequencies --   3012.0731              3040.4717              3054.9188
 Red. masses --      1.0705                 1.0629                 1.0833
 Frc consts  --      5.7223                 5.7892                 5.9568
 IR Inten    --     72.5185                37.4253                 3.1699

                    106                    107                    108
                      A                      A                      A
 Frequencies --   3058.8893              3065.3378              3067.0534
 Red. masses --      1.0684                 1.0804                 1.0441
 Frc consts  --      5.8897                 5.9812                 5.7868
 IR Inten    --     75.2553                55.7076                23.1010

                    109                    110                    111
                      A                      A                      A
 Frequencies --   3082.4455              3091.0558              3100.4501
 Red. masses --      1.0633                 1.1035                 1.0917
 Frc consts  --      5.9522                 6.2119                 6.1830
 IR Inten    --     46.3681                48.6167                 5.4727

                    112                    113                    114
                      A                      A                      A
 Frequencies --   3128.8332              3134.2375              3134.8644
 Red. masses --      1.0915                 1.1024                 1.1014
 Frc consts  --      6.2954                 6.3804                 6.3770
 IR Inten    --     17.1247                49.2141                12.2404

                    115                    116                    117
                      A                      A                      A
 Frequencies --   3136.8760              3160.4014              3186.7700
 Red. masses --      1.0970                 1.1018                 1.0854
 Frc consts  --      6.3599                 6.4837                 6.4946
 IR Inten    --      4.1376                17.1183                 0.4082

                    118                    119                    120
                      A                      A                      A
 Frequencies --   3197.7338              3208.8172              3217.6445
 Red. masses --      1.0893                 1.0942                 1.0958
 Frc consts  --      6.5627                 6.6379                 6.6842
 IR Inten    --     14.9732                26.7139                18.2070

                    121                    122                    123
                      A                      A                      A
 Frequencies --   3436.9164              3473.3166              3560.3775
 Red. masses --      1.0732                 1.0508                 1.0918
 Frc consts  --      7.4690                 7.4690                 8.1540
 IR Inten    --      9.4593                 1.1376                 0.0861

 - Thermochemistry -
 -------------------
 Temperature   298.150 Kelvin.  Pressure   1.00000 Atm.
 Atom     1 has atomic number  6 and mass  12.00000

 Molecular mass:   273.19535 amu.
 Principal axes and moments of inertia in atomic units:
                           1         2         3
     Eigenvalues --  4232.368496225.824557802.67749
           X            0.99979   0.01889  -0.00749
           Y           -0.01896   0.99977  -0.00955
           Z            0.00731   0.00969   0.99993
 This molecule is an asymmetric top.
 Rotational symmetry number  1.
 Warning -- assumption of classical behavior for rotation
           may cause significant error
 Rotational temperatures (Kelvin)      0.02046     0.01391     0.01110
 Rotational constants (GHZ):           0.42641     0.28988     0.23130
 Zero-point vibrational energy     996135.5 (Joules/Mol)
                                  238.08211 (Kcal/Mol)
 Warning -- explicit consideration of  29 degrees of freedom as
           vibrations may cause significant error
 Vibrational temperatures:     55.64    62.47    69.72    80.43   113.19
          (Kelvin)            156.30   176.00   227.31   255.74   298.16
                              324.67   348.17   361.28   381.80   416.21
                              439.13   478.54   487.32   523.63   579.53
                              603.90   634.88   675.55   691.25   739.07
                              753.45   849.01   864.25   869.02   914.91
                              995.12  1061.64  1086.42  1108.13  1117.64
                             1118.81  1155.87  1189.39  1204.32  1238.64
                             1240.75  1263.81  1281.63  1290.81  1326.92
                             1334.48  1396.81  1410.26  1423.19  1469.59
                             1489.77  1497.56  1506.00  1541.77  1562.11
                             1587.90  1613.32  1632.44  1636.46  1644.05
                             1684.19  1702.55  1712.34  1734.45  1754.01
                             1777.25  1827.49  1854.01  1873.47  1896.43
                             1925.24  1939.89  1950.05  1968.31  1974.69
                             1988.50  1999.08  2008.31  2011.72  2037.63
                             2041.32  2051.71  2053.42  2087.88  2097.57
                             2146.32  2156.18  2160.65  2168.41  2174.22
                             2183.30  2190.26  2192.46  2204.72  2211.84
                             2222.85  2237.15  2364.04  2407.68  2448.25
                             4290.31  4298.98  4333.70  4374.56  4395.35
                             4401.06  4410.34  4412.81  4434.95  4447.34
                             4460.86  4501.69  4509.47  4510.37  4513.26
                             4547.11  4585.05  4600.83  4616.77  4629.47
                             4944.96  4997.33  5122.59

 Zero-point correction=                           0.379408 (Hartree/Particle)
 Thermal correction to Energy=                    0.397800
 Thermal correction to Enthalpy=                  0.398744
 Thermal correction to Gibbs Free Energy=         0.332663
 Sum of electronic and zero-point Energies=           -858.894358
 Sum of electronic and thermal Energies=              -858.875966
 Sum of electronic and thermal Enthalpies=            -858.875021
 Sum of electronic and thermal Free Energies=         -858.941102

                     E (Thermal)             CV                S
                      KCal/Mol        Cal/Mol-Kelvin    Cal/Mol-Kelvin
 Total                  249.623             72.556            139.079
 Electronic               0.000              0.000              0.000
 Translational            0.889              2.981             42.714
 Rotational               0.889              2.981             33.685
 Vibrational            247.846             66.594             62.680
 Vibration     1          0.594              1.981              5.326
 Vibration     2          0.595              1.980              5.097
 Vibration     3          0.595              1.978              4.879
 Vibration     4          0.596              1.975              4.597
 Vibration     5          0.600              1.964              3.924
 Vibration     6          0.606              1.942              3.293
 Vibration     7          0.610              1.930              3.063
 Vibration     8          0.621              1.894              2.574
 Vibration     9          0.628              1.870              2.352
 Vibration    10          0.641              1.830              2.068
 Vibration    11          0.650              1.802              1.913
 Vibration    12          0.658              1.776              1.788
 Vibration    13          0.663              1.761              1.723
 Vibration    14          0.671              1.737              1.626
 Vibration    15          0.686              1.694              1.478
 Vibration    16          0.696              1.664              1.388
 Vibration    17          0.715              1.610              1.247
 Vibration    18          0.719              1.598              1.218
 Vibration    19          0.737              1.546              1.105
 Vibration    20          0.768              1.464              0.952
 Vibration    21          0.782              1.427              0.893
 Vibration    22          0.801              1.380              0.823
 Vibration    23          0.827              1.318              0.739
 Vibration    24          0.837              1.293              0.709
 Vibration    25          0.869              1.220              0.625
 Vibration    26          0.879              1.198              0.602
 Vibration    27          0.947              1.053              0.467
 Vibration    28          0.959              1.030              0.448
 Vibration    29          0.962              1.023              0.443

 Optimization completed.
    -- Stationary point found.
 Normal termination of Gaussian 16 at Mon Dec 14 18:29:24 2020.

 ----------------------------------------------------------------------
 # B3LYP/6-311++G(d,p) empiricaldispersion=gd3bj scf=xqc pop=npa geom=c
 heck
 ----------------------------------------------------------------------

 ---------------------------------------
 CID_82310715_JID_10680_Energie_neutraal
 ---------------------------------------
 Structure from the checkpoint file:  "JID_10680.chk"
 Charge =  0 Multiplicity = 1

 SCF Done:  E(RB3LYP) =  -859.509446758     A.U. after   16 cycles
 Normal termination of Gaussian 16 at Mon Dec 14 18:43:56 2020.

 ----------------------------------------------------------------------
 # B3LYP/6-311++G(d,p) empiricaldispersion=gd3bj scf=xqc pop=npa geom=c
 heck
 ----------------------------------------------------------------------

 -------------------------------------
 CID_82310715_JID_10680_Energie_kation
 -------------------------------------
 Structure from the checkpoint file:  "JID_10680.chk"
 Charge =  1 Multiplicity = 2

 SCF Done:  E(UB3LYP) =  -859.254249639     A.U. after   27 cycles
 Normal termination of Gaussian 16 at Mon Dec 14 19:18:55 2020.
 Gaussian 16:  ES64L-G16RevA.03 25-Dec-2016

 ----------------------------------------------------------------------
 # B3LYP/6-311++G(d,p) empiricaldispersion=gd3bj scf=xqc pop=npa geom=c
 heck
 ----------------------------------------------------------------------

 ------------------------------------
 CID_82310715_JID_10680_Energie_anion
 ------------------------------------
 Structure from the checkpoint file:  "JID_10680.chk"
 Charge = -1 Multiplicity = 2

                         Standard orientation:
 ---------------------------------------------------------------------
 Center     Atomic      Atomic             Coordinates (Angstroms)
 Number     Number       Type             X           Y           Z
 ---------------------------------------------------------------------
      1          6           0       -1.812144   -0.630107    2.777506
      2          6           0       -1.502417    0.142493    1.488273
      3          6           0       -0.134542   -0.269514    0.976639
      4          7           0        0.202113   -1.521453    0.748784
      5          6           0        1.498691   -1.483619    0.260016
      6          6           0        2.342728   -2.523729   -0.145178
      7          6           0        3.622663   -2.194438   -0.580219
      8          6           0        4.066324   -0.857588   -0.610991
      9          6           0        3.240811    0.192581   -0.214965
     10          6           0        1.955117   -0.145670    0.210916
     11          7           0        0.891333    0.620723    0.673970
     12          6           0        0.950149    2.066526    0.825213
     13          6           0        0.871413    2.812279   -0.512069
     14          7           0        1.026269    4.246353   -0.264908
     15          7           0       -2.605587    0.048737    0.526511
     16          6           0       -2.587451    1.013317   -0.569085
     17          6           0       -1.884569    0.500887   -1.838316
     18          7           0       -2.434802   -0.776165   -2.302896
     19          6           0       -2.407828   -1.768885   -1.218806
     20          6           0       -3.067319   -1.270359    0.079162
     21          1           0       -1.713788   -1.707122    2.626153
     22          1           0       -2.826767   -0.395801    3.112567
     23          1           0       -1.100980   -0.345169    3.559780
     24          1           0       -1.458989    1.205179    1.751194
     25          1           0        1.997365   -3.552174   -0.112503
     26          1           0        4.298063   -2.982078   -0.901363
     27          1           0        5.074226   -0.639671   -0.951974
     28          1           0        3.589651    1.220550   -0.236909
     29          1           0        0.137232    2.385373    1.482147
     30          1           0        1.887544    2.331761    1.324579
     31          1           0        1.696742    2.481292   -1.150326
     32          1           0       -0.059345    2.530015   -1.028554
     33          1           0        1.165168    4.737947   -1.144821
     34          1           0        0.169969    4.624509    0.137912
     35          1           0       -3.633144    1.244672   -0.832776
     36          1           0       -2.137848    1.947880   -0.209844
     37          1           0       -0.815631    0.349835   -1.645534
     38          1           0       -1.971380    1.239934   -2.645443
     39          1           0       -3.406721   -0.622214   -2.578915
     40          1           0       -1.364455   -2.025697   -1.019315
     41          1           0       -2.915975   -2.676701   -1.566529
     42          1           0       -2.922029   -1.996489    0.881915
     43          1           0       -4.153941   -1.188244   -0.090238
 ---------------------------------------------------------------------

 SCF Done:  E(UB3LYP) =  -859.502981567     A.U. after   33 cycles
 SCF Done:  E(UB3LYP) =  -859.502981567     a.u. after    1 cycles

 The electronic state is 2-A.
 Alpha  occ. eigenvalues --  -14.27557 -14.21050 -14.20208 -14.19934 -14.19501
 Alpha  occ. eigenvalues --  -10.14170 -10.12377 -10.12001 -10.11523 -10.10244
 Alpha  occ. eigenvalues --  -10.10187 -10.09690 -10.09490 -10.09176 -10.08838
 Alpha  occ. eigenvalues --  -10.08792 -10.08465 -10.08375 -10.08221 -10.07203
 Alpha  occ. eigenvalues --   -0.92665  -0.84549  -0.80713  -0.79619  -0.78211
 Alpha  occ. eigenvalues --   -0.75632  -0.68723  -0.66544  -0.66345  -0.64288
 Alpha  occ. eigenvalues --   -0.63352  -0.58031  -0.55504  -0.54251  -0.54159
 Alpha  occ. eigenvalues --   -0.51470  -0.50824  -0.48751  -0.46145  -0.43480
 Alpha  occ. eigenvalues --   -0.42358  -0.41239  -0.39822  -0.38233  -0.36972
 Alpha  occ. eigenvalues --   -0.36846  -0.36476  -0.36086  -0.35444  -0.34999
 Alpha  occ. eigenvalues --   -0.34563  -0.33602  -0.32937  -0.32469  -0.31732
 Alpha  occ. eigenvalues --   -0.29845  -0.29199  -0.28765  -0.28513  -0.28212
 Alpha  occ. eigenvalues --   -0.27134  -0.26881  -0.25977  -0.25618  -0.25394
 Alpha  occ. eigenvalues --   -0.24132  -0.23612  -0.20697  -0.18561  -0.15795
 Alpha  occ. eigenvalues --   -0.15061  -0.14131  -0.13772  -0.10015   0.03950
 Alpha virt. eigenvalues --    0.05757   0.06379   0.06617   0.07165   0.08113
 Alpha virt. eigenvalues --    0.08166   0.08823   0.08959   0.09529   0.09856
 Alpha virt. eigenvalues --    0.10048   0.10591   0.11134   0.11544   0.11937

  Beta  occ. eigenvalues --  -14.27546 -14.21045 -14.20200 -14.19930 -14.19431
  Beta  occ. eigenvalues --  -10.14112 -10.12369 -10.11975 -10.11530 -10.10231
  Beta  occ. eigenvalues --  -10.10177 -10.09679 -10.09467 -10.09167 -10.08836
  Beta  occ. eigenvalues --  -10.08753 -10.08444 -10.08379 -10.08178 -10.07187
  Beta  occ. eigenvalues --   -0.92623  -0.84529  -0.80668  -0.79596  -0.78118
  Beta  occ. eigenvalues --   -0.75581  -0.68677  -0.66495  -0.66305  -0.64223
  Beta  occ. eigenvalues --   -0.63300  -0.58001  -0.55456  -0.54211  -0.54075
  Beta  occ. eigenvalues --   -0.51435  -0.50772  -0.48700  -0.46109  -0.43431
  Beta  occ. eigenvalues --   -0.42314  -0.41204  -0.39763  -0.38205  -0.36922
  Beta  occ. eigenvalues --   -0.36818  -0.36424  -0.36039  -0.35401  -0.34964
  Beta  occ. eigenvalues --   -0.34545  -0.33566  -0.32908  -0.32388  -0.31709
  Beta  occ. eigenvalues --   -0.29788  -0.29172  -0.28724  -0.28478  -0.28184
  Beta  occ. eigenvalues --   -0.27103  -0.26855  -0.25939  -0.25580  -0.25328
  Beta  occ. eigenvalues --   -0.24107  -0.23544  -0.20589  -0.18546  -0.15760
  Beta  occ. eigenvalues --   -0.14990  -0.14012  -0.13581  -0.09994
  Beta virt. eigenvalues --    0.06093   0.06388   0.06575   0.07247   0.07536
  Beta virt. eigenvalues --    0.08316   0.08503   0.09054   0.09281   0.09563
  Beta virt. eigenvalues --    0.10063   0.10380   0.10768   0.11268   0.11663

 Mulliken charges and spin densities:
               1          2
     1  C   -0.171142  -0.543860
     2  C   -0.373245  -0.149952
     3  C   -0.236965  -0.216195
     4  N    0.052616   0.035125
     5  C   -0.014516   0.035357
     6  C   -0.479112   0.225218
     7  C   -0.181153  -0.046541
     8  C   -0.177134  -0.114934
     9  C   -0.305511   0.149202
    10  C    0.498458  -0.205321
    11  N    0.287431   0.042483
    12  C   -0.238952  -0.124970
    13  C    1.063269  -1.438532
    14  N   -0.519080   0.210868
    15  N    0.256364   0.052610
    16  C    0.121471  -0.340901
    17  C   -0.009976  -0.460368
    18  N   -0.030733  -0.030508
    19  C   -0.453150   0.015113
    20  C    0.134424  -0.358123
    21  H    0.128211   0.035975
    22  H   -0.005615   0.179612
    23  H    0.096865   0.056787
    24  H   -0.266787   0.457910
    25  H    0.128908   0.013519
    26  H    0.120479   0.019438
    27  H    0.096374   0.054414
    28  H   -0.046327   0.203887
    29  H   -0.268834   0.408102
    30  H    0.021971   0.163171
    31  H    0.080904   0.082661
    32  H    0.106182   0.051783
    33  H   -0.295022   0.546929
    34  H   -0.271879   0.508280
    35  H   -0.332857   0.526922
    36  H   -0.284834   0.444127
    37  H    0.403036  -0.190654
    38  H   -0.277830   0.472821
    39  H    0.205410   0.011421
    40  H    0.223151  -0.013896
    41  H    0.066763   0.093130
    42  H    0.165174  -0.046798
    43  H   -0.016809   0.184690
 Sum of Mulliken charges =  -1.00000   1.00000

 Dipole moment (field-independent basis, Debye):
    X=              2.0268    Y=             -8.6211    Z=              0.8890  Tot=              8.9006
 Quadrupole moment (field-independent basis, Debye-Ang):
   XX=           -171.5016   YY=           -200.5989   ZZ=           -159.9806
   XY=              3.7979   XZ=             -2.2646   YZ=              1.3579

 Summary of Natural Population Analysis:

                                       Natural Population
                Natural  -----------------------------------------------
    Atom  No    Charge         Core      Valence    Rydberg      Total
 -----------------------------------------------------------------------
      C    1   -0.28326      0.99965     2.27793    0.00568     3.28326
      C    2   -0.02547      0.99953     2.01130    0.01464     3.02547
      C    3    0.22698      0.99957     1.75582    0.01764     2.77302
      N    4   -0.27043      0.99967     2.76206    0.00870     3.77043
      C    5    0.05656      0.99946     1.93148    0.01249     2.94344
      C    6   -0.08841      0.99945     2.08062    0.00833     3.08841
      C    7   -0.12098      0.99960     2.11071    0.01066     3.12098
      C    8   -0.10438      0.99959     2.09559    0.00920     3.10438
      C    9   -0.11555      0.99953     2.10638    0.00964     3.11555
      C   10    0.06956      0.99945     1.92091    0.01008     2.93044
      N   11   -0.21337      0.99959     2.70383    0.00996     3.71337
      C   12   -0.08709      0.99960     2.07504    0.01245     3.08709
      C   13   -0.09413      0.99962     2.08381    0.01069     3.09413
      N   14   -0.42233      0.99977     2.91266    0.00990     3.92233
      N   15   -0.27966      0.99972     2.76419    0.01575     3.77966
      C   16   -0.09395      0.99961     2.08103    0.01332     3.09395
      C   17   -0.10217      0.99962     2.09079    0.01176     3.10217
      N   18   -0.33427      0.99977     2.82315    0.01134     3.83427
      C   19   -0.10406      0.99962     2.09354    0.01090     3.10406
      C   20   -0.09313      0.99960     2.08248    0.01105     3.09313
      H   21    0.10439      0.00000     0.39459    0.00102     0.39561
      H   22    0.10295      0.00000     0.39600    0.00105     0.39705
      H   23    0.10166      0.00000     0.39767    0.00067     0.39834
      H   24    0.10315      0.00000     0.39427    0.00258     0.39685
      H   25    0.10092      0.00000     0.39744    0.00163     0.39908
      H   26    0.09688      0.00000     0.40214    0.00097     0.40312
      H   27    0.09791      0.00000     0.40135    0.00074     0.40209
      H   28    0.10577      0.00000     0.39314    0.00109     0.39423
      H   29    0.10348      0.00000     0.39477    0.00175     0.39652
      H   30    0.10293      0.00000     0.39555    0.00152     0.39707
      H   31    0.09088      0.00000     0.40745    0.00167     0.40912
      H   32    0.08333      0.00000     0.41398    0.00269     0.41667
      H   33    0.18056      0.00000     0.31605    0.00339     0.31944
      H   34    0.18010      0.00000     0.31222    0.00768     0.31990
      H   35    0.09073      0.00000     0.40762    0.00165     0.40927
      H   36    0.10024      0.00000     0.39767    0.00209     0.39976
      H   37    0.09214      0.00000     0.40576    0.00210     0.40786
      H   38    0.09588      0.00000     0.40301    0.00111     0.40412
      H   39    0.16425      0.00000     0.33323    0.00252     0.33575
      H   40    0.10461      0.00000     0.39381    0.00158     0.39539
      H   41    0.08921      0.00000     0.40994    0.00085     0.41079
      H   42    0.10027      0.00000     0.39870    0.00103     0.39973
      H   43    0.08729      0.00000     0.41139    0.00132     0.41271
 =======================================================================
   * Total *    0.00000     19.99201    53.74112    0.26686    74.00000

 Normal termination of Gaussian 16 at Mon Dec 14 20:00:32 2020.
