 Gaussian 16, Revision A.03,

 -----------------------------------------------------------
 # opt freq B3LYP/6-31G(d) empiricaldispersion=gd3bj scf=xqc
 -----------------------------------------------------------

 ------------------------------
 CID_14933933_JID_2227_neutraal
 ------------------------------
 Symbolic Z-matrix:
 Charge =  0 Multiplicity = 1

 SCF Done:  E(RB3LYP) =  -657.508445433     A.U. after   14 cycles
 SCF Done:  E(RB3LYP) =  -657.522215909     A.U. after   13 cycles
 SCF Done:  E(RB3LYP) =  -657.523797066     A.U. after   13 cycles
 SCF Done:  E(RB3LYP) =  -657.524313710     A.U. after   13 cycles
 SCF Done:  E(RB3LYP) =  -657.524774689     A.U. after   13 cycles
 SCF Done:  E(RB3LYP) =  -657.525102124     A.U. after   13 cycles
 SCF Done:  E(RB3LYP) =  -657.525228786     A.U. after   13 cycles
 SCF Done:  E(RB3LYP) =  -657.525341382     A.U. after   11 cycles
 SCF Done:  E(RB3LYP) =  -657.525382996     A.U. after   10 cycles
 SCF Done:  E(RB3LYP) =  -657.525447471     A.U. after   12 cycles
 SCF Done:  E(RB3LYP) =  -657.525463660     A.U. after   10 cycles
 SCF Done:  E(RB3LYP) =  -657.525473822     A.U. after   11 cycles
 SCF Done:  E(RB3LYP) =  -657.525475704     A.U. after   10 cycles
 SCF Done:  E(RB3LYP) =  -657.525476232     A.U. after    9 cycles
 SCF Done:  E(RB3LYP) =  -657.525476327     A.U. after    8 cycles
 Optimization completed.
    -- Stationary point found.
 Normal termination of Gaussian 16 at Wed Dec  9 16:53:46 2020.

 --------------------------------------------------------------------
 #N Geom=AllCheck Guess=TCheck SCRF=Check GenChk RB3LYP/6-31G(d) Freq
 --------------------------------------------------------------------

 Structure from the checkpoint file:  "JID_2227.chk"
 ------------------------------
 CID_14933933_JID_2227_neutraal
 ------------------------------
 Charge =  0 Multiplicity = 1

 SCF Done:  E(RB3LYP) =  -657.525476327     A.U. after    1 cycles

  Exact polarizability:  96.435   0.000  93.716  -0.000  -0.229  37.263
 Approx polarizability: 170.301   0.000 133.551  -0.000   0.093  58.484

                      1                      2                      3
                      A                      A                      A
 Frequencies --     43.3131                85.6810               117.9475
 Red. masses --     11.5483                14.8780                 2.8353
 Frc consts  --      0.0128                 0.0644                 0.0232
 IR Inten    --      0.8459                 0.0114                12.7270

                      4                      5                      6
                      A                      A                      A
 Frequencies --    168.5699               205.0297               305.3328
 Red. masses --     11.3760                14.4639                14.8837
 Frc consts  --      0.1905                 0.3582                 0.8175
 IR Inten    --      4.2126                 1.3868                 0.0952

                      7                      8                      9
                      A                      A                      A
 Frequencies --    322.3701               403.5961               451.4187
 Red. masses --     13.7352                12.0162                12.5486
 Frc consts  --      0.8410                 1.1532                 1.5066
 IR Inten    --      3.7474                23.3254                 1.1651

                     10                     11                     12
                      A                      A                      A
 Frequencies --    488.5317               552.1437               570.0441
 Red. masses --      2.1257                 1.0943                 4.4279
 Frc consts  --      0.2989                 0.1966                 0.8477
 IR Inten    --      5.2885               126.3305                 0.0581

                     13                     14                     15
                      A                      A                      A
 Frequencies --    598.7976               599.8281               656.4233
 Red. masses --     12.1552                 5.1725                12.1903
 Frc consts  --      2.5679                 1.0965                 3.0948
 IR Inten    --     14.8384                 3.7867                13.0397

                     16                     17                     18
                      A                      A                      A
 Frequencies --    689.7098               705.6439               726.8603
 Red. masses --      6.8709                 9.5741                 3.8550
 Frc consts  --      1.9257                 2.8088                 1.2000
 IR Inten    --      1.0023                 0.0004                 0.1515

                     19                     20                     21
                      A                      A                      A
 Frequencies --    741.1147               945.4547               966.2084
 Red. masses --     10.9856                 8.3885                 2.8691
 Frc consts  --      3.5551                 4.4179                 1.5781
 IR Inten    --     38.4646                 1.4783                16.7264

                     22                     23                     24
                      A                      A                      A
 Frequencies --    982.7202              1078.2009              1120.5367
 Red. masses --      3.9292                 8.2129                 4.6287
 Frc consts  --      2.2357                 5.6253                 3.4242
 IR Inten    --      9.4332                 1.9184                81.0034

                     25                     26                     27
                      A                      A                      A
 Frequencies --   1170.9595              1262.0647              1275.3129
 Red. masses --      1.1975                12.5191                 1.5670
 Frc consts  --      0.9674                11.7486                 1.5016
 IR Inten    --      0.2932               130.1663                 0.0761

                     28                     29                     30
                      A                      A                      A
 Frequencies --   1296.5804              1326.4560              1356.2383
 Red. masses --     12.2614                 6.4358                11.0297
 Frc consts  --     12.1447                 6.6717                11.9533
 IR Inten    --    290.8309                58.2591               893.8173

                     31                     32                     33
                      A                      A                      A
 Frequencies --   1374.3202              1447.8646              1848.8238
 Red. masses --      1.9966                 1.0787                12.0981
 Frc consts  --      2.2219                 1.3323                24.3645
 IR Inten    --      8.0309                 6.3855                 2.4517

                     34                     35                     36
                      A                      A                      A
 Frequencies --   1861.2046              1905.5204              1941.8943
 Red. masses --     13.1270                10.9488                13.0048
 Frc consts  --     26.7920                23.4230                28.8939
 IR Inten    --    354.8548              1327.7891                15.7574

                     37                     38                     39
                      A                      A                      A
 Frequencies --   3096.2204              3143.7169              3656.1345
 Red. masses --      1.0632                 1.1010                 1.0807
 Frc consts  --      6.0054                 6.4110                 8.5114
 IR Inten    --      3.4524                 1.3902               119.4158

 - Thermochemistry -
 -------------------
 Temperature   298.150 Kelvin.  Pressure   1.00000 Atm.
 Atom     1 has atomic number  6 and mass  12.00000

 Molecular mass:   169.01236 amu.
 Principal axes and moments of inertia in atomic units:
                           1         2         3
     Eigenvalues --  1430.275081575.695752986.19016
           X            1.00000  -0.00000   0.00000
           Y            0.00000   1.00000  -0.00101
           Z           -0.00000   0.00101   1.00000
 This molecule is an asymmetric top.
 Rotational symmetry number  1.
 Warning -- assumption of classical behavior for rotation
           may cause significant error
 Rotational temperatures (Kelvin)      0.06056     0.05497     0.02900
 Rotational constants (GHZ):           1.26181     1.14536     0.60436
 Zero-point vibrational energy     248158.1 (Joules/Mol)
                                   59.31120 (Kcal/Mol)
 Warning -- explicit consideration of  14 degrees of freedom as
           vibrations may cause significant error
 Vibrational temperatures:     62.32   123.28   169.70   242.53   294.99
          (Kelvin)            439.31   463.82   580.68   649.49   702.89
                              794.41   820.17   861.54   863.02   944.45
                              992.34  1015.26  1045.79  1066.30  1360.30
                             1390.16  1413.92  1551.29  1612.20  1684.75
                             1815.83  1834.89  1865.49  1908.47  1951.32
                             1977.34  2083.15  2660.05  2677.86  2741.62
                             2793.95  4454.77  4523.11  5260.36

 Zero-point correction=                           0.094518 (Hartree/Particle)
 Thermal correction to Energy=                    0.103949
 Thermal correction to Enthalpy=                  0.104894
 Thermal correction to Gibbs Free Energy=         0.058638
 Sum of electronic and zero-point Energies=           -657.430958
 Sum of electronic and thermal Energies=              -657.421527
 Sum of electronic and thermal Enthalpies=            -657.420583
 Sum of electronic and thermal Free Energies=         -657.466838

                     E (Thermal)             CV                S
                      KCal/Mol        Cal/Mol-Kelvin    Cal/Mol-Kelvin
 Total                   65.229             34.405             97.353
 Electronic               0.000              0.000              0.000
 Translational            0.889              2.981             41.282
 Rotational               0.889              2.981             30.288
 Vibrational             63.452             28.443             25.782
 Vibration     1          0.595              1.980              5.101
 Vibration     2          0.601              1.959              3.756
 Vibration     3          0.608              1.934              3.134
 Vibration     4          0.625              1.881              2.451
 Vibration     5          0.640              1.833              2.087
 Vibration     6          0.696              1.664              1.388
 Vibration     7          0.707              1.631              1.298
 Vibration     8          0.769              1.462              0.950
 Vibration     9          0.810              1.358              0.791
 Vibration    10          0.844              1.275              0.687
 Vibration    11          0.907              1.135              0.540
 Vibration    12          0.926              1.096              0.504
 Vibration    13          0.957              1.034              0.452
 Vibration    14          0.958              1.032              0.450

 Optimization completed.
    -- Stationary point found.
 Normal termination of Gaussian 16 at Wed Dec  9 16:56:54 2020.

 ----------------------------------------------------------------------
 # B3LYP/6-311++G(d,p) empiricaldispersion=gd3bj scf=xqc pop=npa geom=c
 heck
 ----------------------------------------------------------------------

 --------------------------------------
 CID_14933933_JID_2227_Energie_neutraal
 --------------------------------------
 Structure from the checkpoint file:  "JID_2227.chk"
 Charge =  0 Multiplicity = 1

 SCF Done:  E(RB3LYP) =  -657.720696611     A.U. after   14 cycles
 Normal termination of Gaussian 16 at Wed Dec  9 16:57:50 2020.

 ----------------------------------------------------------------------
 # B3LYP/6-311++G(d,p) empiricaldispersion=gd3bj scf=xqc pop=npa geom=c
 heck
 ----------------------------------------------------------------------

 ------------------------------------
 CID_14933933_JID_2227_Energie_kation
 ------------------------------------
 Structure from the checkpoint file:  "JID_2227.chk"
 Charge =  1 Multiplicity = 2

 SCF Done:  E(UB3LYP) =  -657.352882011     A.U. after   25 cycles
 Normal termination of Gaussian 16 at Wed Dec  9 17:00:38 2020.
 Gaussian 16:  ES64L-G16RevA.03 25-Dec-2016

 ----------------------------------------------------------------------
 # B3LYP/6-311++G(d,p) empiricaldispersion=gd3bj scf=xqc pop=npa geom=c
 heck
 ----------------------------------------------------------------------

 -----------------------------------
 CID_14933933_JID_2227_Energie_anion
 -----------------------------------
 Structure from the checkpoint file:  "JID_2227.chk"
 Charge = -1 Multiplicity = 2

                         Standard orientation:
 ---------------------------------------------------------------------
 Center     Atomic      Atomic             Coordinates (Angstroms)
 Number     Number       Type             X           Y           Z
 ---------------------------------------------------------------------
      1          6           0       -0.000011    2.216820    0.006493
      2          6           0       -1.226735    1.304273   -0.009752
      3          8           0       -2.391407    1.586234    0.086667
      4          7           0       -0.705395    0.007957   -0.171440
      5          6           0       -1.180251   -1.308802   -0.014477
      6          8           0       -2.319053   -1.687571    0.053302
      7          7           0        0.000011   -2.057742    0.034574
      8          6           0        1.180264   -1.308791   -0.014479
      9          8           0        2.319071   -1.687548    0.053302
     10          7           0        0.705395    0.007964   -0.171440
     11          6           0        1.226721    1.304285   -0.009750
     12          8           0        2.391391    1.586258    0.086667
     13          1           0       -0.000015    2.856887    0.893292
     14          1           0       -0.000015    2.872290   -0.871181
     15          1           0        0.000016   -3.062117    0.148314
 ---------------------------------------------------------------------

 SCF Done:  E(UB3LYP) =  -657.731331189     A.U. after   28 cycles

 The electronic state is 2-A.
 Alpha  occ. eigenvalues --  -18.99437 -18.99436 -18.96224 -18.96224 -14.27250
 Alpha  occ. eigenvalues --  -14.27235 -14.25477 -10.20465 -10.20465 -10.13467
 Alpha  occ. eigenvalues --  -10.13466 -10.05507  -0.99865  -0.94902  -0.93228
 Alpha  occ. eigenvalues --   -0.91142  -0.89802  -0.82838  -0.72719  -0.66582
 Alpha  occ. eigenvalues --   -0.55865  -0.55579  -0.46612  -0.46485  -0.42738
 Alpha  occ. eigenvalues --   -0.40041  -0.36376  -0.34533  -0.33676  -0.33453
 Alpha  occ. eigenvalues --   -0.31190  -0.30771  -0.29623  -0.29381  -0.26321
 Alpha  occ. eigenvalues --   -0.26005  -0.20756  -0.19658  -0.18925  -0.17907
 Alpha  occ. eigenvalues --   -0.15315  -0.12352  -0.11836   0.05339
 Alpha virt. eigenvalues --    0.08336   0.08569   0.10046   0.12512   0.13746
 Alpha virt. eigenvalues --    0.13811   0.15203   0.15864   0.17075   0.17808
 Alpha virt. eigenvalues --    0.18137   0.18203   0.18522   0.19650   0.20050

  Beta  occ. eigenvalues --  -18.99401 -18.99400 -18.95943 -18.95943 -14.27296
  Beta  occ. eigenvalues --  -14.27282 -14.25367 -10.20383 -10.20382 -10.13070
  Beta  occ. eigenvalues --  -10.13069 -10.05611  -0.99707  -0.94803  -0.92973
  Beta  occ. eigenvalues --   -0.90587  -0.89435  -0.82631  -0.72540  -0.66078
  Beta  occ. eigenvalues --   -0.55676  -0.55233  -0.46421  -0.46061  -0.42536
  Beta  occ. eigenvalues --   -0.39475  -0.36030  -0.34429  -0.33380  -0.32610
  Beta  occ. eigenvalues --   -0.30695  -0.30224  -0.29124  -0.28991  -0.25534
  Beta  occ. eigenvalues --   -0.24725  -0.19638  -0.19458  -0.18334  -0.17837
  Beta  occ. eigenvalues --   -0.15092  -0.11997  -0.11485
  Beta virt. eigenvalues --    0.08575   0.10284   0.10319   0.11104   0.13094
  Beta virt. eigenvalues --    0.13760   0.13770   0.15353   0.15750   0.17684
  Beta virt. eigenvalues --    0.18079   0.18361   0.18369   0.19604   0.19959

 Mulliken charges and spin densities:
               1          2
     1  C    0.190838  -0.257861
     2  C   -0.107842   0.225156
     3  O   -0.390135   0.119498
     4  N   -0.055597  -0.025279
     5  C    0.379563   0.033799
     6  O   -0.362439   0.012048
     7  N   -0.425372   0.043724
     8  C    0.379562   0.033800
     9  O   -0.362439   0.012048
    10  N   -0.055597  -0.025279
    11  C   -0.107843   0.225156
    12  O   -0.390136   0.119498
    13  H    0.166349   0.035234
    14  H   -0.203623   0.451100
    15  H    0.344711  -0.002643
 Sum of Mulliken charges =  -1.00000   1.00000

 Dipole moment (field-independent basis, Debye):
    X=              0.0000    Y=             -4.1530    Z=              0.4173  Tot=              4.1739
 Quadrupole moment (field-independent basis, Debye-Ang):
   XX=           -116.9227   YY=            -87.0037   ZZ=            -70.9614
   XY=             -0.0002   XZ=             -0.0000   YZ=              2.1407

 Summary of Natural Population Analysis:

                                       Natural Population
                Natural  -----------------------------------------------
    Atom  No    Charge         Core      Valence    Rydberg      Total
 -----------------------------------------------------------------------
      C    1   -0.28230      0.99959     2.27511    0.00760     3.28230
      C    2    0.40024      0.99971     1.57767    0.02238     2.59976
      O    3   -0.26659      0.99987     3.26111    0.00561     4.26659
      N    4   -0.17552      0.99962     2.66610    0.00980     3.67552
      C    5    0.41615      0.99973     1.56079    0.02333     2.58385
      O    6   -0.30219      0.99987     3.29663    0.00570     4.30219
      N    7   -0.32271      0.99966     2.81470    0.00835     3.82271
      C    8    0.41615      0.99973     1.56079    0.02333     2.58385
      O    9   -0.30219      0.99987     3.29663    0.00570     4.30219
      N   10   -0.17552      0.99962     2.66610    0.00980     3.67552
      C   11    0.40024      0.99971     1.57767    0.02238     2.59976
      O   12   -0.26659      0.99987     3.26111    0.00561     4.26659
      H   13    0.12568      0.00000     0.37320    0.00112     0.37432
      H   14    0.13163      0.00000     0.36370    0.00467     0.36837
      H   15    0.20352      0.00000     0.29520    0.00128     0.29648
 =======================================================================
   * Total *    0.00000     11.99684    30.84651    0.15666    43.00000

 Normal termination of Gaussian 16 at Wed Dec  9 17:04:47 2020.
