 Gaussian 16, Revision A.03,

 -----------------------------------------------------------
 # opt freq B3LYP/6-31G(d) empiricaldispersion=gd3bj scf=xqc
 -----------------------------------------------------------

 -------------------------------
 CID_114395627_JID_8284_neutraal
 -------------------------------
 Symbolic Z-matrix:
 Charge =  0 Multiplicity = 1

 SCF Done:  E(RB3LYP) =  -800.467135316     A.U. after   16 cycles
 SCF Done:  E(RB3LYP) =  -800.498051317     A.U. after   14 cycles
 SCF Done:  E(RB3LYP) =  -800.501622099     A.U. after   13 cycles
 SCF Done:  E(RB3LYP) =  -800.501986814     A.U. after   14 cycles
 SCF Done:  E(RB3LYP) =  -800.503190859     A.U. after   12 cycles
 SCF Done:  E(RB3LYP) =  -800.503357364     A.U. after   12 cycles
 SCF Done:  E(RB3LYP) =  -800.503475950     A.U. after   12 cycles
 SCF Done:  E(RB3LYP) =  -800.503530666     A.U. after   11 cycles
 SCF Done:  E(RB3LYP) =  -800.503544823     A.U. after   10 cycles
 SCF Done:  E(RB3LYP) =  -800.503550551     A.U. after    9 cycles
 SCF Done:  E(RB3LYP) =  -800.503554379     A.U. after    9 cycles
 SCF Done:  E(RB3LYP) =  -800.503556828     A.U. after    9 cycles
 SCF Done:  E(RB3LYP) =  -800.503559283     A.U. after    9 cycles
 SCF Done:  E(RB3LYP) =  -800.503559800     A.U. after    8 cycles
 SCF Done:  E(RB3LYP) =  -800.503559878     A.U. after    7 cycles
 Optimization completed.
    -- Stationary point found.
 Normal termination of Gaussian 16 at Fri Dec 11 19:54:57 2020.

 --------------------------------------------------------------------
 #N Geom=AllCheck Guess=TCheck SCRF=Check GenChk RB3LYP/6-31G(d) Freq
 --------------------------------------------------------------------

 Structure from the checkpoint file:  "JID_8284.chk"
 -------------------------------
 CID_114395627_JID_8284_neutraal
 -------------------------------
 Charge =  0 Multiplicity = 1

 SCF Done:  E(RB3LYP) =  -800.503559878     A.U. after    1 cycles

  Exact polarizability: 246.518  -2.387 143.777  17.168  -0.681 106.927
 Approx polarizability: 323.293 -13.777 239.906  36.035  -4.520 163.412

                      1                      2                      3
                      A                      A                      A
 Frequencies --     21.2060                36.3547                47.3684
 Red. masses --      5.9644                 4.5246                 4.9079
 Frc consts  --      0.0016                 0.0035                 0.0065
 IR Inten    --      0.2361                 2.6100                 2.9652

                      4                      5                      6
                      A                      A                      A
 Frequencies --     59.6490                69.8673               101.6395
 Red. masses --      3.7029                 5.3493                 4.1069
 Frc consts  --      0.0078                 0.0154                 0.0250
 IR Inten    --      0.7786                 2.2014                 0.6130

                      7                      8                      9
                      A                      A                      A
 Frequencies --    131.8898               158.5391               170.0746
 Red. masses --      3.8665                 3.3967                 3.3157
 Frc consts  --      0.0396                 0.0503                 0.0565
 IR Inten    --      2.0709                 8.2960                 1.4024

                     10                     11                     12
                      A                      A                      A
 Frequencies --    192.7673               194.3197               217.6564
 Red. masses --      3.7359                 4.4899                 4.3262
 Frc consts  --      0.0818                 0.0999                 0.1208
 IR Inten    --      3.6715                 3.2730                 6.6385

                     13                     14                     15
                      A                      A                      A
 Frequencies --    258.1586               289.8220               309.2032
 Red. masses --      1.6692                 3.1156                 4.4654
 Frc consts  --      0.0655                 0.1542                 0.2515
 IR Inten    --      0.1643                 1.5885                 0.5529

                     16                     17                     18
                      A                      A                      A
 Frequencies --    364.1033               384.4936               402.3881
 Red. masses --      3.1230                 4.7526                 3.0651
 Frc consts  --      0.2439                 0.4140                 0.2924
 IR Inten    --      6.5273                10.8388                 1.3886

                     19                     20                     21
                      A                      A                      A
 Frequencies --    405.1458               464.6492               487.7107
 Red. masses --      2.6373                 4.4499                 3.0218
 Frc consts  --      0.2551                 0.5660                 0.4235
 IR Inten    --      2.5568                 3.5557                 2.0034

                     22                     23                     24
                      A                      A                      A
 Frequencies --    553.4595               585.2789               598.1646
 Red. masses --      4.0800                 1.9274                 3.7425
 Frc consts  --      0.7363                 0.3890                 0.7890
 IR Inten    --      8.6663                 1.7717                 1.8601

                     25                     26                     27
                      A                      A                      A
 Frequencies --    611.0500               638.1056               689.7162
 Red. masses --      4.9202                 6.1419                 5.7496
 Frc consts  --      1.0824                 1.4734                 1.6115
 IR Inten    --      1.7415                10.2127                 1.0151

                     28                     29                     30
                      A                      A                      A
 Frequencies --    719.8922               725.7579               759.5170
 Red. masses --      3.7732                 2.4238                 3.0069
 Frc consts  --      1.1521                 0.7522                 1.0220
 IR Inten    --      4.8358                 9.0847                 6.9006

                     31                     32                     33
                      A                      A                      A
 Frequencies --    783.3552               818.9618               831.4065
 Red. masses --      2.2769                 2.4594                 1.6372
 Frc consts  --      0.8232                 0.9719                 0.6668
 IR Inten    --     15.1725                 7.7413                41.8910

                     34                     35                     36
                      A                      A                      A
 Frequencies --    855.3837               880.5634               887.0387
 Red. masses --      1.3434                 1.7721                 2.0710
 Frc consts  --      0.5791                 0.8096                 0.9601
 IR Inten    --      3.6916                 3.4860                15.3395

                     37                     38                     39
                      A                      A                      A
 Frequencies --    889.3959               927.6822               934.2776
 Red. masses --      2.0580                 3.9253                 2.4376
 Frc consts  --      0.9591                 1.9903                 1.2536
 IR Inten    --      6.0302                 1.9249                 2.3816

                     40                     41                     42
                      A                      A                      A
 Frequencies --    944.5600               958.3243               974.1947
 Red. masses --      1.5193                 2.1836                 2.2121
 Frc consts  --      0.7986                 1.1815                 1.2369
 IR Inten    --      1.1432                 0.4003                 3.8433

                     43                     44                     45
                      A                      A                      A
 Frequencies --   1002.3476              1027.4844              1051.1637
 Red. masses --      1.5341                 2.7797                 1.7811
 Frc consts  --      0.9081                 1.7290                 1.1595
 IR Inten    --      1.0400                10.5298                 1.7483

                     46                     47                     48
                      A                      A                      A
 Frequencies --   1062.4455              1066.2487              1117.8012
 Red. masses --      1.7953                 2.3191                 2.8048
 Frc consts  --      1.1940                 1.5534                 2.0648
 IR Inten    --      3.2653                 1.6971                 1.5458

                     49                     50                     51
                      A                      A                      A
 Frequencies --   1152.2693              1159.8587              1188.0200
 Red. masses --      1.7631                 1.6378                 1.8238
 Frc consts  --      1.3792                 1.2981                 1.5166
 IR Inten    --     10.5285                 6.4498                 7.7765

                     52                     53                     54
                      A                      A                      A
 Frequencies --   1202.7086              1212.7418              1219.7503
 Red. masses --      1.7614                 1.3337                 2.1581
 Frc consts  --      1.5012                 1.1557                 1.8917
 IR Inten    --      1.0645                11.1357                 9.8482

                     55                     56                     57
                      A                      A                      A
 Frequencies --   1224.5332              1255.8455              1268.9085
 Red. masses --      1.6956                 1.4439                 1.2303
 Frc consts  --      1.4980                 1.3417                 1.1671
 IR Inten    --      6.6560                 2.5060                26.6848

                     58                     59                     60
                      A                      A                      A
 Frequencies --   1288.0150              1306.0642              1324.5909
 Red. masses --      1.2679                 2.5195                 1.3200
 Frc consts  --      1.2393                 2.5322                 1.3646
 IR Inten    --      4.6157                96.7716                 4.8359

                     61                     62                     63
                      A                      A                      A
 Frequencies --   1342.2165              1355.7946              1362.0484
 Red. masses --      1.3301                 1.3650                 1.9405
 Frc consts  --      1.4119                 1.4783                 2.1210
 IR Inten    --      1.6507                15.0847                24.6898

                     64                     65                     66
                      A                      A                      A
 Frequencies --   1370.2627              1378.2592              1386.0368
 Red. masses --      1.3031                 1.3264                 1.3994
 Frc consts  --      1.4416                 1.4845                 1.5839
 IR Inten    --      3.9077                 0.8264               119.3710

                     67                     68                     69
                      A                      A                      A
 Frequencies --   1389.3153              1405.9881              1411.1211
 Red. masses --      1.5320                 1.5897                 1.7285
 Frc consts  --      1.7422                 1.8515                 2.0279
 IR Inten    --      1.2463                77.3596                78.0137

                     70                     71                     72
                      A                      A                      A
 Frequencies --   1420.0301              1426.5378              1497.8040
 Red. masses --      1.4537                 1.5232                 1.4245
 Frc consts  --      1.7271                 1.8263                 1.8829
 IR Inten    --      7.8812                44.1522                83.7687

                     73                     74                     75
                      A                      A                      A
 Frequencies --   1504.9655              1512.9764              1520.5627
 Red. masses --      2.2783                 1.0850                 1.0956
 Frc consts  --      3.0403                 1.4633                 1.4924
 IR Inten    --     86.7364                 5.2080                 7.5565

                     76                     77                     78
                      A                      A                      A
 Frequencies --   1520.8800              1526.9446              1528.4222
 Red. masses --      1.0888                 1.0933                 1.1259
 Frc consts  --      1.4839                 1.5019                 1.5496
 IR Inten    --      6.5102                14.6730                 5.1898

                     79                     80                     81
                      A                      A                      A
 Frequencies --   1550.3507              1561.4693              1573.5872
 Red. masses --      1.0822                 1.1534                 6.2572
 Frc consts  --      1.5326                 1.6568                 9.1287
 IR Inten    --      1.4556                51.4283                47.9600

                     82                     83                     84
                      A                      A                      A
 Frequencies --   1663.5416              1740.1304              2363.6686
 Red. masses --      6.7256                 9.7058                12.5775
 Frc consts  --     10.9660                17.3158                41.4017
 IR Inten    --    272.8484               699.5869                15.9689

                     85                     86                     87
                      A                      A                      A
 Frequencies --   3011.5998              3014.9249              3054.6580
 Red. masses --      1.0682                 1.0703                 1.0608
 Frc consts  --      5.7083                 5.7322                 5.8320
 IR Inten    --     73.0578                19.3071                13.2166

                     88                     89                     90
                      A                      A                      A
 Frequencies --   3060.3493              3063.7283              3065.0738
 Red. masses --      1.0614                 1.0606                 1.0744
 Frc consts  --      5.8569                 5.8654                 5.9472
 IR Inten    --     16.9922                42.0689                13.7956

                     91                     92                     93
                      A                      A                      A
 Frequencies --   3069.2645              3080.2503              3084.6233
 Red. masses --      1.0745                 1.0841                 1.0882
 Frc consts  --      5.9637                 6.0603                 6.1006
 IR Inten    --      2.1802                31.5985                49.2000

                     94                     95                     96
                      A                      A                      A
 Frequencies --   3092.6894              3101.1839              3107.6378
 Red. masses --      1.1017                 1.0950                 1.0733
 Frc consts  --      6.2087                 6.2048                 6.1073
 IR Inten    --     16.4745                35.6616                52.7177

                     97                     98                     99
                      A                      A                      A
 Frequencies --   3109.7150              3127.1683              3134.4499
 Red. masses --      1.1036                 1.0984                 1.1049
 Frc consts  --      6.2877                 6.3284                 6.3958
 IR Inten    --      1.0841                31.2709                34.7474

                    100                    101                    102
                      A                      A                      A
 Frequencies --   3174.4477              3226.0621              3250.3443
 Red. masses --      1.1013                 1.0902                 1.0905
 Frc consts  --      6.5385                 6.6848                 6.7878
 IR Inten    --      4.2003                 8.1571                 3.9030

 - Thermochemistry -
 -------------------
 Temperature   298.150 Kelvin.  Pressure   1.00000 Atm.
 Atom     1 has atomic number  6 and mass  12.00000

 Molecular mass:   246.14806 amu.
 Principal axes and moments of inertia in atomic units:
                           1         2         3
     Eigenvalues --  1401.07076********************
           X            0.99998   0.00562   0.00037
           Y           -0.00563   0.99997   0.00499
           Z           -0.00034  -0.00499   0.99999
 This molecule is an asymmetric top.
 Rotational symmetry number  1.
 Warning -- assumption of classical behavior for rotation
           may cause significant error
 Rotational temperatures (Kelvin)      0.06182     0.00810     0.00769
 Rotational constants (GHZ):           1.28812     0.16879     0.16021
 Zero-point vibrational energy     805116.5 (Joules/Mol)
                                  192.42747 (Kcal/Mol)
 Warning -- explicit consideration of  25 degrees of freedom as
           vibrations may cause significant error
 Vibrational temperatures:     30.51    52.31    68.15    85.82   100.52
          (Kelvin)            146.24   189.76   228.10   244.70   277.35
                              279.58   313.16   371.43   416.99   444.87
                              523.86   553.20   578.95   582.91   668.53
                              701.71   796.30   842.09   860.63   879.16
                              918.09   992.35  1035.76  1044.20  1092.78
                             1127.07  1178.30  1196.21  1230.71  1266.93
                             1276.25  1279.64  1334.73  1344.22  1359.01
                             1378.81  1401.65  1442.15  1478.32  1512.39
                             1528.62  1534.09  1608.27  1657.86  1668.78
                             1709.30  1730.43  1744.86  1754.95  1761.83
                             1806.88  1825.68  1853.17  1879.14  1905.79
                             1931.15  1950.69  1959.68  1971.50  1983.01
                             1994.20  1998.91  2022.90  2030.29  2043.11
                             2052.47  2155.01  2165.31  2176.84  2187.75
                             2188.21  2196.93  2199.06  2230.61  2246.61
                             2264.04  2393.47  2503.66  3400.79  4333.02
                             4337.80  4394.97  4403.16  4408.02  4409.96
                             4415.99  4431.79  4438.08  4449.69  4461.91
                             4471.20  4474.19  4499.30  4509.77  4567.32
                             4641.58  4676.52

 Zero-point correction=                           0.306653 (Hartree/Particle)
 Thermal correction to Energy=                    0.323507
 Thermal correction to Enthalpy=                  0.324451
 Thermal correction to Gibbs Free Energy=         0.260064
 Sum of electronic and zero-point Energies=           -800.196907
 Sum of electronic and thermal Energies=              -800.180053
 Sum of electronic and thermal Enthalpies=            -800.179109
 Sum of electronic and thermal Free Energies=         -800.243495

                     E (Thermal)             CV                S
                      KCal/Mol        Cal/Mol-Kelvin    Cal/Mol-Kelvin
 Total                  203.004             63.379            135.513
 Electronic               0.000              0.000              0.000
 Translational            0.889              2.981             42.403
 Rotational               0.889              2.981             33.489
 Vibrational            201.226             57.418             59.621
 Vibration     1          0.593              1.985              6.518
 Vibration     2          0.594              1.982              5.448
 Vibration     3          0.595              1.979              4.924
 Vibration     4          0.597              1.974              4.469
 Vibration     5          0.598              1.968              4.157
 Vibration     6          0.604              1.948              3.423
 Vibration     7          0.612              1.921              2.918
 Vibration     8          0.621              1.893              2.567
 Vibration     9          0.625              1.879              2.435
 Vibration    10          0.635              1.850              2.201
 Vibration    11          0.635              1.848              2.186
 Vibration    12          0.646              1.814              1.979
 Vibration    13          0.667              1.749              1.674
 Vibration    14          0.686              1.693              1.475
 Vibration    15          0.699              1.656              1.367
 Vibration    16          0.738              1.546              1.105
 Vibration    17          0.753              1.503              1.021
 Vibration    18          0.768              1.465              0.954
 Vibration    19          0.770              1.459              0.944
 Vibration    20          0.822              1.328              0.753
 Vibration    21          0.844              1.277              0.690
 Vibration    22          0.909              1.132              0.537
 Vibration    23          0.942              1.063              0.476
 Vibration    24          0.956              1.036              0.453
 Vibration    25          0.970              1.008              0.431

                           ! Non-Optimized Parameters !
 Normal termination of Gaussian 16 at Fri Dec 11 20:09:12 2020.

 ----------------------------------------------------------------------
 # B3LYP/6-311++G(d,p) empiricaldispersion=gd3bj scf=xqc pop=npa geom=c
 heck
 ----------------------------------------------------------------------

 ---------------------------------------
 CID_114395627_JID_8284_Energie_neutraal
 ---------------------------------------
 Structure from the checkpoint file:  "JID_8284.chk"
 Charge =  0 Multiplicity = 1

 SCF Done:  E(RB3LYP) =  -800.720295196     A.U. after   16 cycles
 Normal termination of Gaussian 16 at Fri Dec 11 20:16:31 2020.

 ----------------------------------------------------------------------
 # B3LYP/6-311++G(d,p) empiricaldispersion=gd3bj scf=xqc pop=npa geom=c
 heck
 ----------------------------------------------------------------------

 -------------------------------------
 CID_114395627_JID_8284_Energie_kation
 -------------------------------------
 Structure from the checkpoint file:  "JID_8284.chk"
 Charge =  1 Multiplicity = 2

 SCF Done:  E(UB3LYP) =  -800.427304834     A.U. after   29 cycles
 Normal termination of Gaussian 16 at Fri Dec 11 20:36:07 2020.
 Gaussian 16:  ES64L-G16RevA.03 25-Dec-2016

 ----------------------------------------------------------------------
 # B3LYP/6-311++G(d,p) empiricaldispersion=gd3bj scf=xqc pop=npa geom=c
 heck
 ----------------------------------------------------------------------

 ------------------------------------
 CID_114395627_JID_8284_Energie_anion
 ------------------------------------
 Structure from the checkpoint file:  "JID_8284.chk"
 Charge = -1 Multiplicity = 2

                         Standard orientation:
 ---------------------------------------------------------------------
 Center     Atomic      Atomic             Coordinates (Angstroms)
 Number     Number       Type             X           Y           Z
 ---------------------------------------------------------------------
      1          6           0        5.250068   -0.306040    0.881123
      2          6           0        5.232051    0.998811    0.070997
      3          6           0        3.739880    1.344861   -0.002286
      4          7           0        3.082784    0.038596    0.030266
      5          6           0        4.001344   -1.047092    0.384508
      6          6           0        1.755072   -0.118047   -0.220470
      7          6           0        0.892362    0.937988   -0.448323
      8          6           0       -0.501300    0.728502   -0.707929
      9          8           0       -1.337945    1.619622   -0.893595
     10          7           0       -0.892162   -0.633469   -0.734280
     11          7           0       -0.077940   -1.669176   -0.509797
     12          6           0        1.180214   -1.440999   -0.265451
     13          6           0       -2.294548   -0.989086   -0.976030
     14          6           0       -3.034480   -1.360526    0.312952
     15          6           0       -3.121188   -0.241430    1.357108
     16          6           0       -3.877249    1.017915    0.880628
     17          6           0       -5.221642    0.706073    0.392195
     18          7           0       -6.275946    0.420136   -0.002058
     19          1           0        6.162917   -0.890882    0.740838
     20          1           0        5.149367   -0.086698    1.950155
     21          1           0        5.622770    0.822164   -0.937578
     22          1           0        5.823138    1.797530    0.526444
     23          1           0        3.420019    1.961150    0.851490
     24          1           0        3.474815    1.885400   -0.918276
     25          1           0        4.227677   -1.673266   -0.491251
     26          1           0        3.569983   -1.693341    1.156640
     27          1           0        1.215809    1.970155   -0.422983
     28          1           0        1.785910   -2.326177   -0.109659
     29          1           0       -2.749016   -0.133316   -1.474710
     30          1           0       -2.294476   -1.839844   -1.661453
     31          1           0       -4.045757   -1.684709    0.037854
     32          1           0       -2.530922   -2.226238    0.759393
     33          1           0       -3.607823   -0.637599    2.255697
     34          1           0       -2.114839    0.076048    1.653209
     35          1           0       -3.962604    1.736178    1.704499
     36          1           0       -3.304076    1.508288    0.085405
 ---------------------------------------------------------------------

 SCF Done:  E(UB3LYP) =  -800.725994705     A.U. after   33 cycles
 SCF Done:  E(UB3LYP) =  -800.725994705     a.u. after    1 cycles

 The electronic state is 2-A.
 Alpha  occ. eigenvalues --  -18.95344 -14.24835 -14.22367 -14.22157 -14.20492
 Alpha  occ. eigenvalues --  -10.13957 -10.12231 -10.11392 -10.10549 -10.10403
 Alpha  occ. eigenvalues --  -10.09717 -10.09425 -10.09083 -10.08019 -10.07933
 Alpha  occ. eigenvalues --  -10.07474 -10.07070 -10.03060  -0.92504  -0.87724
 Alpha  occ. eigenvalues --   -0.85452  -0.81962  -0.74009  -0.71776  -0.70184
 Alpha  occ. eigenvalues --   -0.65302  -0.64223  -0.63959  -0.58215  -0.54279
 Alpha  occ. eigenvalues --   -0.53343  -0.50137  -0.49404  -0.46711  -0.42210
 Alpha  occ. eigenvalues --   -0.41720  -0.41158  -0.40069  -0.39550  -0.38344
 Alpha  occ. eigenvalues --   -0.35806  -0.34321  -0.33555  -0.32831  -0.31935
 Alpha  occ. eigenvalues --   -0.31331  -0.31078  -0.30808  -0.29956  -0.28732
 Alpha  occ. eigenvalues --   -0.27928  -0.27110  -0.26076  -0.25893  -0.25824
 Alpha  occ. eigenvalues --   -0.25500  -0.25276  -0.24268  -0.23928  -0.23437
 Alpha  occ. eigenvalues --   -0.22936  -0.20657  -0.17508  -0.12608  -0.11431
 Alpha  occ. eigenvalues --   -0.09762   0.03809
 Alpha virt. eigenvalues --    0.05808   0.07233   0.07604   0.08012   0.08774
 Alpha virt. eigenvalues --    0.08947   0.09638   0.10332   0.10631   0.10809
 Alpha virt. eigenvalues --    0.11256   0.11584   0.11912   0.12337   0.12398

  Beta  occ. eigenvalues --  -18.95359 -14.24630 -14.22325 -14.22155 -14.19924
  Beta  occ. eigenvalues --  -10.13986 -10.12232 -10.11392 -10.10532 -10.10399
  Beta  occ. eigenvalues --  -10.09589 -10.09436 -10.09081 -10.07996 -10.07909
  Beta  occ. eigenvalues --  -10.07461 -10.07062 -10.02887  -0.92156  -0.87431
  Beta  occ. eigenvalues --   -0.85314  -0.81959  -0.73779  -0.71673  -0.69925
  Beta  occ. eigenvalues --   -0.65123  -0.64152  -0.63771  -0.58127  -0.54058
  Beta  occ. eigenvalues --   -0.53136  -0.50083  -0.49294  -0.46531  -0.42049
  Beta  occ. eigenvalues --   -0.41662  -0.41064  -0.39959  -0.39418  -0.38254
  Beta  occ. eigenvalues --   -0.35622  -0.34018  -0.33512  -0.32734  -0.31788
  Beta  occ. eigenvalues --   -0.31231  -0.30999  -0.30622  -0.29665  -0.28683
  Beta  occ. eigenvalues --   -0.27899  -0.26969  -0.25994  -0.25850  -0.25764
  Beta  occ. eigenvalues --   -0.25418  -0.25234  -0.24196  -0.23432  -0.23345
  Beta  occ. eigenvalues --   -0.22661  -0.19705  -0.17054  -0.12368  -0.10521
  Beta  occ. eigenvalues --   -0.08923
  Beta virt. eigenvalues --    0.06233   0.07156   0.08004   0.08204   0.08568
  Beta virt. eigenvalues --    0.08977   0.09522   0.09805   0.10540   0.10700
  Beta virt. eigenvalues --    0.10979   0.11279   0.11606   0.11913   0.12328

 Mulliken charges and spin densities:
               1          2
     1  C    0.431937  -0.915084
     2  C    0.027218  -0.636027
     3  C   -0.118638   0.060267
     4  N    0.093367   0.117424
     5  C    0.014890  -0.158878
     6  C   -0.366016  -0.109706
     7  C   -0.466443   0.506432
     8  C    0.173845   0.147084
     9  O   -0.391087  -0.004406
    10  N    0.270866   0.040275
    11  N   -0.257541   0.299671
    12  C   -0.223056  -0.204651
    13  C   -0.200501  -0.006756
    14  C   -0.350077  -0.029147
    15  C   -0.202296   0.002029
    16  C    0.007318   0.001711
    17  C   -0.185747  -0.013489
    18  N   -0.334471   0.001247
    19  H   -0.146911   0.304122
    20  H   -0.215111   0.370109
    21  H    0.115327   0.013095
    22  H   -0.327126   0.502101
    23  H    0.018789   0.150093
    24  H    0.090820   0.052726
    25  H    0.170810  -0.029370
    26  H   -0.158503   0.318440
    27  H    0.128406   0.025738
    28  H    0.106151   0.088942
    29  H    0.177757  -0.007349
    30  H    0.121903   0.069466
    31  H    0.115966   0.013959
    32  H    0.152540   0.004193
    33  H    0.144298   0.014327
    34  H    0.189324   0.009196
    35  H    0.164638  -0.000623
    36  H    0.227353   0.002839
 Sum of Mulliken charges =  -1.00000   1.00000

 Dipole moment (field-independent basis, Debye):
    X=             -0.2707    Y=             -1.1885    Z=              0.0967  Tot=              1.2228
 Quadrupole moment (field-independent basis, Debye-Ang):
   XX=           -219.3371   YY=           -134.4965   ZZ=           -127.7706
   XY=             -2.1244   XZ=            -21.9173   YZ=              2.8615

 Summary of Natural Population Analysis:

                                       Natural Population
                Natural  -----------------------------------------------
    Atom  No    Charge         Core      Valence    Rydberg      Total
 -----------------------------------------------------------------------
      C    1   -0.19420      0.99964     2.18604    0.00852     3.19420
      C    2   -0.19364      0.99964     2.18548    0.00852     3.19364
      C    3   -0.08172      0.99964     2.07126    0.01082     3.08172
      N    4   -0.24134      0.99964     2.73224    0.00945     3.74134
      C    5   -0.07917      0.99963     2.06888    0.01066     3.07917
      C    6    0.12136      0.99950     1.86843    0.01071     2.87864
      C    7   -0.15658      0.99951     2.14854    0.00853     3.15658
      C    8    0.29992      0.99959     1.67867    0.02182     2.70008
      O    9   -0.36893      0.99988     3.36328    0.00577     4.36893
      N   10   -0.11703      0.99965     2.60355    0.01383     3.61703
      N   11   -0.04393      0.99969     2.53112    0.01312     3.54393
      C   12   -0.02113      0.99962     2.00782    0.01369     3.02113
      C   13   -0.08864      0.99962     2.07795    0.01107     3.08864
      C   14   -0.19677      0.99962     2.18954    0.00761     3.19677
      C   15   -0.18298      0.99962     2.17532    0.00803     3.18298
      C   16   -0.26270      0.99953     2.25562    0.00754     3.26270
      C   17    0.16108      0.99967     1.82069    0.01856     2.83892
      N   18   -0.19839      0.99979     2.68710    0.01150     3.69839
      H   19    0.09931      0.00000     0.39980    0.00089     0.40069
      H   20    0.10056      0.00000     0.39706    0.00238     0.39944
      H   21    0.09373      0.00000     0.40513    0.00114     0.40627
      H   22    0.10393      0.00000     0.39458    0.00149     0.39607
      H   23    0.09251      0.00000     0.40604    0.00145     0.40749
      H   24    0.09642      0.00000     0.40230    0.00128     0.40358
      H   25    0.08592      0.00000     0.41296    0.00112     0.41408
      H   26    0.10139      0.00000     0.39709    0.00152     0.39861
      H   27    0.10112      0.00000     0.39667    0.00221     0.39888
      H   28    0.09075      0.00000     0.40759    0.00167     0.40925
      H   29    0.10764      0.00000     0.39087    0.00149     0.39236
      H   30    0.10135      0.00000     0.39729    0.00136     0.39865
      H   31    0.09711      0.00000     0.40098    0.00191     0.40289
      H   32    0.10607      0.00000     0.39270    0.00123     0.39393
      H   33    0.09533      0.00000     0.40358    0.00110     0.40467
      H   34    0.10866      0.00000     0.39010    0.00124     0.39134
      H   35    0.11560      0.00000     0.38339    0.00101     0.38440
      H   36    0.14738      0.00000     0.35134    0.00128     0.35262
 =======================================================================
   * Total *   -0.00000     17.99347    47.78102    0.22551    66.00000

 Normal termination of Gaussian 16 at Fri Dec 11 20:58:02 2020.
