 Gaussian 16, Revision A.03,

 -----------------------------------------------------------
 # opt freq B3LYP/6-31G(d) empiricaldispersion=gd3bj scf=xqc
 -----------------------------------------------------------

 -------------------------------
 CID_130603779_JID_3907_neutraal
 -------------------------------
 Symbolic Z-matrix:
 Charge =  0 Multiplicity = 1

 SCF Done:  E(RB3LYP) =  -587.562622512     A.U. after   14 cycles
 SCF Done:  E(RB3LYP) =  -587.572143362     A.U. after   12 cycles
 SCF Done:  E(RB3LYP) =  -587.574172074     A.U. after   12 cycles
 SCF Done:  E(RB3LYP) =  -587.574569872     A.U. after   12 cycles
 SCF Done:  E(RB3LYP) =  -587.574625568     A.U. after   11 cycles
 SCF Done:  E(RB3LYP) =  -587.574682140     A.U. after   10 cycles
 SCF Done:  E(RB3LYP) =  -587.574866867     A.U. after   12 cycles
 SCF Done:  E(RB3LYP) =  -587.565500179     A.U. after   13 cycles
 SCF Done:  E(RB3LYP) =  -587.577003255     A.U. after   13 cycles
 SCF Done:  E(RB3LYP) =  -587.579267705     A.U. after   14 cycles
 SCF Done:  E(RB3LYP) =  -587.581630321     A.U. after   10 cycles
 SCF Done:  E(RB3LYP) =  -587.581630663     A.U. after    8 cycles
 SCF Done:  E(RB3LYP) =  -587.581630891     A.U. after    7 cycles
 SCF Done:  E(RB3LYP) =  -587.581630944     A.U. after    7 cycles
 SCF Done:  E(RB3LYP) =  -587.581630974     A.U. after    7 cycles
 Optimization completed.
    -- Stationary point found.

 1\1\GINC-NODE304\FOpt\RB3LYP\6-31G(d)\C8H15N5\VSC10255\13-Dec-2020\0\\
 # opt freq B3LYP/6-31G(d) empiricaldispersion=gd3bj scf=xqc\\CID_13060
 3779_JID_3907_neutraal\\0,1\C,1.2569549447,0.2216225425,0.2589515923\C
 ,0.5809035752,0.6233208486,-1.0347987903\C,1.0439947682,1.8313354329,-
 1.8125203532\C,1.2222902387,0.4542076893,-2.3974914614\C,2.6169887083,
 -0.1200993745,-2.5838118572\C,2.5455458852,-1.6236459123,-2.7424699185
 \N,2.5720723859,-2.1952154419,-3.9548622045\N,2.4351599622,-3.50002942
 48,-3.7025518085\N,2.3366831956,-3.8277597239,-2.4160484815\C,2.400626

 Normal termination of Gaussian 16 at Sun Dec 13 16:09:17 2020.

 --------------------------------------------------------------------
 #N Geom=AllCheck Guess=TCheck SCRF=Check GenChk RB3LYP/6-31G(d) Freq
 --------------------------------------------------------------------

 Structure from the checkpoint file:  "JID_3907.chk"
 -------------------------------
 CID_130603779_JID_3907_neutraal
 -------------------------------
 Charge =  0 Multiplicity = 1

 SCF Done:  E(RB3LYP) =  -587.581630974     A.U. after    1 cycles

  Exact polarizability: 138.513   1.463 110.764  -4.604  -6.043  86.934
 Approx polarizability: 182.548  -1.909 165.772 -12.074 -15.837 135.578

                      1                      2                      3
                      A                      A                      A
 Frequencies --     20.0113                51.9081                64.4350
 Red. masses --      3.8247                 3.0165                 1.0973
 Frc consts  --      0.0009                 0.0048                 0.0027
 IR Inten    --      0.1532                 0.1021                 0.1919

                      4                      5                      6
                      A                      A                      A
 Frequencies --     86.2415               117.7403               138.7118
 Red. masses --      4.1625                 3.8269                 3.2062
 Frc consts  --      0.0182                 0.0313                 0.0363
 IR Inten    --      0.2556                 4.9386                 0.4454

                      7                      8                      9
                      A                      A                      A
 Frequencies --    171.7221               192.2400               214.0794
 Red. masses --      3.0843                 3.5845                 1.1762
 Frc consts  --      0.0536                 0.0780                 0.0318
 IR Inten    --      6.4572                 6.2557                 0.4254

                     10                     11                     12
                      A                      A                      A
 Frequencies --    221.9571               288.5943               339.9485
 Red. masses --      2.6892                 2.9003                 1.9574
 Frc consts  --      0.0781                 0.1423                 0.1333
 IR Inten    --      4.6392                 5.4725                34.5483

                     13                     14                     15
                      A                      A                      A
 Frequencies --    365.9732               370.5404               402.4691
 Red. masses --      1.6766                 2.3875                 3.7797
 Frc consts  --      0.1323                 0.1931                 0.3607
 IR Inten    --     35.9621                 1.2500                 2.6916

                     16                     17                     18
                      A                      A                      A
 Frequencies --    467.7421               480.4324               557.8917
 Red. masses --      3.2296                 3.4681                 3.5003
 Frc consts  --      0.4163                 0.4716                 0.6419
 IR Inten    --      1.1509                 7.9798                 6.4272

                     19                     20                     21
                      A                      A                      A
 Frequencies --    664.6584               692.0584               733.7214
 Red. masses --      9.3405                 3.4092                 4.2666
 Frc consts  --      2.4312                 0.9620                 1.3533
 IR Inten    --      5.0147                 3.1654                 9.2634

                     22                     23                     24
                      A                      A                      A
 Frequencies --    780.8803               798.4044               844.9752
 Red. masses --      2.5099                 2.7764                 1.9793
 Frc consts  --      0.9017                 1.0427                 0.8326
 IR Inten    --      2.7731                 7.1152                52.8850

                     25                     26                     27
                      A                      A                      A
 Frequencies --    854.1677               859.3217               902.8276
 Red. masses --      1.4245                 1.3553                 2.1865
 Frc consts  --      0.6124                 0.5896                 1.0500
 IR Inten    --     12.2571                 6.0712                17.5025

                     28                     29                     30
                      A                      A                      A
 Frequencies --    925.1010               968.3517              1018.7068
 Red. masses --      1.6105                 1.8837                 1.6134
 Frc consts  --      0.8121                 1.0407                 0.9865
 IR Inten    --     24.9973                81.9500                56.1894

                     31                     32                     33
                      A                      A                      A
 Frequencies --   1020.8782              1045.1354              1055.7877
 Red. masses --      4.6123                 1.9263                 2.2621
 Frc consts  --      2.8321                 1.2397                 1.4856
 IR Inten    --     25.3036                 2.6387                17.0630

                     34                     35                     36
                      A                      A                      A
 Frequencies --   1074.5600              1100.1533              1107.1364
 Red. masses --      1.6905                 2.6583                 1.9433
 Frc consts  --      1.1501                 1.8957                 1.4035
 IR Inten    --      0.6338                 4.3693                 3.1696

                     37                     38                     39
                      A                      A                      A
 Frequencies --   1121.9572              1154.2253              1158.3350
 Red. masses --      1.5587                 1.3481                 1.3798
 Frc consts  --      1.1560                 1.0582                 1.0908
 IR Inten    --      9.2438                13.9210                 1.0174

                     40                     41                     42
                      A                      A                      A
 Frequencies --   1179.9883              1185.3121              1210.0342
 Red. masses --      2.1470                 1.6189                 1.6674
 Frc consts  --      1.7613                 1.3401                 1.4384
 IR Inten    --      9.7817                 7.4046                 2.3725

                     43                     44                     45
                      A                      A                      A
 Frequencies --   1223.0516              1257.7015              1286.7156
 Red. masses --      2.1579                 1.5326                 1.3155
 Frc consts  --      1.9018                 1.4283                 1.2832
 IR Inten    --     10.0157                 1.6561                 3.6817

                     46                     47                     48
                      A                      A                      A
 Frequencies --   1326.7963              1348.5602              1354.3863
 Red. masses --      1.3085                 1.3581                 3.7105
 Frc consts  --      1.3572                 1.4552                 4.0102
 IR Inten    --     13.6264                 7.9779                11.7733

                     49                     50                     51
                      A                      A                      A
 Frequencies --   1359.5968              1411.6415              1436.4855
 Red. masses --      5.7668                 1.3981                 9.0113
 Frc consts  --      6.2806                 1.6414                10.9557
 IR Inten    --     16.3849                 2.4025                24.3907

                     52                     53                     54
                      A                      A                      A
 Frequencies --   1440.7104              1453.3676              1455.8665
 Red. masses --      1.4289                 2.0917                 2.4424
 Frc consts  --      1.7474                 2.6032                 3.0501
 IR Inten    --      1.3287                 7.6604                 1.9770

                     55                     56                     57
                      A                      A                      A
 Frequencies --   1466.9146              1510.7839              1519.2344
 Red. masses --      1.1769                 1.0565                 1.1984
 Frc consts  --      1.4921                 1.4208                 1.6297
 IR Inten    --      2.1712                 9.5123                 5.6326

                     58                     59                     60
                      A                      A                      A
 Frequencies --   1525.0969              1532.2875              1532.8738
 Red. masses --      1.1043                 1.1488                 1.1818
 Frc consts  --      1.5133                 1.5892                 1.6361
 IR Inten    --      5.7707                 2.2918                 6.8649

                     61                     62                     63
                      A                      A                      A
 Frequencies --   1536.3691              1552.0900              1694.4832
 Red. masses --      1.1338                 3.9246                 1.0822
 Frc consts  --      1.5768                 5.5703                 1.8308
 IR Inten    --      2.5100                10.7897                18.8201

                     64                     65                     66
                      A                      A                      A
 Frequencies --   3044.5191              3072.6981              3093.6565
 Red. masses --      1.0365                 1.0393                 1.0854
 Frc consts  --      5.6605                 5.7815                 6.1206
 IR Inten    --     29.3841                44.4995                12.3866

                     67                     68                     69
                      A                      A                      A
 Frequencies --   3100.9281              3118.9758              3135.6848
 Red. masses --      1.1019                 1.0965                 1.0872
 Frc consts  --      6.2430                 6.2844                 6.2984
 IR Inten    --     40.1950                 9.6326                16.9114

                     70                     71                     72
                      A                      A                      A
 Frequencies --   3144.7045              3149.5612              3150.0008
 Red. masses --      1.0561                 1.0901                 1.0975
 Frc consts  --      6.1532                 6.3710                 6.4159
 IR Inten    --     20.0154                27.0490                17.3815

                     73                     74                     75
                      A                      A                      A
 Frequencies --   3194.0200              3224.0508              3286.7437
 Red. masses --      1.1056                 1.1172                 1.0974
 Frc consts  --      6.6453                 6.8421                 6.9845
 IR Inten    --      2.8632                15.6031                 2.2684

                     76                     77                     78
                      A                      A                      A
 Frequencies --   3397.2842              3416.5982              3546.6682
 Red. masses --      1.0715                 1.0548                 1.0896
 Frc consts  --      7.2864                 7.2545                 8.0752
 IR Inten    --     12.1347                 8.3139                 0.2121

 - Thermochemistry -
 -------------------
 Temperature   298.150 Kelvin.  Pressure   1.00000 Atm.
 Atom     1 has atomic number  6 and mass  12.00000

 Molecular mass:   181.13275 amu.
 Principal axes and moments of inertia in atomic units:
                           1         2         3
     Eigenvalues --  1474.287253366.002874239.26948
           X            0.99965   0.02485  -0.00918
           Y           -0.02494   0.99964  -0.00946
           Z            0.00895   0.00969   0.99991
 This molecule is an asymmetric top.
 Rotational symmetry number  1.
 Warning -- assumption of classical behavior for rotation
           may cause significant error
 Rotational temperatures (Kelvin)      0.05875     0.02573     0.02043
 Rotational constants (GHZ):           1.22414     0.53617     0.42572
 Zero-point vibrational energy     635877.5 (Joules/Mol)
                                  151.97838 (Kcal/Mol)
 Warning -- explicit consideration of  18 degrees of freedom as
           vibrations may cause significant error
 Vibrational temperatures:     28.79    74.68    92.71   124.08   169.40
          (Kelvin)            199.58   247.07   276.59   308.01   319.35
                              415.22   489.11   526.55   533.12   579.06
                              672.98   691.24   802.68   956.30   995.72
                             1055.66  1123.51  1148.73  1215.73  1228.96
                             1236.37  1298.97  1331.01  1393.24  1465.69
                             1468.82  1503.72  1519.04  1546.05  1582.88
                             1592.92  1614.25  1660.67  1666.59  1697.74
                             1705.40  1740.97  1759.70  1809.55  1851.30
                             1908.96  1940.28  1948.66  1956.16  2031.04
                             2066.78  2072.86  2091.07  2094.67  2110.56
                             2173.68  2185.84  2194.27  2204.62  2205.46
                             2210.49  2233.11  2437.98  4380.38  4420.93
                             4451.08  4461.54  4487.51  4511.55  4524.53
                             4531.52  4532.15  4595.48  4638.69  4728.89
                             4887.93  4915.72  5102.86

 Zero-point correction=                           0.242193 (Hartree/Particle)
 Thermal correction to Energy=                    0.255713
 Thermal correction to Enthalpy=                  0.256658
 Thermal correction to Gibbs Free Energy=         0.200552
 Sum of electronic and zero-point Energies=           -587.339438
 Sum of electronic and thermal Energies=              -587.325918
 Sum of electronic and thermal Enthalpies=            -587.324973
 Sum of electronic and thermal Free Energies=         -587.381079

                     E (Thermal)             CV                S
                      KCal/Mol        Cal/Mol-Kelvin    Cal/Mol-Kelvin
 Total                  160.463             49.212            118.083
 Electronic               0.000              0.000              0.000
 Translational            0.889              2.981             41.489
 Rotational               0.889              2.981             31.420
 Vibrational            158.685             43.250             45.174
 Vibration     1          0.593              1.986              6.633
 Vibration     2          0.596              1.977              4.743
 Vibration     3          0.597              1.971              4.317
 Vibration     4          0.601              1.959              3.744
 Vibration     5          0.608              1.935              3.137
 Vibration     6          0.614              1.915              2.822
 Vibration     7          0.626              1.877              2.417
 Vibration     8          0.634              1.851              2.206
 Vibration     9          0.644              1.820              2.009
 Vibration    10          0.648              1.808              1.943
 Vibration    11          0.685              1.695              1.482
 Vibration    12          0.720              1.596              1.212
 Vibration    13          0.739              1.542              1.097
 Vibration    14          0.743              1.533              1.078
 Vibration    15          0.768              1.465              0.954
 Vibration    16          0.825              1.322              0.744
 Vibration    17          0.837              1.293              0.709
 Vibration    18          0.913              1.122              0.528

 Optimization completed.
    -- Stationary point found.

 1\1\GINC-NODE304\Freq\RB3LYP\6-31G(d)\C8H15N5\VSC10255\13-Dec-2020\0\\
 #N Geom=AllCheck Guess=TCheck SCRF=Check GenChk RB3LYP/6-31G(d) Freq\\
 CID_130603779_JID_3907_neutraal\\0,1\C,1.2569549447,0.2216225425,0.258
 9515923\C,0.5809035752,0.6233208486,-1.0347987903\C,1.0439947682,1.831
 3354329,-1.8125203532\C,1.2222902387,0.4542076893,-2.3974914614\C,2.61
 69887083,-0.1200993745,-2.5838118572\C,2.5455458852,-1.6236459123,-2.7
 424699185\N,2.5720723859,-2.1952154419,-3.9548622045\N,2.4351599622,-3
 .5000294248,-3.7025518085\N,2.3366831956,-3.8277597239,-2.4160484815\C

 Normal termination of Gaussian 16 at Sun Dec 13 16:15:50 2020.

 ----------------------------------------------------------------------
 # B3LYP/6-311++G(d,p) empiricaldispersion=gd3bj scf=xqc pop=npa geom=c
 heck
 ----------------------------------------------------------------------

 ---------------------------------------
 CID_130603779_JID_3907_Energie_neutraal
 ---------------------------------------
 Structure from the checkpoint file:  "JID_3907.chk"
 Charge =  0 Multiplicity = 1

 SCF Done:  E(RB3LYP) =  -587.752508340     A.U. after   15 cycles
 Normal termination of Gaussian 16 at Sun Dec 13 16:18:20 2020.

 ----------------------------------------------------------------------
 # B3LYP/6-311++G(d,p) empiricaldispersion=gd3bj scf=xqc pop=npa geom=c
 heck
 ----------------------------------------------------------------------

 -------------------------------------
 CID_130603779_JID_3907_Energie_kation
 -------------------------------------
 Structure from the checkpoint file:  "JID_3907.chk"
 Charge =  1 Multiplicity = 2

 SCF Done:  E(UB3LYP) =  -587.439345409     A.U. after   28 cycles
 Normal termination of Gaussian 16 at Sun Dec 13 16:24:30 2020.
 Gaussian 16:  ES64L-G16RevA.03 25-Dec-2016

 ------------------------------------
 CID_130603779_JID_3907_Energie_anion
 ------------------------------------
 Structure from the checkpoint file:  "JID_3907.chk"
 Charge = -1 Multiplicity = 2

                         Standard orientation:
 ---------------------------------------------------------------------
 Center     Atomic      Atomic             Coordinates (Angstroms)
 Number     Number       Type             X           Y           Z
 ---------------------------------------------------------------------
      1          6           0       -2.768486   -1.756152    0.790073
      2          6           0       -2.653017   -1.085683   -0.562456
      3          6           0       -3.183730    0.309430   -0.787413
      4          6           0       -1.699366    0.057312   -0.847094
      5          6           0       -0.782946    0.646332    0.212603
      6          6           0        0.542044   -0.085269    0.222132
      7          7           0        1.611288    0.407881   -0.418812
      8          7           0        2.555730   -0.519530   -0.237478
      9          7           0        2.190768   -1.575229    0.486745
     10          6           0        0.912584   -1.321174    0.785816
     11          6           0        3.917129   -0.329740   -0.693433
     12          7           0       -0.644716    2.085665   -0.019073
     13          7           0        0.176324    2.665869    1.004570
     14          1           0       -2.009961   -2.538263    0.916454
     15          1           0       -3.752439   -2.227164    0.900823
     16          1           0       -2.656569   -1.042667    1.612705
     17          1           0       -2.781567   -1.773916   -1.396478
     18          1           0       -3.714669    0.535775   -1.707742
     19          1           0       -3.547216    0.854381    0.080358
     20          1           0       -1.247137    0.046247   -1.838232
     21          1           0       -1.236542    0.543667    1.202465
     22          1           0        0.329620   -2.017998    1.369393
     23          1           0        4.466094    0.326942   -0.010294
     24          1           0        4.396609   -1.307865   -0.725647
     25          1           0        3.897197    0.117032   -1.688910
     26          1           0       -0.210183    2.208490   -0.937868
     27          1           0        1.166387    2.550945    0.775014
     28          1           0       -0.030658    3.661459    1.014920
 ---------------------------------------------------------------------

 SCF Done:  E(UB3LYP) =  -587.737571390     A.U. after   33 cycles
 SCF Done:  E(UB3LYP) =  -587.737571391     a.u. after    1 cycles

 The electronic state is 2-A.
 Alpha  occ. eigenvalues --  -14.32479 -14.25067 -14.24701 -14.22687 -14.22009
 Alpha  occ. eigenvalues --  -10.11388 -10.11167 -10.10524 -10.09983 -10.08725
 Alpha  occ. eigenvalues --  -10.08341 -10.07500 -10.07439  -1.00880  -0.86866
 Alpha  occ. eigenvalues --   -0.79515  -0.77608  -0.75709  -0.69442  -0.62462
 Alpha  occ. eigenvalues --   -0.62099  -0.57249  -0.52611  -0.49853  -0.48475
 Alpha  occ. eigenvalues --   -0.46263  -0.43462  -0.40465  -0.40184  -0.40103
 Alpha  occ. eigenvalues --   -0.38718  -0.36415  -0.35051  -0.34385  -0.32473
 Alpha  occ. eigenvalues --   -0.31773  -0.31011  -0.30611  -0.29746  -0.26911
 Alpha  occ. eigenvalues --   -0.25703  -0.23776  -0.20402  -0.20028  -0.19354
 Alpha  occ. eigenvalues --   -0.18909  -0.16427  -0.15849  -0.14472   0.04398
 Alpha virt. eigenvalues --    0.05913   0.07231   0.07344   0.07786   0.08653
 Alpha virt. eigenvalues --    0.09362   0.09723   0.10102   0.10496   0.11403
 Alpha virt. eigenvalues --    0.11774   0.12046   0.12613   0.13499   0.13784

  Beta  occ. eigenvalues --  -14.32471 -14.25048 -14.24676 -14.22677 -14.21987
  Beta  occ. eigenvalues --  -10.11386 -10.11103 -10.10525 -10.09979 -10.08713
  Beta  occ. eigenvalues --  -10.08333 -10.07481 -10.07428  -1.00858  -0.86844
  Beta  occ. eigenvalues --   -0.79484  -0.77580  -0.75679  -0.69404  -0.62428
  Beta  occ. eigenvalues --   -0.62043  -0.57209  -0.52587  -0.49815  -0.48430
  Beta  occ. eigenvalues --   -0.46232  -0.43417  -0.40420  -0.40137  -0.40056
  Beta  occ. eigenvalues --   -0.38686  -0.36392  -0.35013  -0.34357  -0.32449
  Beta  occ. eigenvalues --   -0.31720  -0.30957  -0.30582  -0.29717  -0.26883
  Beta  occ. eigenvalues --   -0.25671  -0.23738  -0.20364  -0.19997  -0.19316
  Beta  occ. eigenvalues --   -0.18881  -0.16402  -0.15817  -0.14453
  Beta virt. eigenvalues --    0.06459   0.07183   0.07670   0.07912   0.08032
  Beta virt. eigenvalues --    0.08977   0.09698   0.10220   0.10744   0.10785
  Beta virt. eigenvalues --    0.11795   0.12233   0.12531   0.12861   0.13784

 Mulliken charges and spin densities:
               1          2
     1  C    0.108188  -0.768475
     2  C   -0.196258   0.169236
     3  C    0.274219  -0.741022
     4  C   -0.301435   0.339291
     5  C    0.575467  -0.840001
     6  C   -0.789294   0.327544
     7  N   -0.312914   0.247444
     8  N    0.018804   0.168570
     9  N   -0.157377   0.099820
    10  C    0.137902  -0.513040
    11  C    1.849427  -2.142458
    12  N    0.137172  -0.053650
    13  N   -0.417514  -0.039468
    14  H    0.086912   0.053698
    15  H   -0.298571   0.450279
    16  H   -0.035216   0.158326
    17  H   -0.355512   0.556200
    18  H   -0.143772   0.292142
    19  H    0.106617   0.041807
    20  H   -0.161850   0.412121
    21  H    0.240121  -0.030364
    22  H   -0.050142   0.201652
    23  H   -0.728842   0.925584
    24  H   -0.350078   0.512599
    25  H   -0.527333   0.706093
    26  H    0.129208   0.132580
    27  H    0.042144   0.199900
    28  H    0.119928   0.133593
 Sum of Mulliken charges =  -1.00000   1.00000

 Dipole moment (field-independent basis, Debye):
    X=             -4.9415    Y=              0.3079    Z=              2.1236  Tot=              5.3873
 Quadrupole moment (field-independent basis, Debye-Ang):
   XX=           -168.3083   YY=           -119.4319   ZZ=           -112.9725
   XY=             -8.0711   XZ=              0.6807   YZ=             -1.7576

 Summary of Natural Population Analysis:

                                       Natural Population
                Natural  -----------------------------------------------
    Atom  No    Charge         Core      Valence    Rydberg      Total
 -----------------------------------------------------------------------
      C    1   -0.28691      0.99965     2.28091    0.00635     3.28691
      C    2   -0.10989      0.99959     2.09971    0.01059     3.10989
      C    3   -0.19154      0.99959     2.18223    0.00971     3.19154
      C    4   -0.10901      0.99955     2.09805    0.01142     3.10901
      C    5   -0.02811      0.99953     2.01321    0.01537     3.02811
      C    6    0.05590      0.99956     1.92851    0.01604     2.94410
      N    7   -0.15090      0.99969     2.63895    0.01226     3.65090
      N    8   -0.00954      0.99972     2.49348    0.01634     3.50954
      N    9   -0.13001      0.99973     2.61902    0.01126     3.63001
      C   10   -0.03223      0.99955     2.02054    0.01213     3.03223
      C   11   -0.17342      0.99963     2.16530    0.00849     3.17342
      N   12   -0.24763      0.99974     2.73391    0.01397     3.74763
      N   13   -0.33366      0.99977     2.82211    0.01178     3.83366
      H   14    0.09899      0.00000     0.39991    0.00110     0.40101
      H   15    0.10130      0.00000     0.39778    0.00092     0.39870
      H   16    0.09651      0.00000     0.40237    0.00111     0.40349
      H   17    0.10303      0.00000     0.39540    0.00158     0.39697
      H   18    0.10309      0.00000     0.39596    0.00095     0.39691
      H   19    0.10127      0.00000     0.39764    0.00108     0.39873
      H   20    0.10634      0.00000     0.39221    0.00145     0.39366
      H   21    0.10478      0.00000     0.39282    0.00240     0.39522
      H   22    0.10223      0.00000     0.39672    0.00105     0.39777
      H   23    0.10489      0.00000     0.39077    0.00435     0.39511
      H   24    0.10767      0.00000     0.39044    0.00189     0.39233
      H   25    0.10747      0.00000     0.39015    0.00238     0.39253
      H   26    0.16451      0.00000     0.33190    0.00359     0.33549
      H   27    0.17299      0.00000     0.32503    0.00198     0.32701
      H   28    0.17189      0.00000     0.32649    0.00161     0.32811
 =======================================================================
   * Total *    0.00000     12.99531    35.82154    0.18315    49.00000

 Normal termination of Gaussian 16 at Sun Dec 13 16:31:43 2020.
