 Gaussian 16, Revision A.03,

 -----------------------------------------------------------
 # opt freq B3LYP/6-31G(d) empiricaldispersion=gd3bj scf=xqc
 -----------------------------------------------------------

 -------------------------------
 CID_116554681_JID_5306_neutraal
 -------------------------------
 Symbolic Z-matrix:
 Charge =  0 Multiplicity = 1

 SCF Done:  E(RB3LYP) =  -686.175176542     A.U. after   15 cycles
 SCF Done:  E(RB3LYP) =  -686.179868532     A.U. after   12 cycles
 SCF Done:  E(RB3LYP) =  -686.179356712     A.U. after   13 cycles
 SCF Done:  E(RB3LYP) =  -686.179862984     A.U. after   12 cycles
 SCF Done:  E(RB3LYP) =  -686.180784625     A.U. after    9 cycles
 SCF Done:  E(RB3LYP) =  -686.181080535     A.U. after   12 cycles
 SCF Done:  E(RB3LYP) =  -686.181303427     A.U. after   11 cycles
 SCF Done:  E(RB3LYP) =  -686.181336795     A.U. after   12 cycles
 SCF Done:  E(RB3LYP) =  -686.181466014     A.U. after   12 cycles
 SCF Done:  E(RB3LYP) =  -686.181472921     A.U. after   12 cycles
 SCF Done:  E(RB3LYP) =  -686.181622978     A.U. after    9 cycles
 SCF Done:  E(RB3LYP) =  -686.181623976     A.U. after    9 cycles
 SCF Done:  E(RB3LYP) =  -686.181624485     A.U. after    8 cycles
 SCF Done:  E(RB3LYP) =  -686.181624752     A.U. after    8 cycles
 SCF Done:  E(RB3LYP) =  -686.181624770     A.U. after    7 cycles
 Optimization completed.
    -- Stationary point found.
 Normal termination of Gaussian 16 at Thu Dec 10 15:37:04 2020.

 --------------------------------------------------------------------
 #N Geom=AllCheck Guess=TCheck SCRF=Check GenChk RB3LYP/6-31G(d) Freq
 --------------------------------------------------------------------

 Structure from the checkpoint file:  "JID_5306.chk"
 -------------------------------
 CID_116554681_JID_5306_neutraal
 -------------------------------
 Charge =  0 Multiplicity = 1

 SCF Done:  E(RB3LYP) =  -686.181624770     A.U. after    1 cycles

  Exact polarizability: 141.968 -11.318 113.515   0.656   1.095 123.588
 Approx polarizability: 193.424 -28.586 168.930  -2.275   3.330 195.172

                      1                      2                      3
                      A                      A                      A
 Frequencies --     20.3564                26.3784                37.0697
 Red. masses --      3.6852                 2.8599                 4.3045
 Frc consts  --      0.0009                 0.0012                 0.0035
 IR Inten    --      0.2540                 0.0413                 4.2656

                      4                      5                      6
                      A                      A                      A
 Frequencies --     53.9245                92.1302                99.0637
 Red. masses --      3.7838                 3.6595                 4.0906
 Frc consts  --      0.0065                 0.0183                 0.0237
 IR Inten    --      0.4306                 0.6350                 1.1887

                      7                      8                      9
                      A                      A                      A
 Frequencies --    142.1010               157.8905               178.7546
 Red. masses --      3.9188                 2.3223                 2.2720
 Frc consts  --      0.0466                 0.0341                 0.0428
 IR Inten    --      0.7497                 0.1052                 1.3641

                     10                     11                     12
                      A                      A                      A
 Frequencies --    211.8883               225.4425               238.5569
 Red. masses --      1.6361                 1.5363                 1.9148
 Frc consts  --      0.0433                 0.0460                 0.0642
 IR Inten    --      0.2372                 0.9905                 0.2617

                     13                     14                     15
                      A                      A                      A
 Frequencies --    257.3501               288.3504               311.4021
 Red. masses --      1.2485                 1.9181                 2.3585
 Frc consts  --      0.0487                 0.0940                 0.1348
 IR Inten    --     38.9512                 3.5283                 6.7416

                     16                     17                     18
                      A                      A                      A
 Frequencies --    325.7887               355.0704               383.0452
 Red. masses --      2.6130                 2.8097                 2.7936
 Frc consts  --      0.1634                 0.2087                 0.2415
 IR Inten    --      5.2008                14.9474                 4.7587

                     19                     20                     21
                      A                      A                      A
 Frequencies --    409.1747               457.1318               489.5161
 Red. masses --      3.3055                 4.0021                 3.1157
 Frc consts  --      0.3261                 0.4927                 0.4399
 IR Inten    --      6.5133                 1.7830                 7.8185

                     22                     23                     24
                      A                      A                      A
 Frequencies --    589.7010               618.6974               670.0318
 Red. masses --      2.9532                 3.6918                 3.7754
 Frc consts  --      0.6051                 0.8326                 0.9986
 IR Inten    --      1.7087                 9.3641                 8.0154

                     25                     26                     27
                      A                      A                      A
 Frequencies --    689.4230               713.4864               725.8725
 Red. masses --      4.5373                 2.6582                 2.8681
 Frc consts  --      1.2706                 0.7973                 0.8904
 IR Inten    --      6.6932                 5.4898                 1.6487

                     28                     29                     30
                      A                      A                      A
 Frequencies --    790.1103               800.7620               836.1991
 Red. masses --      1.5552                 1.1890                 3.2544
 Frc consts  --      0.5720                 0.4492                 1.3407
 IR Inten    --      6.7431                 1.0794                 3.3354

                     31                     32                     33
                      A                      A                      A
 Frequencies --    872.9533               892.0093               906.7693
 Red. masses --      2.5765                 1.3729                 1.4683
 Frc consts  --      1.1568                 0.6436                 0.7113
 IR Inten    --      0.7965                 6.0737                35.1533

                     34                     35                     36
                      A                      A                      A
 Frequencies --    924.6894               967.0959               978.1891
 Red. masses --      2.4285                 1.9520                 1.8608
 Frc consts  --      1.2235                 1.0756                 1.0491
 IR Inten    --      5.6514                 4.0782               167.4994

                     37                     38                     39
                      A                      A                      A
 Frequencies --    986.9716              1000.9753              1058.5992
 Red. masses --      2.3813                 8.1504                 2.3412
 Frc consts  --      1.3667                 4.8114                 1.5458
 IR Inten    --     10.3026                 7.5701                22.4410

                     40                     41                     42
                      A                      A                      A
 Frequencies --   1076.5645              1091.6361              1115.2761
 Red. masses --      2.3938                 1.3807                 2.2628
 Frc consts  --      1.6346                 0.9694                 1.6583
 IR Inten    --      4.0336                 0.6760                37.4855

                     43                     44                     45
                      A                      A                      A
 Frequencies --   1117.0348              1132.6323              1156.5240
 Red. masses --      2.3779                 1.6590                 1.9091
 Frc consts  --      1.7481                 1.2539                 1.5045
 IR Inten    --     40.0256                10.0040                22.0681

                     46                     47                     48
                      A                      A                      A
 Frequencies --   1178.0014              1221.8917              1224.3787
 Red. masses --      2.0780                 1.9367                 1.6046
 Frc consts  --      1.6990                 1.7036                 1.4173
 IR Inten    --     15.6119                 5.9277                14.9762

                     49                     50                     51
                      A                      A                      A
 Frequencies --   1233.7988              1265.6265              1278.3491
 Red. masses --      1.4461                 1.4373                 1.7694
 Frc consts  --      1.2970                 1.3565                 1.7036
 IR Inten    --      4.5460                 5.3675                 1.3548

                     52                     53                     54
                      A                      A                      A
 Frequencies --   1316.0628              1323.0213              1333.7895
 Red. masses --      3.1074                 1.2882                 2.1240
 Frc consts  --      3.1710                 1.3285                 2.2263
 IR Inten    --     27.3621                 6.1489                 6.6729

                     55                     56                     57
                      A                      A                      A
 Frequencies --   1355.7785              1357.6272              1386.5164
 Red. masses --      1.3820                 1.5022                 1.4310
 Frc consts  --      1.4967                 1.6313                 1.6208
 IR Inten    --      1.8853                13.0471                 2.1599

                     58                     59                     60
                      A                      A                      A
 Frequencies --   1395.0032              1404.6595              1433.4628
 Red. masses --      1.3896                 1.3581                 4.0919
 Frc consts  --      1.5932                 1.5788                 4.9540
 IR Inten    --      8.0790                10.4043                29.0268

                     61                     62                     63
                      A                      A                      A
 Frequencies --   1438.8737              1444.3777              1451.6333
 Red. masses --      1.2620                 1.2907                 1.2520
 Frc consts  --      1.5394                 1.5865                 1.5544
 IR Inten    --      8.0478                 5.5094                 1.6188

                     64                     65                     66
                      A                      A                      A
 Frequencies --   1470.8684              1511.0318              1516.6643
 Red. masses --      1.1469                 1.2159                 1.0865
 Frc consts  --      1.4620                 1.6356                 1.4725
 IR Inten    --     16.3402                 7.5825                 7.9835

                     67                     68                     69
                      A                      A                      A
 Frequencies --   1518.8628              1522.9239              1525.8689
 Red. masses --      1.0971                 1.1366                 1.9113
 Frc consts  --      1.4912                 1.5532                 2.6219
 IR Inten    --     14.4646                 6.8161                30.6705

                     70                     71                     72
                      A                      A                      A
 Frequencies --   1531.1777              1534.9770              1539.9509
 Red. masses --      1.1139                 1.0802                 1.0797
 Frc consts  --      1.5387                 1.4995                 1.5085
 IR Inten    --     12.0441                 3.7216                 8.1910

                     73                     74                     75
                      A                      A                      A
 Frequencies --   1563.6964              1709.9867              1800.3835
 Red. masses --      6.1992                 1.0848                11.5671
 Frc consts  --      8.9308                 1.8689                22.0904
 IR Inten    --     14.1046                25.2017               165.3598

                     76                     77                     78
                      A                      A                      A
 Frequencies --   3035.5763              3047.5662              3054.4369
 Red. masses --      1.0647                 1.0602                 1.0404
 Frc consts  --      5.7802                 5.8014                 5.7188
 IR Inten    --     21.3076                31.7261                15.2364

                     79                     80                     81
                      A                      A                      A
 Frequencies --   3061.8250              3065.5303              3070.5940
 Red. masses --      1.0355                 1.0660                 1.0931
 Frc consts  --      5.7196                 5.9024                 6.0725
 IR Inten    --     17.0698                14.6925                34.1062

                     82                     83                     84
                      A                      A                      A
 Frequencies --   3093.1921              3096.1709              3105.0583
 Red. masses --      1.0977                 1.0656                 1.0973
 Frc consts  --      6.1878                 6.0185                 6.2333
 IR Inten    --     23.2857                11.9246                 7.1276

                     85                     86                     87
                      A                      A                      A
 Frequencies --   3115.0148              3128.0762              3133.7735
 Red. masses --      1.1015                 1.1033                 1.0912
 Frc consts  --      6.2974                 6.3608                 6.3138
 IR Inten    --     43.7162                11.9630                19.5056

                     88                     89                     90
                      A                      A                      A
 Frequencies --   3141.6701              3142.6013              3155.9781
 Red. masses --      1.1012                 1.0928                 1.1058
 Frc consts  --      6.4041                 6.3588                 6.4894
 IR Inten    --     13.4240                25.0227                20.0875

                     91                     92                     93
                      A                      A                      A
 Frequencies --   3277.1037              3451.8448              3532.3237
 Red. masses --      1.0973                 1.0501                 1.0906
 Frc consts  --      6.9429                 7.3719                 8.0178
 IR Inten    --      6.9309                 1.1046                 1.0386

 - Thermochemistry -
 -------------------
 Temperature   298.150 Kelvin.  Pressure   1.00000 Atm.
 Atom     1 has atomic number  6 and mass  12.00000

 Molecular mass:   210.14806 amu.
 Principal axes and moments of inertia in atomic units:
                           1         2         3
     Eigenvalues --  2108.388704354.626864603.24893
           X            0.99941   0.01910   0.02848
           Y           -0.01862   0.99968  -0.01719
           Z           -0.02880   0.01665   0.99945
 This molecule is an asymmetric top.
 Rotational symmetry number  1.
 Warning -- assumption of classical behavior for rotation
           may cause significant error
 Rotational temperatures (Kelvin)      0.04108     0.01989     0.01882
 Rotational constants (GHZ):           0.85598     0.41444     0.39206
 Zero-point vibrational energy     753468.9 (Joules/Mol)
                                  180.08340 (Kcal/Mol)
 Warning -- explicit consideration of  23 degrees of freedom as
           vibrations may cause significant error
 Vibrational temperatures:     29.29    37.95    53.34    77.59   132.55
          (Kelvin)            142.53   204.45   227.17   257.19   304.86
                              324.36   343.23   370.27   414.87   448.04
                              468.74   510.87   551.12   588.71   657.71
                              704.30   848.45   890.17   964.03   991.93
                             1026.55  1044.37  1136.79  1152.12  1203.10
                             1255.99  1283.40  1304.64  1330.42  1391.44
                             1407.40  1420.03  1440.18  1523.09  1548.94
                             1570.62  1604.63  1607.16  1629.61  1663.98
                             1694.88  1758.03  1761.61  1775.16  1820.95
                             1839.26  1893.52  1903.53  1919.03  1950.66
                             1953.32  1994.89  2007.10  2020.99  2062.43
                             2070.22  2078.14  2088.58  2116.25  2174.04
                             2182.14  2185.30  2191.15  2195.39  2203.02
                             2208.49  2215.65  2249.81  2460.29  2590.35
                             4367.52  4384.77  4394.65  4405.28  4410.61
                             4417.90  4450.41  4454.70  4467.49  4481.81
                             4500.60  4508.80  4520.16  4521.50  4540.75
                             4715.02  4966.43  5082.23

 Zero-point correction=                           0.286981 (Hartree/Particle)
 Thermal correction to Energy=                    0.303174
 Thermal correction to Enthalpy=                  0.304118
 Thermal correction to Gibbs Free Energy=         0.241223
 Sum of electronic and zero-point Energies=           -685.894644
 Sum of electronic and thermal Energies=              -685.878450
 Sum of electronic and thermal Enthalpies=            -685.877506
 Sum of electronic and thermal Free Energies=         -685.940401

                     E (Thermal)             CV                S
                      KCal/Mol        Cal/Mol-Kelvin    Cal/Mol-Kelvin
 Total                  190.245             58.738            132.374
 Electronic               0.000              0.000              0.000
 Translational            0.889              2.981             41.932
 Rotational               0.889              2.981             32.114
 Vibrational            188.467             52.776             58.329
 Vibration     1          0.593              1.986              6.599
 Vibration     2          0.593              1.985              6.085
 Vibration     3          0.594              1.982              5.410
 Vibration     4          0.596              1.976              4.668
 Vibration     5          0.602              1.955              3.614
 Vibration     6          0.604              1.950              3.473
 Vibration     7          0.616              1.911              2.775
 Vibration     8          0.621              1.894              2.575
 Vibration     9          0.629              1.868              2.341
 Vibration    10          0.643              1.823              2.027
 Vibration    11          0.650              1.802              1.915
 Vibration    12          0.657              1.782              1.814
 Vibration    13          0.667              1.750              1.680
 Vibration    14          0.685              1.695              1.484
 Vibration    15          0.700              1.652              1.355
 Vibration    16          0.710              1.624              1.281
 Vibration    17          0.731              1.565              1.144
 Vibration    18          0.752              1.506              1.027
 Vibration    19          0.774              1.450              0.930
 Vibration    20          0.815              1.345              0.774
 Vibration    21          0.845              1.273              0.685
 Vibration    22          0.947              1.054              0.468
 Vibration    23          0.979              0.992              0.419

                           ! Non-Optimized Parameters !
 Normal termination of Gaussian 16 at Thu Dec 10 15:48:03 2020.

 ----------------------------------------------------------------------
 # B3LYP/6-311++G(d,p) empiricaldispersion=gd3bj scf=xqc pop=npa geom=c
 heck
 ----------------------------------------------------------------------

 ---------------------------------------
 CID_116554681_JID_5306_Energie_neutraal
 ---------------------------------------
 Structure from the checkpoint file:  "JID_5306.chk"
 Charge =  0 Multiplicity = 1

 SCF Done:  E(RB3LYP) =  -686.379786629     A.U. after   15 cycles
 Normal termination of Gaussian 16 at Thu Dec 10 15:53:44 2020.

 ----------------------------------------------------------------------
 # B3LYP/6-311++G(d,p) empiricaldispersion=gd3bj scf=xqc pop=npa geom=c
 heck
 ----------------------------------------------------------------------

 -------------------------------------
 CID_116554681_JID_5306_Energie_kation
 -------------------------------------
 Structure from the checkpoint file:  "JID_5306.chk"
 Charge =  1 Multiplicity = 2

 SCF Done:  E(UB3LYP) =  -686.063010444     A.U. after   25 cycles
 Normal termination of Gaussian 16 at Thu Dec 10 16:04:33 2020.
 Gaussian 16:  ES64L-G16RevA.03 25-Dec-2016

 ----------------------------------------------------------------------
 # B3LYP/6-311++G(d,p) empiricaldispersion=gd3bj scf=xqc pop=npa geom=c
 heck
 ----------------------------------------------------------------------

 ------------------------------------
 CID_116554681_JID_5306_Energie_anion
 ------------------------------------
 Structure from the checkpoint file:  "JID_5306.chk"
 Charge = -1 Multiplicity = 2

                         Standard orientation:
 ---------------------------------------------------------------------
 Center     Atomic      Atomic             Coordinates (Angstroms)
 Number     Number       Type             X           Y           Z
 ---------------------------------------------------------------------
      1          6           0        0.338050    2.618343    0.265929
      2          6           0        1.057100    1.996030   -0.935160
      3          6           0        2.341612    1.238872   -0.570097
      4          6           0        2.184472   -0.020673    0.316347
      5          6           0        1.589900   -1.171219   -0.512007
      6          8           0        2.319185   -1.976814   -1.058751
      7          6           0        0.071284   -1.304370   -0.732662
      8          6           0       -0.798733   -0.758743    0.349618
      9          7           0       -0.613659   -0.959692    1.651856
     10          6           0       -1.652906   -0.289004    2.220237
     11          7           0       -2.467852    0.312026    1.365743
     12          7           0       -1.902471    0.010591    0.163306
     13          6           0       -2.568363    0.436005   -1.061353
     14          6           0       -3.637937   -0.558833   -1.506918
     15          7           0        3.492733   -0.373269    0.867482
     16          1           0        0.011213    1.867654    0.991066
     17          1           0       -0.551434    3.173711   -0.051652
     18          1           0        0.999813    3.318131    0.789677
     19          1           0        0.367124    1.342919   -1.484645
     20          1           0        1.325790    2.792650   -1.640651
     21          1           0        2.878670    0.952398   -1.484830
     22          1           0        3.008156    1.906817   -0.012723
     23          1           0        1.517725    0.201793    1.150884
     24          1           0       -0.155304   -0.824991   -1.691956
     25          1           0       -0.120351   -2.373845   -0.874076
     26          1           0       -1.810591   -0.237049    3.288703
     27          1           0       -3.003619    1.414248   -0.847112
     28          1           0       -1.806017    0.572445   -1.832875
     29          1           0       -4.381555   -0.690337   -0.715707
     30          1           0       -4.143956   -0.192805   -2.406324
     31          1           0       -3.196000   -1.535047   -1.732651
     32          1           0        3.364049   -1.109234    1.561785
     33          1           0        4.034676   -0.810981    0.120766
 ---------------------------------------------------------------------

 SCF Done:  E(UB3LYP) =  -686.373488154     A.U. after   33 cycles
 SCF Done:  E(UB3LYP) =  -686.373488154     a.u. after    1 cycles

 The electronic state is 2-A.
 Alpha  occ. eigenvalues --  -18.98843 -14.29620 -14.23604 -14.20357 -14.19110
 Alpha  occ. eigenvalues --  -10.14240 -10.12810 -10.11976 -10.11410 -10.09347
 Alpha  occ. eigenvalues --  -10.08476 -10.07089 -10.06720 -10.06462 -10.06237
 Alpha  occ. eigenvalues --   -0.97841  -0.92670  -0.80675  -0.78545  -0.75264
 Alpha  occ. eigenvalues --   -0.69271  -0.66939  -0.64107  -0.61004  -0.55864
 Alpha  occ. eigenvalues --   -0.54754  -0.52562  -0.48714  -0.47592  -0.43215
 Alpha  occ. eigenvalues --   -0.41800  -0.39517  -0.38920  -0.36878  -0.36015
 Alpha  occ. eigenvalues --   -0.35344  -0.34497  -0.33801  -0.32712  -0.32152
 Alpha  occ. eigenvalues --   -0.30999  -0.30149  -0.29158  -0.28178  -0.28087
 Alpha  occ. eigenvalues --   -0.27703  -0.26323  -0.25334  -0.23922  -0.23842
 Alpha  occ. eigenvalues --   -0.22978  -0.22053  -0.18917  -0.18213  -0.16676
 Alpha  occ. eigenvalues --   -0.15963  -0.13011   0.04567
 Alpha virt. eigenvalues --    0.06781   0.07641   0.08177   0.08646   0.09385
 Alpha virt. eigenvalues --    0.09595   0.09756   0.10303   0.10712   0.11518
 Alpha virt. eigenvalues --    0.12287   0.12510   0.12824   0.13263   0.13462

  Beta  occ. eigenvalues --  -18.98636 -14.29615 -14.23570 -14.20360 -14.19105
  Beta  occ. eigenvalues --  -10.14197 -10.12520 -10.11971 -10.11364 -10.09368
  Beta  occ. eigenvalues --  -10.08485 -10.07080 -10.06697 -10.06411 -10.06232
  Beta  occ. eigenvalues --   -0.97809  -0.92243  -0.80646  -0.78513  -0.75196
  Beta  occ. eigenvalues --   -0.69227  -0.66844  -0.63953  -0.60962  -0.55745
  Beta  occ. eigenvalues --   -0.54651  -0.52539  -0.48568  -0.47497  -0.42996
  Beta  occ. eigenvalues --   -0.41656  -0.39405  -0.38810  -0.36783  -0.35928
  Beta  occ. eigenvalues --   -0.35273  -0.34456  -0.33705  -0.32518  -0.31891
  Beta  occ. eigenvalues --   -0.30881  -0.30072  -0.29098  -0.28041  -0.27974
  Beta  occ. eigenvalues --   -0.27608  -0.26214  -0.24860  -0.23880  -0.23734
  Beta  occ. eigenvalues --   -0.22922  -0.21642  -0.18861  -0.18185  -0.16517
  Beta  occ. eigenvalues --   -0.15864  -0.12877
  Beta virt. eigenvalues --    0.07282   0.07962   0.08250   0.08723   0.09139
  Beta virt. eigenvalues --    0.09743   0.09875   0.10481   0.10546   0.11406
  Beta virt. eigenvalues --    0.11622   0.12559   0.12787   0.13018   0.13414

 Mulliken charges and spin densities:
               1          2
     1  C   -0.590248  -0.054663
     2  C    0.086016  -0.152219
     3  C   -0.309523  -0.036486
     4  C   -0.253386  -0.066465
     5  C   -0.521267   0.505308
     6  O   -0.307312   0.080421
     7  C    0.510547  -1.320567
     8  C   -0.512068   0.467596
     9  N   -0.024454   0.012670
    10  C    0.117720   0.035941
    11  N   -0.171029   0.026541
    12  N    0.225667   0.095090
    13  C   -0.490782   0.410314
    14  C    1.721860  -2.287105
    15  N   -0.263844  -0.015226
    16  H    0.108635   0.016339
    17  H    0.068517   0.086216
    18  H    0.112891   0.016532
    19  H    0.076129   0.000656
    20  H   -0.084295   0.270754
    21  H    0.105196   0.051973
    22  H    0.180834  -0.015240
    23  H    0.228148  -0.002819
    24  H   -0.258509   0.462640
    25  H    0.247405  -0.017912
    26  H    0.133763   0.010952
    27  H   -0.306044   0.493109
    28  H   -0.328366   0.480303
    29  H    0.021064   0.130000
    30  H   -0.789537   0.954250
    31  H   -0.198074   0.346156
    32  H    0.224312   0.004170
    33  H    0.240037   0.010774
 Sum of Mulliken charges =  -1.00000   1.00000

 Dipole moment (field-independent basis, Debye):
    X=              3.9048    Y=              0.4794    Z=              6.1973  Tot=              7.3406
 Quadrupole moment (field-independent basis, Debye-Ang):
   XX=           -157.9610   YY=           -121.9172   ZZ=           -136.0875
   XY=              8.8714   XZ=            -16.7435   YZ=             -0.9267

 Summary of Natural Population Analysis:

                                       Natural Population
                Natural  -----------------------------------------------
    Atom  No    Charge         Core      Valence    Rydberg      Total
 -----------------------------------------------------------------------
      C    1   -0.28731      0.99966     2.28225    0.00540     3.28731
      C    2   -0.19395      0.99963     2.18651    0.00781     3.19395
      C    3   -0.18603      0.99961     2.17616    0.01026     3.18603
      C    4   -0.06357      0.99955     2.05147    0.01254     3.06357
      C    5    0.33254      0.99966     1.64441    0.02340     2.66746
      O    6   -0.28495      0.99987     3.27828    0.00679     4.28495
      C    7   -0.26456      0.99955     2.25484    0.01016     3.26456
      C    8    0.20809      0.99959     1.77627    0.01605     2.79191
      N    9   -0.27554      0.99970     2.76743    0.00841     3.77554
      C   10    0.08403      0.99970     1.89853    0.01773     2.91597
      N   11   -0.15843      0.99973     2.64772    0.01098     3.65843
      N   12   -0.11718      0.99961     2.60321    0.01437     3.61718
      C   13   -0.08574      0.99961     2.07390    0.01223     3.08574
      C   14   -0.28723      0.99965     2.28254    0.00504     3.28723
      N   15   -0.41861      0.99978     2.91014    0.00869     3.91861
      H   16    0.09955      0.00000     0.39943    0.00102     0.40045
      H   17    0.10060      0.00000     0.39868    0.00072     0.39940
      H   18    0.09234      0.00000     0.40685    0.00081     0.40766
      H   19    0.09517      0.00000     0.40285    0.00198     0.40483
      H   20    0.09526      0.00000     0.40386    0.00087     0.40474
      H   21    0.09777      0.00000     0.40131    0.00092     0.40223
      H   22    0.10000      0.00000     0.39867    0.00133     0.40000
      H   23    0.10714      0.00000     0.39095    0.00191     0.39286
      H   24    0.12486      0.00000     0.37261    0.00253     0.37514
      H   25    0.12251      0.00000     0.37632    0.00117     0.37749
      H   26    0.08944      0.00000     0.40979    0.00077     0.41056
      H   27    0.10698      0.00000     0.39096    0.00206     0.39302
      H   28    0.10635      0.00000     0.38990    0.00376     0.39365
      H   29    0.10071      0.00000     0.39827    0.00102     0.39929
      H   30    0.10878      0.00000     0.38736    0.00386     0.39122
      H   31    0.09920      0.00000     0.39964    0.00116     0.40080
      H   32    0.17381      0.00000     0.32492    0.00127     0.32619
      H   33    0.17796      0.00000     0.32014    0.00191     0.32204
 =======================================================================
   * Total *   -0.00000     14.99491    41.80616    0.19893    57.00000

 Normal termination of Gaussian 16 at Thu Dec 10 16:17:37 2020.
