 Gaussian 16, Revision A.03,

 -----------------------------------------------------------
 # opt freq B3LYP/6-31G(d) empiricaldispersion=gd3bj scf=xqc
 -----------------------------------------------------------

 -------------------------------
 CID_118538171_JID_3137_neutraal
 -------------------------------
 Symbolic Z-matrix:
 Charge =  0 Multiplicity = 1

 SCF Done:  E(RB3LYP) =  -628.540432675     A.U. after   15 cycles
 SCF Done:  E(RB3LYP) =  -628.546824458     A.U. after   13 cycles
 SCF Done:  E(RB3LYP) =  -628.547692457     A.U. after   12 cycles
 SCF Done:  E(RB3LYP) =  -628.547857461     A.U. after   11 cycles
 SCF Done:  E(RB3LYP) =  -628.547867732     A.U. after   11 cycles
 SCF Done:  E(RB3LYP) =  -628.547934039     A.U. after   10 cycles
 SCF Done:  E(RB3LYP) =  -628.547954557     A.U. after   10 cycles
 SCF Done:  E(RB3LYP) =  -628.547969939     A.U. after   10 cycles
 SCF Done:  E(RB3LYP) =  -628.547979658     A.U. after   10 cycles
 SCF Done:  E(RB3LYP) =  -628.547989520     A.U. after   10 cycles
 SCF Done:  E(RB3LYP) =  -628.547999698     A.U. after    8 cycles
 SCF Done:  E(RB3LYP) =  -628.547999707     A.U. after    8 cycles
 SCF Done:  E(RB3LYP) =  -628.547999713     A.U. after    8 cycles
 SCF Done:  E(RB3LYP) =  -628.547999714     A.U. after    8 cycles
 SCF Done:  E(RB3LYP) =  -628.547999714     A.U. after    7 cycles
 Optimization completed.
    -- Stationary point found.
 Normal termination of Gaussian 16 at Wed Dec  9 22:30:42 2020.

 --------------------------------------------------------------------
 #N Geom=AllCheck Guess=TCheck SCRF=Check GenChk RB3LYP/6-31G(d) Freq
 --------------------------------------------------------------------

 Structure from the checkpoint file:  "JID_3137.chk"
 -------------------------------
 CID_118538171_JID_3137_neutraal
 -------------------------------
 Charge =  0 Multiplicity = 1

 SCF Done:  E(RB3LYP) =  -628.547999714     A.U. after    1 cycles

  Exact polarizability: 128.298   4.701 112.813   8.789   1.800  86.367
 Approx polarizability: 173.068   3.878 170.374  20.874   3.417 128.499

                      1                      2                      3
                      A                      A                      A
 Frequencies --     20.9544                45.6441                79.0897
 Red. masses --      4.0538                 4.3529                 4.0150
 Frc consts  --      0.0010                 0.0053                 0.0148
 IR Inten    --      0.1009                 0.1665                 0.3493

                      4                      5                      6
                      A                      A                      A
 Frequencies --    101.1981               126.0731               126.9069
 Red. masses --      2.6250                 1.3737                 3.3160
 Frc consts  --      0.0158                 0.0129                 0.0315
 IR Inten    --      0.5578                 0.2554                 3.9080

                      7                      8                      9
                      A                      A                      A
 Frequencies --    148.3680               157.7957               195.8972
 Red. masses --      2.0168                 3.1808                 2.5010
 Frc consts  --      0.0262                 0.0467                 0.0565
 IR Inten    --      1.1781                 1.3243                 4.9321

                     10                     11                     12
                      A                      A                      A
 Frequencies --    244.2896               279.1718               284.8194
 Red. masses --      2.3940                 2.2954                 1.9198
 Frc consts  --      0.0842                 0.1054                 0.0918
 IR Inten    --      2.2506                 3.5442                 1.6010

                     13                     14                     15
                      A                      A                      A
 Frequencies --    303.5025               330.0915               355.4821
 Red. masses --      3.6392                 1.5842                 7.1816
 Frc consts  --      0.1975                 0.1017                 0.5347
 IR Inten    --      4.0322                45.9220                15.9581

                     16                     17                     18
                      A                      A                      A
 Frequencies --    361.2975               377.4040               458.0389
 Red. masses --      1.9903                 2.3419                 2.3568
 Frc consts  --      0.1531                 0.1965                 0.2913
 IR Inten    --     38.5865                 4.0393                 1.4879

                     19                     20                     21
                      A                      A                      A
 Frequencies --    543.3455               607.6822               621.4229
 Red. masses --      4.3765                 4.2397                 4.0764
 Frc consts  --      0.7613                 0.9224                 0.9275
 IR Inten    --     19.2787                 6.2645                15.7340

                     22                     23                     24
                      A                      A                      A
 Frequencies --    658.1700               730.6852               759.7130
 Red. masses --      3.7367                 7.9737                 1.3250
 Frc consts  --      0.9537                 2.5082                 0.4506
 IR Inten    --      8.5668                 8.8796                 6.4000

                     25                     26                     27
                      A                      A                      A
 Frequencies --    818.6472               842.1111               876.3170
 Red. masses --      2.3010                 2.3350                 5.0427
 Frc consts  --      0.9086                 0.9756                 2.2816
 IR Inten    --      1.9402                22.2871                14.8150

                     28                     29                     30
                      A                      A                      A
 Frequencies --    899.7675               949.0666               953.9525
 Red. masses --      1.7523                 3.1043                 2.0599
 Frc consts  --      0.8358                 1.6474                 1.1045
 IR Inten    --     25.1985                19.7057                13.2186

                     31                     32                     33
                      A                      A                      A
 Frequencies --    985.6825              1003.5508              1047.2188
 Red. masses --      2.3709                 2.1385                 2.3558
 Frc consts  --      1.3572                 1.2689                 1.5222
 IR Inten    --      7.3291                 2.1084                92.5715

                     34                     35                     36
                      A                      A                      A
 Frequencies --   1086.5217              1091.2541              1121.1258
 Red. masses --      2.1071                 2.6530                 1.7253
 Frc consts  --      1.4656                 1.8614                 1.2777
 IR Inten    --      1.5591                13.1993                 5.0301

                     37                     38                     39
                      A                      A                      A
 Frequencies --   1133.6042              1163.6376              1172.9703
 Red. masses --      1.7597                 1.5479                 1.8606
 Frc consts  --      1.3324                 1.2349                 1.5082
 IR Inten    --      6.0049                 6.1398                 4.9516

                     40                     41                     42
                      A                      A                      A
 Frequencies --   1189.1096              1231.3589              1271.5939
 Red. masses --      1.8216                 1.3588                 1.9570
 Frc consts  --      1.5175                 1.2138                 1.8644
 IR Inten    --      7.3430                11.0261                14.5228

                     43                     44                     45
                      A                      A                      A
 Frequencies --   1272.4037              1284.0892              1315.0157
 Red. masses --      1.8807                 1.5729                 1.4893
 Frc consts  --      1.7940                 1.5281                 1.5174
 IR Inten    --     34.9075                20.8181                14.8974

                     46                     47                     48
                      A                      A                      A
 Frequencies --   1332.7979              1388.7738              1391.8246
 Red. masses --      1.1618                 1.3554                 1.3606
 Frc consts  --      1.2159                 1.5402                 1.5530
 IR Inten    --      3.1242                35.8187                 7.0199

                     49                     50                     51
                      A                      A                      A
 Frequencies --   1404.5916              1415.9117              1445.5875
 Red. masses --      1.4585                 1.7855                 2.9630
 Frc consts  --      1.6953                 2.1090                 3.6482
 IR Inten    --      6.1112                30.5361                48.3971

                     52                     53                     54
                      A                      A                      A
 Frequencies --   1450.2381              1464.3317              1509.5842
 Red. masses --      1.3307                 1.2387                 1.0812
 Frc consts  --      1.6489                 1.5650                 1.4517
 IR Inten    --      4.3108                 9.3014                 2.3195

                     55                     56                     57
                      A                      A                      A
 Frequencies --   1513.5052              1513.7481              1520.3210
 Red. masses --      1.0572                 1.0770                 1.0978
 Frc consts  --      1.4268                 1.4540                 1.4950
 IR Inten    --      8.7100                 0.6354                 8.7283

                     58                     59                     60
                      A                      A                      A
 Frequencies --   1524.8856              1538.2667              1541.6272
 Red. masses --      1.0744                 1.0560                 1.0768
 Frc consts  --      1.4720                 1.4722                 1.5079
 IR Inten    --      0.8601                 9.3013                17.6225

                     61                     62                     63
                      A                      A                      A
 Frequencies --   1550.4936              1666.4957              1825.0819
 Red. masses --      1.0571                 8.2686                12.0943
 Frc consts  --      1.4973                13.5298                23.7353
 IR Inten    --      2.3920                 7.9995               354.4387

                     64                     65                     66
                      A                      A                      A
 Frequencies --   3025.4457              3041.5261              3043.3925
 Red. masses --      1.0727                 1.0606                 1.0433
 Frc consts  --      5.7853                 5.7807                 5.6935
 IR Inten    --     16.0131                24.2160                26.9456

                     67                     68                     69
                      A                      A                      A
 Frequencies --   3045.7476              3058.9555              3073.1353
 Red. masses --      1.0635                 1.0340                 1.0984
 Frc consts  --      5.8127                 5.7004                 6.1119
 IR Inten    --     31.1314                53.5385                44.0212

                     70                     71                     72
                      A                      A                      A
 Frequencies --   3090.9618              3095.2502              3106.7693
 Red. masses --      1.0835                 1.0984                 1.1011
 Frc consts  --      6.0989                 6.2004                 6.2620
 IR Inten    --      3.5705                17.5275                46.6353

                     73                     74                     75
                      A                      A                      A
 Frequencies --   3118.5951              3119.7326              3136.5471
 Red. masses --      1.1061                 1.1014                 1.0885
 Frc consts  --      6.3384                 6.3158                 6.3096
 IR Inten    --     24.2036                36.0265                 5.9418

                     76                     77                     78
                      A                      A                      A
 Frequencies --   3172.1138              3447.9770              3734.0746
 Red. masses --      1.1016                 1.0758                 1.0683
 Frc consts  --      6.5310                 7.5358                 8.7765
 IR Inten    --      1.6062                 0.7509                45.6614

 - Thermochemistry -
 -------------------
 Temperature   298.150 Kelvin.  Pressure   1.00000 Atm.
 Atom     1 has atomic number  6 and mass  12.00000

 Molecular mass:   185.11643 amu.
 Principal axes and moments of inertia in atomic units:
                           1         2         3
     Eigenvalues --  1646.454213109.192554057.44573
           X            0.99984   0.01722  -0.00537
           Y           -0.01715   0.99976   0.01378
           Z            0.00561  -0.01368   0.99989
 This molecule is an asymmetric top.
 Rotational symmetry number  1.
 Warning -- assumption of classical behavior for rotation
           may cause significant error
 Rotational temperatures (Kelvin)      0.05261     0.02786     0.02135
 Rotational constants (GHZ):           1.09614     0.58045     0.44480
 Zero-point vibrational energy     627646.7 (Joules/Mol)
                                  150.01116 (Kcal/Mol)
 Warning -- explicit consideration of  20 degrees of freedom as
           vibrations may cause significant error
 Vibrational temperatures:     30.15    65.67   113.79   145.60   181.39
          (Kelvin)            182.59   213.47   227.03   281.85   351.48
                              401.67   409.79   436.67   474.93   511.46
                              519.83   543.00   659.02   781.75   874.32
                              894.09   946.96  1051.29  1093.06  1177.85
                             1211.61  1260.82  1294.56  1365.50  1372.52
                             1418.18  1443.89  1506.71  1563.26  1570.07
                             1613.05  1631.00  1674.21  1687.64  1710.86
                             1771.65  1829.54  1830.71  1847.52  1892.01
                             1917.60  1998.14  2002.53  2020.89  2037.18
                             2079.88  2086.57  2106.85  2171.96  2177.60
                             2177.95  2187.40  2193.97  2213.22  2218.06
                             2230.81  2397.72  2625.89  4352.94  4376.08
                             4378.76  4382.15  4401.15  4421.56  4447.20
                             4453.37  4469.95  4486.96  4488.60  4512.79
                             4563.96  4960.87  5372.50

 Zero-point correction=                           0.239058 (Hartree/Particle)
 Thermal correction to Energy=                    0.253407
 Thermal correction to Enthalpy=                  0.254351
 Thermal correction to Gibbs Free Energy=         0.196842
 Sum of electronic and zero-point Energies=           -628.308942
 Sum of electronic and thermal Energies=              -628.294593
 Sum of electronic and thermal Enthalpies=            -628.293649
 Sum of electronic and thermal Free Energies=         -628.351158

                     E (Thermal)             CV                S
                      KCal/Mol        Cal/Mol-Kelvin    Cal/Mol-Kelvin
 Total                  159.015             51.539            121.039
 Electronic               0.000              0.000              0.000
 Translational            0.889              2.981             41.554
 Rotational               0.889              2.981             31.408
 Vibrational            157.238             45.577             48.078
 Vibration     1          0.593              1.986              6.542
 Vibration     2          0.595              1.979              4.998
 Vibration     3          0.600              1.963              3.913
 Vibration     4          0.604              1.948              3.431
 Vibration     5          0.611              1.927              3.005
 Vibration     6          0.611              1.926              2.992
 Vibration     7          0.618              1.904              2.693
 Vibration     8          0.621              1.894              2.576
 Vibration     9          0.636              1.846              2.171
 Vibration    10          0.660              1.772              1.771
 Vibration    11          0.679              1.712              1.539
 Vibration    12          0.683              1.702              1.505
 Vibration    13          0.695              1.667              1.398
 Vibration    14          0.713              1.615              1.260
 Vibration    15          0.731              1.564              1.142
 Vibration    16          0.735              1.552              1.117
 Vibration    17          0.748              1.518              1.050
 Vibration    18          0.816              1.343              0.772
 Vibration    19          0.898              1.154              0.558
 Vibration    20          0.966              1.016              0.437

 Optimization completed.
    -- Stationary point found.
 Normal termination of Gaussian 16 at Wed Dec  9 22:37:51 2020.

 ----------------------------------------------------------------------
 # B3LYP/6-311++G(d,p) empiricaldispersion=gd3bj scf=xqc pop=npa geom=c
 heck
 ----------------------------------------------------------------------

 ---------------------------------------
 CID_118538171_JID_3137_Energie_neutraal
 ---------------------------------------
 Structure from the checkpoint file:  "JID_3137.chk"
 Charge =  0 Multiplicity = 1

 SCF Done:  E(RB3LYP) =  -628.738352656     A.U. after   15 cycles
 Normal termination of Gaussian 16 at Wed Dec  9 22:41:00 2020.

 ----------------------------------------------------------------------
 # B3LYP/6-311++G(d,p) empiricaldispersion=gd3bj scf=xqc pop=npa geom=c
 heck
 ----------------------------------------------------------------------

 -------------------------------------
 CID_118538171_JID_3137_Energie_kation
 -------------------------------------
 Structure from the checkpoint file:  "JID_3137.chk"
 Charge =  1 Multiplicity = 2

 SCF Done:  E(UB3LYP) =  -628.428073564     A.U. after   25 cycles
 Normal termination of Gaussian 16 at Wed Dec  9 22:49:04 2020.
 Gaussian 16:  ES64L-G16RevA.03 25-Dec-2016

 ----------------------------------------------------------------------
 # B3LYP/6-311++G(d,p) empiricaldispersion=gd3bj scf=xqc pop=npa geom=c
 heck
 ----------------------------------------------------------------------

 ------------------------------------
 CID_118538171_JID_3137_Energie_anion
 ------------------------------------
 Structure from the checkpoint file:  "JID_3137.chk"
 Charge = -1 Multiplicity = 2

                         Standard orientation:
 ---------------------------------------------------------------------
 Center     Atomic      Atomic             Coordinates (Angstroms)
 Number     Number       Type             X           Y           Z
 ---------------------------------------------------------------------
      1          6           0        3.281258    0.098368   -1.149368
      2          6           0        2.527919   -1.198092   -0.831896
      3          6           0        2.270587   -1.427086    0.664535
      4          6           0        1.399866   -0.343668    1.323894
      5          6           0        0.008046   -0.264016    0.763165
      6          7           0       -0.649946   -1.315983    0.409766
      7          7           0       -1.908384   -0.916718   -0.050524
      8          6           0       -2.102059    0.442301   -0.046036
      9          8           0       -3.091192    1.042926   -0.422267
     10          6           0       -0.784581    1.009690    0.530863
     11          7           0       -0.223308    1.989420   -0.405740
     12          8           0        0.956738    2.564705    0.198210
     13          6           0       -2.840152   -1.904633   -0.536744
     14          1           0        2.714974    0.990387   -0.859580
     15          1           0        3.494310    0.174281   -2.221752
     16          1           0        4.240927    0.133444   -0.618335
     17          1           0        1.569028   -1.212218   -1.366019
     18          1           0        3.100387   -2.051312   -1.217931
     19          1           0        1.788407   -2.400973    0.802157
     20          1           0        3.230206   -1.465739    1.196951
     21          1           0        1.326807   -0.544740    2.402880
     22          1           0        1.864305    0.640807    1.233473
     23          1           0       -0.995713    1.541287    1.464879
     24          1           0        0.148746    1.483975   -1.212330
     25          1           0        0.746600    3.512371    0.188905
     26          1           0       -2.411173   -2.458528   -1.378597
     27          1           0       -3.103981   -2.610891    0.257040
     28          1           0       -3.732047   -1.367422   -0.864277
 ---------------------------------------------------------------------

 SCF Done:  E(UB3LYP) =  -628.733861320     A.U. after   33 cycles
 SCF Done:  E(UB3LYP) =  -628.733861320     a.u. after    1 cycles

 The electronic state is 2-A.
 Alpha  occ. eigenvalues --  -19.03818 -18.96229 -14.24111 -14.23732 -14.19388
 Alpha  occ. eigenvalues --  -10.13482 -10.09440 -10.08534 -10.06108 -10.04949
 Alpha  occ. eigenvalues --  -10.04639 -10.04505 -10.04451  -0.94992  -0.92522
 Alpha  occ. eigenvalues --   -0.87596  -0.74171  -0.71417  -0.67757  -0.61924
 Alpha  occ. eigenvalues --   -0.60564  -0.56619  -0.52996  -0.47899  -0.45829
 Alpha  occ. eigenvalues --   -0.41472  -0.39460  -0.38679  -0.36551  -0.34950
 Alpha  occ. eigenvalues --   -0.34225  -0.33341  -0.32964  -0.31777  -0.29591
 Alpha  occ. eigenvalues --   -0.29143  -0.28685  -0.27391  -0.26275  -0.25644
 Alpha  occ. eigenvalues --   -0.25098  -0.22627  -0.21312  -0.21144  -0.20714
 Alpha  occ. eigenvalues --   -0.19225  -0.17963  -0.14202  -0.11472  -0.10002
 Alpha  occ. eigenvalues --    0.04872
 Alpha virt. eigenvalues --    0.07630   0.08044   0.08341   0.08725   0.10342
 Alpha virt. eigenvalues --    0.10489   0.11026   0.11317   0.12292   0.12567
 Alpha virt. eigenvalues --    0.13130   0.13583   0.14578   0.15449   0.15744

  Beta  occ. eigenvalues --  -19.03787 -18.96064 -14.24185 -14.23609 -14.19101
  Beta  occ. eigenvalues --  -10.13330 -10.09433 -10.08568 -10.05870 -10.04941
  Beta  occ. eigenvalues --  -10.04620 -10.04515 -10.04429  -0.94891  -0.92266
  Beta  occ. eigenvalues --   -0.87295  -0.73960  -0.71155  -0.67708  -0.61829
  Beta  occ. eigenvalues --   -0.60234  -0.56456  -0.52933  -0.47716  -0.45729
  Beta  occ. eigenvalues --   -0.41324  -0.39346  -0.38385  -0.36240  -0.34851
  Beta  occ. eigenvalues --   -0.34154  -0.33249  -0.32871  -0.31642  -0.29443
  Beta  occ. eigenvalues --   -0.28971  -0.28555  -0.27215  -0.26216  -0.25217
  Beta  occ. eigenvalues --   -0.24903  -0.21998  -0.21252  -0.21101  -0.20229
  Beta  occ. eigenvalues --   -0.19109  -0.17695  -0.14025  -0.11270  -0.09249
  Beta virt. eigenvalues --    0.07409   0.08104   0.08537   0.08987   0.09950
  Beta virt. eigenvalues --    0.10376   0.11036   0.11420   0.11457   0.12335
  Beta virt. eigenvalues --    0.12738   0.13158   0.13772   0.14598   0.15653

 Mulliken charges and spin densities:
               1          2
     1  C    0.205103  -0.880297
     2  C   -0.737824   0.626039
     3  C    0.475468  -0.758109
     4  C   -0.200252  -0.063776
     5  C    0.111999  -0.298985
     6  N   -0.258438   0.241284
     7  N    0.251884  -0.044387
     8  C    0.354955  -0.230029
     9  O   -0.431134   0.066465
    10  C   -0.723521   0.175601
    11  N    0.314136  -0.318405
    12  O   -0.282841   0.097629
    13  C   -0.194794  -0.058594
    14  H    0.149790   0.015395
    15  H   -0.122432   0.239699
    16  H   -0.090907   0.208733
    17  H    0.044885   0.088690
    18  H    0.041917   0.100314
    19  H    0.147622   0.000399
    20  H   -0.283015   0.425862
    21  H   -0.343357   0.542990
    22  H    0.326895  -0.155080
    23  H   -0.316324   0.544448
    24  H    0.100028   0.177620
    25  H    0.122101   0.151725
    26  H    0.126961   0.013231
    27  H    0.071065   0.069902
    28  H    0.140028   0.021636
 Sum of Mulliken charges =  -1.00000   1.00000

 Dipole moment (field-independent basis, Debye):
    X=             -0.2856    Y=             -1.9279    Z=             -1.4368  Tot=              2.4213
 Quadrupole moment (field-independent basis, Debye-Ang):
   XX=           -128.1988   YY=           -107.1417   ZZ=           -103.1581
   XY=             12.1210   XZ=             -2.2623   YZ=              5.1697

 Summary of Natural Population Analysis:

                                       Natural Population
                Natural  -----------------------------------------------
    Atom  No    Charge         Core      Valence    Rydberg      Total
 -----------------------------------------------------------------------
      C    1   -0.29146      0.99967     2.28720    0.00460     3.29146
      C    2   -0.19047      0.99964     2.18398    0.00686     3.19047
      C    3   -0.18531      0.99963     2.17585    0.00982     3.18531
      C    4   -0.21720      0.99959     2.20820    0.00942     3.21720
      C    5    0.15016      0.99961     1.83439    0.01584     2.84984
      N    6   -0.11610      0.99964     2.60503    0.01143     3.61610
      N    7   -0.17923      0.99964     2.66818    0.01142     3.67923
      C    8    0.35815      0.99963     1.61872    0.02351     2.64185
      O    9   -0.30488      0.99987     3.29913    0.00588     4.30488
      C   10   -0.07846      0.99952     2.06454    0.01440     3.07846
      N   11   -0.16327      0.99973     2.64822    0.01531     3.66327
      O   12   -0.30347      0.99990     3.29644    0.00713     4.30347
      C   13   -0.17383      0.99965     2.16715    0.00702     3.17383
      H   14    0.10599      0.00000     0.39256    0.00144     0.39401
      H   15    0.09366      0.00000     0.40526    0.00108     0.40634
      H   16    0.09165      0.00000     0.40714    0.00121     0.40835
      H   17    0.09849      0.00000     0.40007    0.00144     0.40151
      H   18    0.08937      0.00000     0.40954    0.00109     0.41063
      H   19    0.10132      0.00000     0.39733    0.00135     0.39868
      H   20    0.09104      0.00000     0.40786    0.00110     0.40896
      H   21    0.10891      0.00000     0.38882    0.00227     0.39109
      H   22    0.11101      0.00000     0.38695    0.00204     0.38899
      H   23    0.11826      0.00000     0.37878    0.00295     0.38174
      H   24    0.16505      0.00000     0.33172    0.00322     0.33495
      H   25    0.23109      0.00000     0.26553    0.00339     0.26891
      H   26    0.09107      0.00000     0.40729    0.00164     0.40893
      H   27    0.09125      0.00000     0.40706    0.00169     0.40875
      H   28    0.10720      0.00000     0.39161    0.00119     0.39280
 =======================================================================
   * Total *    0.00000     12.99571    36.83457    0.16972    50.00000

 Normal termination of Gaussian 16 at Wed Dec  9 23:01:40 2020.
