 Gaussian 16, Revision A.03,

 -----------------------------------------------------------
 # opt freq B3LYP/6-31G(d) empiricaldispersion=gd3bj scf=xqc
 -----------------------------------------------------------

 -------------------------------
 CID_113481916_JID_7338_neutraal
 -------------------------------
 Symbolic Z-matrix:
 Charge =  0 Multiplicity = 1

 SCF Done:  E(RB3LYP) =  -818.075432152     A.U. after   15 cycles
 SCF Done:  E(RB3LYP) =  -818.080697104     A.U. after   13 cycles
 SCF Done:  E(RB3LYP) =  -818.081635705     A.U. after   13 cycles
 SCF Done:  E(RB3LYP) =  -818.079002655     A.U. after   14 cycles
 SCF Done:  E(RB3LYP) =  -818.081036718     A.U. after   14 cycles
 SCF Done:  E(RB3LYP) =  -818.082066916     A.U. after   10 cycles
 SCF Done:  E(RB3LYP) =  -818.081996578     A.U. after   13 cycles
 SCF Done:  E(RB3LYP) =  -818.082526218     A.U. after   13 cycles
 SCF Done:  E(RB3LYP) =  -818.082613550     A.U. after   11 cycles
 SCF Done:  E(RB3LYP) =  -818.082661591     A.U. after   12 cycles
 SCF Done:  E(RB3LYP) =  -818.083227857     A.U. after   11 cycles
 SCF Done:  E(RB3LYP) =  -818.083232878     A.U. after    8 cycles
 SCF Done:  E(RB3LYP) =  -818.083237960     A.U. after   10 cycles
 SCF Done:  E(RB3LYP) =  -818.083243790     A.U. after   10 cycles
 SCF Done:  E(RB3LYP) =  -818.083245350     A.U. after   10 cycles
 SCF Done:  E(RB3LYP) =  -818.083245589     A.U. after    8 cycles
 Optimization completed.
    -- Stationary point found.
 Normal termination of Gaussian 16 at Fri Dec 11 12:19:07 2020.

 --------------------------------------------------------------------
 #N Geom=AllCheck Guess=TCheck SCRF=Check GenChk RB3LYP/6-31G(d) Freq
 --------------------------------------------------------------------

 Structure from the checkpoint file:  "JID_7338.chk"
 -------------------------------
 CID_113481916_JID_7338_neutraal
 -------------------------------
 Charge =  0 Multiplicity = 1

 SCF Done:  E(RB3LYP) =  -818.083245589     A.U. after    1 cycles

  Exact polarizability: 229.216  10.266 148.171   6.248  -3.755  84.747
 Approx polarizability: 337.307  17.953 272.416  10.121  -4.519 123.111

                      1                      2                      3
                      A                      A                      A
 Frequencies --     32.5977                48.1991                64.7179
 Red. masses --      4.3284                 4.7781                 8.1148
 Frc consts  --      0.0027                 0.0065                 0.0200
 IR Inten    --      1.8970                 0.6018                 0.0661

                      4                      5                      6
                      A                      A                      A
 Frequencies --     90.8622               101.1706               137.5969
 Red. masses --      3.0949                 5.1487                 5.1922
 Frc consts  --      0.0151                 0.0310                 0.0579
 IR Inten    --      2.6400                 0.4172                 2.9791

                      7                      8                      9
                      A                      A                      A
 Frequencies --    207.1324               215.3198               237.2057
 Red. masses --      4.7024                 3.5109                 4.0720
 Frc consts  --      0.1189                 0.0959                 0.1350
 IR Inten    --      1.9919                 1.0988                 2.3229

                     10                     11                     12
                      A                      A                      A
 Frequencies --    248.1850               268.3882               276.4958
 Red. masses --      3.7681                 1.0908                 1.2675
 Frc consts  --      0.1367                 0.0463                 0.0571
 IR Inten    --      1.7650                 0.9625                 4.3514

                     13                     14                     15
                      A                      A                      A
 Frequencies --    323.0772               327.5431               367.0624
 Red. masses --      2.4142                 3.3599                 2.4573
 Frc consts  --      0.1485                 0.2124                 0.1951
 IR Inten    --      1.9910                 7.8085                 0.2756

                     16                     17                     18
                      A                      A                      A
 Frequencies --    386.6205               412.8392               447.1628
 Red. masses --      3.6025                 4.6164                 3.0500
 Frc consts  --      0.3173                 0.4636                 0.3593
 IR Inten    --      4.1630                 4.5854                 0.2540

                     19                     20                     21
                      A                      A                      A
 Frequencies --    472.1160               509.9793               549.2417
 Red. masses --      3.4150                 3.7507                 4.9857
 Frc consts  --      0.4485                 0.5747                 0.8861
 IR Inten    --      7.7818                 1.8841                10.5833

                     22                     23                     24
                      A                      A                      A
 Frequencies --    564.7513               575.6039               616.0239
 Red. masses --      4.8434                 4.0092                 2.3933
 Frc consts  --      0.9101                 0.7826                 0.5351
 IR Inten    --      2.7847                 1.0508                17.4007

                     25                     26                     27
                      A                      A                      A
 Frequencies --    650.7462               664.2623               698.9183
 Red. masses --      2.1596                 4.7417                 2.6855
 Frc consts  --      0.5388                 1.2327                 0.7729
 IR Inten    --    164.8073                 4.1352                18.4690

                     28                     29                     30
                      A                      A                      A
 Frequencies --    724.8807               753.5876               790.2733
 Red. masses --      3.6873                 6.0385                 2.9561
 Frc consts  --      1.1416                 2.0204                 1.0877
 IR Inten    --     10.2072                35.1915                26.2543

                     31                     32                     33
                      A                      A                      A
 Frequencies --    812.0888               831.9195               845.7140
 Red. masses --      3.8640                 1.6980                 2.9106
 Frc consts  --      1.5014                 0.6924                 1.2265
 IR Inten    --    124.9384                25.1120                 4.8600

                     34                     35                     36
                      A                      A                      A
 Frequencies --    853.1858               881.2031               905.3531
 Red. masses --      1.7223                 1.8703                 1.4481
 Frc consts  --      0.7387                 0.8557                 0.6993
 IR Inten    --    113.1038                 5.6663                43.1193

                     37                     38                     39
                      A                      A                      A
 Frequencies --    944.7332               958.2416               964.8933
 Red. masses --      2.1201                 1.3115                 2.0070
 Frc consts  --      1.1149                 0.7095                 1.1009
 IR Inten    --      9.0045                 2.1466                 4.5216

                     40                     41                     42
                      A                      A                      A
 Frequencies --    969.6121               978.1511               996.4530
 Red. masses --      3.2088                 3.1809                 2.1881
 Frc consts  --      1.7774                 1.7931                 1.2800
 IR Inten    --     15.3884                24.5176                14.5309

                     43                     44                     45
                      A                      A                      A
 Frequencies --   1015.8281              1070.6813              1115.0663
 Red. masses --      1.8880                 1.5164                 2.0047
 Frc consts  --      1.1479                 1.0242                 1.4686
 IR Inten    --      9.8542                 4.0694                96.2475

                     46                     47                     48
                      A                      A                      A
 Frequencies --   1116.8271              1146.3869              1183.9091
 Red. masses --      4.9995                 1.4621                 2.1385
 Frc consts  --      3.6741                 1.1321                 1.7661
 IR Inten    --    104.7998                26.9967                 3.4165

                     49                     50                     51
                      A                      A                      A
 Frequencies --   1186.8138              1193.4773              1208.2473
 Red. masses --      1.6798                 1.6653                 2.2127
 Frc consts  --      1.3940                 1.3976                 1.9032
 IR Inten    --     11.7881                40.1571                 3.6664

                     52                     53                     54
                      A                      A                      A
 Frequencies --   1249.2775              1264.3261              1286.0882
 Red. masses --      2.0834                 1.4428                 1.8284
 Frc consts  --      1.9157                 1.3588                 1.7818
 IR Inten    --     31.8015                 3.6852                23.7769

                     55                     56                     57
                      A                      A                      A
 Frequencies --   1307.3666              1317.2705              1349.5405
 Red. masses --      1.4297                 1.7316                 2.2673
 Frc consts  --      1.4398                 1.7703                 2.4329
 IR Inten    --      8.4066               109.8404               244.6997

                     58                     59                     60
                      A                      A                      A
 Frequencies --   1353.0671              1383.6027              1388.2239
 Red. masses --      1.3522                 1.3220                 9.3552
 Frc consts  --      1.4586                 1.4911                10.6224
 IR Inten    --      5.3782                17.9153               600.2065

                     61                     62                     63
                      A                      A                      A
 Frequencies --   1416.2467              1424.2814              1442.6110
 Red. masses --      2.3562                 1.8493                 1.2603
 Frc consts  --      2.7844                 2.2103                 1.5454
 IR Inten    --      4.2903                 1.4914                11.5876

                     64                     65                     66
                      A                      A                      A
 Frequencies --   1487.9343              1504.4324              1521.9946
 Red. masses --      3.3677                 1.2586                 1.1277
 Frc consts  --      4.3930                 1.6783                 1.5391
 IR Inten    --      6.5762                15.1618                 0.8492

                     67                     68                     69
                      A                      A                      A
 Frequencies --   1528.7933              1530.7340              1533.1650
 Red. masses --      1.3349                 1.0600                 1.1447
 Frc consts  --      1.8382                 1.4634                 1.5853
 IR Inten    --     27.0253                 0.4410                14.2121

                     70                     71                     72
                      A                      A                      A
 Frequencies --   1546.8367              1567.7850              1610.1666
 Red. masses --      1.1141                 2.6660                 7.2869
 Frc consts  --      1.5706                 3.8608                11.1311
 IR Inten    --      4.0282               150.1850               167.2802

                     73                     74                     75
                      A                      A                      A
 Frequencies --   1651.6322              1663.3990              1693.9940
 Red. masses --      2.8570                 6.4616                 1.4416
 Frc consts  --      4.5919                10.5337                 2.4373
 IR Inten    --    129.3807                41.8533               100.7934

                     76                     77                     78
                      A                      A                      A
 Frequencies --   2997.3745              3032.2982              3055.8677
 Red. masses --      1.0719                 1.0664                 1.0371
 Frc consts  --      5.6739                 5.7769                 5.7060
 IR Inten    --     56.4853                55.1441                13.6079

                     79                     80                     81
                      A                      A                      A
 Frequencies --   3077.1214              3112.5374              3120.4535
 Red. masses --      1.0601                 1.1003                 1.1038
 Frc consts  --      5.9140                 6.2803                 6.3327
 IR Inten    --     20.9630                19.1597                 4.7942

                     82                     83                     84
                      A                      A                      A
 Frequencies --   3122.9418              3133.1457              3143.6622
 Red. masses --      1.1015                 1.0973                 1.1011
 Frc consts  --      6.3295                 6.3465                 6.4111
 IR Inten    --     33.7842                47.3571                30.7177

                     85                     86                     87
                      A                      A                      A
 Frequencies --   3234.9861              3242.4401              3258.3114
 Red. masses --      1.0908                 1.0877                 1.0936
 Frc consts  --      6.7259                 6.7375                 6.8409
 IR Inten    --      2.0059                 9.1360                 2.6150

                     88                     89                     90
                      A                      A                      A
 Frequencies --   3481.2298              3521.7747              3596.0145
 Red. masses --      1.0529                 1.0748                 1.0911
 Frc consts  --      7.5181                 7.8545                 8.3128
 IR Inten    --      2.4341                24.2411                10.1135

 - Thermochemistry -
 -------------------
 Temperature   298.150 Kelvin.  Pressure   1.00000 Atm.
 Atom     1 has atomic number  6 and mass  12.00000

 Molecular mass:   237.11134 amu.
 Principal axes and moments of inertia in atomic units:
                           1         2         3
     Eigenvalues --  1602.948518120.228058933.94895
           X            0.99999  -0.00166   0.00391
           Y            0.00177   0.99963  -0.02709
           Z           -0.00386   0.02710   0.99963
 This molecule is an asymmetric top.
 Rotational symmetry number  1.
 Warning -- assumption of classical behavior for rotation
           may cause significant error
 Rotational temperatures (Kelvin)      0.05403     0.01067     0.00969
 Rotational constants (GHZ):           1.12589     0.22225     0.20201
 Zero-point vibrational energy     694398.0 (Joules/Mol)
                                  165.96510 (Kcal/Mol)
 Warning -- explicit consideration of  24 degrees of freedom as
           vibrations may cause significant error
 Vibrational temperatures:     46.90    69.35    93.11   130.73   145.56
          (Kelvin)            197.97   298.02   309.80   341.29   357.08
                              386.15   397.82   464.84   471.26   528.12
                              556.26   593.98   643.37   679.27   733.75
                              790.24   812.55   828.17   886.32   936.28
                              955.73  1005.59  1042.94  1084.24  1137.03
                             1168.41  1196.95  1216.79  1227.54  1267.85
                             1302.60  1359.26  1378.70  1388.27  1395.06
                             1407.34  1433.67  1461.55  1540.47  1604.33
                             1606.87  1649.40  1703.38  1707.56  1717.15
                             1738.40  1797.43  1819.08  1850.39  1881.01
                             1895.26  1941.69  1946.76  1990.70  1997.34
                             2037.66  2049.22  2075.60  2140.81  2164.54
                             2189.81  2199.59  2202.38  2205.88  2225.55
                             2255.69  2316.67  2376.33  2393.26  2437.28
                             4312.55  4362.80  4396.71  4427.29  4478.25
                             4489.64  4493.22  4507.90  4523.03  4654.42
                             4665.15  4687.98  5008.71  5067.05  5173.86

 Zero-point correction=                           0.264482 (Hartree/Particle)
 Thermal correction to Energy=                    0.279784
 Thermal correction to Enthalpy=                  0.280728
 Thermal correction to Gibbs Free Energy=         0.221330
 Sum of electronic and zero-point Energies=           -817.818763
 Sum of electronic and thermal Energies=              -817.803462
 Sum of electronic and thermal Enthalpies=            -817.802517
 Sum of electronic and thermal Free Energies=         -817.861915

                     E (Thermal)             CV                S
                      KCal/Mol        Cal/Mol-Kelvin    Cal/Mol-Kelvin
 Total                  175.567             59.579            125.014
 Electronic               0.000              0.000              0.000
 Translational            0.889              2.981             42.292
 Rotational               0.889              2.981             33.119
 Vibrational            173.790             53.618             49.603
 Vibration     1          0.594              1.983              5.665
 Vibration     2          0.595              1.978              4.890
 Vibration     3          0.597              1.971              4.308
 Vibration     4          0.602              1.956              3.641
 Vibration     5          0.604              1.948              3.432
 Vibration     6          0.614              1.916              2.837
 Vibration     7          0.641              1.830              2.069
 Vibration     8          0.645              1.818              1.998
 Vibration     9          0.656              1.784              1.824
 Vibration    10          0.662              1.766              1.743
 Vibration    11          0.673              1.731              1.607
 Vibration    12          0.678              1.717              1.555
 Vibration    13          0.708              1.629              1.294
 Vibration    14          0.711              1.620              1.272
 Vibration    15          0.740              1.540              1.092
 Vibration    16          0.755              1.499              1.013
 Vibration    17          0.777              1.442              0.917
 Vibration    18          0.806              1.367              0.804
 Vibration    19          0.829              1.312              0.732
 Vibration    20          0.865              1.228              0.634
 Vibration    21          0.905              1.141              0.546
 Vibration    22          0.921              1.108              0.514
 Vibration    23          0.932              1.084              0.494
 Vibration    24          0.976              0.998              0.423

 Optimization completed.
    -- Stationary point found.
 Normal termination of Gaussian 16 at Fri Dec 11 12:31:50 2020.

 ----------------------------------------------------------------------
 # B3LYP/6-311++G(d,p) empiricaldispersion=gd3bj scf=xqc pop=npa geom=c
 heck
 ----------------------------------------------------------------------

 ---------------------------------------
 CID_113481916_JID_7338_Energie_neutraal
 ---------------------------------------
 Structure from the checkpoint file:  "JID_7338.chk"
 Charge =  0 Multiplicity = 1

 SCF Done:  E(RB3LYP) =  -818.322698594     A.U. after   15 cycles
 Normal termination of Gaussian 16 at Fri Dec 11 12:37:54 2020.

 ----------------------------------------------------------------------
 # B3LYP/6-311++G(d,p) empiricaldispersion=gd3bj scf=xqc pop=npa geom=c
 heck
 ----------------------------------------------------------------------

 -------------------------------------
 CID_113481916_JID_7338_Energie_kation
 -------------------------------------
 Structure from the checkpoint file:  "JID_7338.chk"
 Charge =  1 Multiplicity = 2

 SCF Done:  E(UB3LYP) =  -818.034085415     A.U. after   27 cycles
 Normal termination of Gaussian 16 at Fri Dec 11 12:53:12 2020.
 Gaussian 16:  ES64L-G16RevA.03 25-Dec-2016

 ----------------------------------------------------------------------
 # B3LYP/6-311++G(d,p) empiricaldispersion=gd3bj scf=xqc pop=npa geom=c
 heck
 ----------------------------------------------------------------------

 ------------------------------------
 CID_113481916_JID_7338_Energie_anion
 ------------------------------------
 Structure from the checkpoint file:  "JID_7338.chk"
 Charge = -1 Multiplicity = 2

                         Standard orientation:
 ---------------------------------------------------------------------
 Center     Atomic      Atomic             Coordinates (Angstroms)
 Number     Number       Type             X           Y           Z
 ---------------------------------------------------------------------
      1          6           0        2.300610   -0.720559    1.931853
      2          6           0        2.441191   -0.149802    0.512455
      3          6           0        3.761327    0.654806    0.359862
      4          6           0        4.287536    0.214410   -1.005710
      5          8           0        3.948684   -1.164927   -1.064494
      6          6           0        2.614259   -1.253379   -0.584970
      7          7           0        1.328886    0.746807    0.160211
      8          6           0        0.002052    0.361147    0.084303
      9          6           0       -0.953307    1.414345   -0.031773
     10          6           0       -2.304906    1.121807   -0.094745
     11          6           0       -2.726539   -0.211162   -0.061442
     12          6           0       -1.813453   -1.257418    0.007990
     13          6           0       -0.455616   -0.967470    0.079982
     14          7           0       -4.149416   -0.502613   -0.124212
     15          8           0       -4.932385    0.451417   -0.178489
     16          8           0       -4.499742   -1.686136   -0.120035
     17          7           0       -0.455399    2.737885   -0.023194
     18          1           0        2.346898    0.086089    2.672210
     19          1           0        3.116221   -1.421343    2.139650
     20          1           0        1.351310   -1.245412    2.068122
     21          1           0        3.601237    1.734725    0.441862
     22          1           0        4.465518    0.355480    1.141631
     23          1           0        5.370413    0.302187   -1.120702
     24          1           0        3.793920    0.774048   -1.817080
     25          1           0        2.470259   -2.267324   -0.201265
     26          1           0        1.901422   -1.074170   -1.401676
     27          1           0        1.412770    1.671162    0.574361
     28          1           0       -3.045744    1.907971   -0.180828
     29          1           0       -2.171326   -2.278649    0.018720
     30          1           0        0.247269   -1.786209    0.157406
     31          1           0       -1.196800    3.427576   -0.092436
     32          1           0        0.216766    2.896133   -0.772297
 ---------------------------------------------------------------------

 SCF Done:  E(UB3LYP) =  -818.347235849     A.U. after   31 cycles

 The electronic state is 2-A.
 Alpha  occ. eigenvalues --  -19.04530 -18.93104 -18.93053 -14.30617 -14.21351
 Alpha  occ. eigenvalues --  -14.21323 -10.13951 -10.13470 -10.12852 -10.09575
 Alpha  occ. eigenvalues --  -10.08178 -10.07760 -10.07753 -10.05156 -10.04371
 Alpha  occ. eigenvalues --  -10.03171 -10.03074  -1.00993  -0.96640  -0.84230
 Alpha  occ. eigenvalues --   -0.83796  -0.79885  -0.71982  -0.69787  -0.66665
 Alpha  occ. eigenvalues --   -0.62348  -0.60548  -0.60172  -0.53657  -0.53177
 Alpha  occ. eigenvalues --   -0.49406  -0.47580  -0.44447  -0.42630  -0.41281
 Alpha  occ. eigenvalues --   -0.41202  -0.38904  -0.37224  -0.36299  -0.35720
 Alpha  occ. eigenvalues --   -0.34126  -0.33947  -0.33609  -0.32797  -0.32083
 Alpha  occ. eigenvalues --   -0.31158  -0.30254  -0.29405  -0.28125  -0.27397
 Alpha  occ. eigenvalues --   -0.27018  -0.26305  -0.24961  -0.23876  -0.22139
 Alpha  occ. eigenvalues --   -0.19840  -0.18194  -0.18094  -0.12612  -0.11256
 Alpha  occ. eigenvalues --   -0.11074  -0.08918  -0.08096   0.03797
 Alpha virt. eigenvalues --    0.05442   0.07090   0.07435   0.08456   0.09281
 Alpha virt. eigenvalues --    0.10179   0.10451   0.10769   0.11414   0.12069
 Alpha virt. eigenvalues --    0.12657   0.13432   0.13681   0.14126   0.14547

  Beta  occ. eigenvalues --  -19.04530 -18.92631 -18.92552 -14.29936 -14.21355
  Beta  occ. eigenvalues --  -14.21278 -10.13943 -10.13471 -10.12848 -10.09573
  Beta  occ. eigenvalues --  -10.08272 -10.07747 -10.07492 -10.05114 -10.04453
  Beta  occ. eigenvalues --  -10.02993 -10.02936  -0.99888  -0.96639  -0.84094
  Beta  occ. eigenvalues --   -0.82868  -0.79882  -0.71801  -0.69648  -0.66642
  Beta  occ. eigenvalues --   -0.61954  -0.60430  -0.60008  -0.53348  -0.52796
  Beta  occ. eigenvalues --   -0.49170  -0.47481  -0.44151  -0.42574  -0.41233
  Beta  occ. eigenvalues --   -0.41152  -0.38782  -0.37128  -0.36135  -0.35356
  Beta  occ. eigenvalues --   -0.34113  -0.33682  -0.32733  -0.31795  -0.31123
  Beta  occ. eigenvalues --   -0.30502  -0.30132  -0.28995  -0.27951  -0.27302
  Beta  occ. eigenvalues --   -0.26856  -0.26205  -0.24648  -0.23809  -0.22031
  Beta  occ. eigenvalues --   -0.19654  -0.18186  -0.17374  -0.10968  -0.10674
  Beta  occ. eigenvalues --   -0.08877  -0.08431  -0.07244
  Beta virt. eigenvalues --    0.05423   0.07018   0.07346   0.08361   0.09208
  Beta virt. eigenvalues --    0.09976   0.10288   0.10615   0.10969   0.11515
  Beta virt. eigenvalues --    0.12152   0.12716   0.13342   0.13642   0.14074

 Mulliken charges and spin densities:
               1          2
     1  C   -0.445159  -0.005184
     2  C   -0.138152  -0.000725
     3  C   -0.290109  -0.000165
     4  C   -0.133796  -0.135930
     5  O   -0.121646   0.004683
     6  C   -0.384811   0.005830
     7  N    0.149223   0.021148
     8  C   -0.451305   0.130860
     9  C   -0.105912  -0.061778
    10  C    0.167721   0.190867
    11  C   -0.346191  -0.077124
    12  C   -0.561351   0.184978
    13  C    0.308123  -0.055992
    14  N   -0.267158   0.219043
    15  O   -0.204325   0.187062
    16  O   -0.195836   0.196306
    17  N   -0.479635   0.006426
    18  H    0.160127   0.000323
    19  H    0.137622  -0.000551
    20  H    0.148009   0.003439
    21  H    0.075203   0.049099
    22  H    0.132170   0.016707
    23  H    0.102436   0.081968
    24  H    0.099635   0.026214
    25  H    0.195477   0.002395
    26  H    0.182816   0.018474
    27  H    0.246250  -0.021076
    28  H    0.213047  -0.010777
    29  H    0.222210  -0.009107
    30  H    0.122201   0.008311
    31  H    0.258602   0.005112
    32  H    0.204517   0.019165
 Sum of Mulliken charges =  -1.00000   1.00000

 Dipole moment (field-independent basis, Debye):
    X=             15.2229    Y=              3.7059    Z=              1.1584  Tot=             15.7102
 Quadrupole moment (field-independent basis, Debye-Ang):
   XX=           -205.7849   YY=           -111.4923   ZZ=           -110.7537
   XY=             -6.6618   XZ=              2.3067   YZ=             -4.4266

 Summary of Natural Population Analysis:

                                       Natural Population
                Natural  -----------------------------------------------
    Atom  No    Charge         Core      Valence    Rydberg      Total
 -----------------------------------------------------------------------
      C    1   -0.29192      0.99962     2.28697    0.00533     3.29192
      C    2    0.05152      0.99959     1.93518    0.01371     2.94848
      C    3   -0.19943      0.99960     2.19167    0.00816     3.19943
      C    4   -0.01211      0.99961     2.00061    0.01190     3.01211
      O    5   -0.30071      0.99990     3.29170    0.00911     4.30071
      C    6   -0.01471      0.99955     2.00303    0.01213     3.01471
      N    7   -0.32688      0.99965     2.81435    0.01288     3.82688
      C    8    0.11492      0.99947     1.87362    0.01198     2.88508
      C    9    0.03445      0.99947     1.95382    0.01226     2.96555
      C   10   -0.07547      0.99949     2.06740    0.00858     3.07547
      C   11    0.03586      0.99941     1.94871    0.01602     2.96414
      C   12   -0.06815      0.99954     2.05942    0.00920     3.06815
      C   13   -0.15841      0.99955     2.15182    0.00705     3.15841
      N   14    0.31163      0.99971     2.16301    0.02566     3.18837
      O   15   -0.20366      0.99990     3.19612    0.00764     4.20366
      O   16   -0.19646      0.99990     3.18903    0.00753     4.19646
      N   17   -0.42208      0.99973     2.91201    0.01034     3.92208
      H   18    0.09797      0.00000     0.40120    0.00083     0.40203
      H   19    0.09576      0.00000     0.40337    0.00086     0.40424
      H   20    0.11012      0.00000     0.38902    0.00086     0.38988
      H   21    0.10273      0.00000     0.39622    0.00104     0.39727
      H   22    0.09798      0.00000     0.40082    0.00120     0.40202
      H   23    0.08825      0.00000     0.41025    0.00149     0.41175
      H   24    0.08036      0.00000     0.41783    0.00181     0.41964
      H   25    0.09053      0.00000     0.40857    0.00090     0.40947
      H   26    0.09356      0.00000     0.40511    0.00133     0.40644
      H   27    0.18902      0.00000     0.30886    0.00212     0.31098
      H   28    0.11102      0.00000     0.38781    0.00117     0.38898
      H   29    0.11264      0.00000     0.38625    0.00111     0.38736
      H   30    0.09258      0.00000     0.40596    0.00146     0.40742
      H   31    0.18222      0.00000     0.31648    0.00130     0.31778
      H   32    0.17686      0.00000     0.32096    0.00218     0.32314
 =======================================================================
   * Total *    0.00000     16.99367    45.79720    0.20914    63.00000

 Normal termination of Gaussian 16 at Fri Dec 11 13:11:18 2020.
