 Gaussian 16, Revision A.03,

 -----------------------------------------------------------
 # opt freq B3LYP/6-31G(d) empiricaldispersion=gd3bj scf=xqc
 -----------------------------------------------------------

 ------------------------------
 CID_88799210_JID_6957_neutraal
 ------------------------------
 Symbolic Z-matrix:
 Charge =  0 Multiplicity = 1

 SCF Done:  E(RB3LYP) =  -1424.97765897     A.U. after   16 cycles
 SCF Done:  E(RB3LYP) =  -1424.99252844     A.U. after   15 cycles
 SCF Done:  E(RB3LYP) =  -1424.99488418     A.U. after   16 cycles
 SCF Done:  E(RB3LYP) =  -1424.99660473     A.U. after   14 cycles
 SCF Done:  E(RB3LYP) =  -1424.99807875     A.U. after   14 cycles
 SCF Done:  E(RB3LYP) =  -1424.99848822     A.U. after   14 cycles
 SCF Done:  E(RB3LYP) =  -1424.99852187     A.U. after   13 cycles
 SCF Done:  E(RB3LYP) =  -1424.99861721     A.U. after   12 cycles
 SCF Done:  E(RB3LYP) =  -1424.99862310     A.U. after   10 cycles
 SCF Done:  E(RB3LYP) =  -1424.99862668     A.U. after    9 cycles
 SCF Done:  E(RB3LYP) =  -1424.99862724     A.U. after    9 cycles
 SCF Done:  E(RB3LYP) =  -1424.99862752     A.U. after    8 cycles
 SCF Done:  E(RB3LYP) =  -1424.99862761     A.U. after    8 cycles
 Optimization completed.
    -- Stationary point found.
 Normal termination of Gaussian 16 at Fri Dec 11 01:13:46 2020.

 --------------------------------------------------------------------
 #N Geom=AllCheck Guess=TCheck SCRF=Check GenChk RB3LYP/6-31G(d) Freq
 --------------------------------------------------------------------

 Structure from the checkpoint file:  "JID_6957.chk"
 ------------------------------
 CID_88799210_JID_6957_neutraal
 ------------------------------
 Charge =  0 Multiplicity = 1

 SCF Done:  E(RB3LYP) =  -1424.99862761     A.U. after    1 cycles

  Exact polarizability: 226.463 -11.240 145.511  13.172  -7.474 106.357
 Approx polarizability: 312.043 -29.053 298.875  29.165 -16.624 215.546

                      1                      2                      3
                      A                      A                      A
 Frequencies --     33.6243                39.7294                56.5415
 Red. masses --      8.4369                 5.1112                 7.8886
 Frc consts  --      0.0056                 0.0048                 0.0149
 IR Inten    --      1.5620                 0.2006                 2.6157

                      4                      5                      6
                      A                      A                      A
 Frequencies --     63.0183               110.4622               127.3120
 Red. masses --      7.5559                 6.8501                11.5487
 Frc consts  --      0.0177                 0.0492                 0.1103
 IR Inten    --      0.9323                 0.9285                 7.1020

                      7                      8                      9
                      A                      A                      A
 Frequencies --    173.2975               235.4454               238.2304
 Red. masses --      6.4375                12.1904                10.7449
 Frc consts  --      0.1139                 0.3982                 0.3593
 IR Inten    --      0.2111                 2.3637                 2.2022

                     10                     11                     12
                      A                      A                      A
 Frequencies --    285.1913               289.5437               328.1623
 Red. masses --      4.2352                 9.8220                 6.6439
 Frc consts  --      0.2030                 0.4852                 0.4216
 IR Inten    --      0.0266                 0.6159                 0.4718

                     13                     14                     15
                      A                      A                      A
 Frequencies --    369.7951               414.6515               457.1974
 Red. masses --     13.7905                 2.9893                 5.8182
 Frc consts  --      1.1111                 0.3028                 0.7166
 IR Inten    --     22.7634                 1.2415                 2.7850

                     16                     17                     18
                      A                      A                      A
 Frequencies --    480.7670               544.8835               574.3949
 Red. masses --     10.5181                14.1961                 4.2562
 Frc consts  --      1.4324                 2.4833                 0.8274
 IR Inten    --      1.8198                15.6070                 1.5454

                     19                     20                     21
                      A                      A                      A
 Frequencies --    590.4396               620.1797               632.4746
 Red. masses --      5.3706                 2.3599                 6.3394
 Frc consts  --      1.1031                 0.5348                 1.4941
 IR Inten    --      5.2676                 0.2549                 3.8347

                     22                     23                     24
                      A                      A                      A
 Frequencies --    656.1174               677.5489               695.1151
 Red. masses --      7.6468                 8.5723                 8.5450
 Frc consts  --      1.9395                 2.3186                 2.4326
 IR Inten    --     13.9220                 8.3765                30.2128

                     25                     26                     27
                      A                      A                      A
 Frequencies --    702.8970               759.1924               779.5056
 Red. masses --      1.8874                 7.6663                 1.8404
 Frc consts  --      0.5494                 2.6034                 0.6589
 IR Inten    --     23.8670                 0.3934                38.0925

                     28                     29                     30
                      A                      A                      A
 Frequencies --    838.1990               858.4954               870.6894
 Red. masses --      2.0191                 1.2511                 6.5734
 Frc consts  --      0.8358                 0.5433                 2.9361
 IR Inten    --     46.9626                 6.6214                72.9149

                     31                     32                     33
                      A                      A                      A
 Frequencies --    945.2084               974.9405               978.7903
 Red. masses --      1.3983                 1.2903                 1.3579
 Frc consts  --      0.7361                 0.7226                 0.7665
 IR Inten    --      1.7551                 0.1043                 2.7432

                     34                     35                     36
                      A                      A                      A
 Frequencies --   1006.0465              1014.6623              1017.5104
 Red. masses --      1.2882                 5.6466                 5.0330
 Frc consts  --      0.7682                 3.4252                 3.0701
 IR Inten    --      0.1583                 0.1174                19.9347

                     37                     38                     39
                      A                      A                      A
 Frequencies --   1018.8279              1055.6314              1076.3513
 Red. masses --      5.8999                 3.4876                 2.7215
 Frc consts  --      3.6082                 2.2898                 1.8577
 IR Inten    --      3.8600                28.1709                61.6883

                     40                     41                     42
                      A                      A                      A
 Frequencies --   1102.5719              1129.0560              1132.3097
 Red. masses --      1.2634                 4.7152                 1.7753
 Frc consts  --      0.9049                 3.5414                 1.3411
 IR Inten    --     22.0421                51.9795                 9.4535

                     43                     44                     45
                      A                      A                      A
 Frequencies --   1197.9224              1221.2106              1286.4144
 Red. masses --      1.0951                 1.1409                 5.7570
 Frc consts  --      0.9259                 1.0025                 5.6132
 IR Inten    --      0.1612                15.9935                 8.7673

                     46                     47                     48
                      A                      A                      A
 Frequencies --   1309.0750              1343.2261              1346.3127
 Red. masses --      7.3710                 1.7649                 2.7253
 Frc consts  --      7.4423                 1.8762                 2.9104
 IR Inten    --    512.0877                 4.1156                14.3647

                     49                     50                     51
                      A                      A                      A
 Frequencies --   1372.4385              1492.4985              1536.0913
 Red. masses --      1.9773                 2.2634                 2.1208
 Frc consts  --      2.1944                 2.9706                 2.9484
 IR Inten    --      4.3473                16.9765                 0.0984

                     52                     53                     54
                      A                      A                      A
 Frequencies --   1631.5262              1655.4358              1661.3130
 Red. masses --      5.0931                 5.4429                 6.7047
 Frc consts  --      7.9877                 8.7883                10.9027
 IR Inten    --      0.5143                17.3119                 2.9411

                     55                     56                     57
                      A                      A                      A
 Frequencies --   1836.0963              1879.9040              3192.7084
 Red. masses --     12.6914                12.5395                 1.0857
 Frc consts  --     25.2087                26.1097                 6.5208
 IR Inten    --    486.4203                16.0643                 0.0187

                     58                     59                     60
                      A                      A                      A
 Frequencies --   3202.9165              3211.4917              3219.8602
 Red. masses --      1.0890                 1.0925                 1.0960
 Frc consts  --      6.5820                 6.6386                 6.6947
 IR Inten    --      9.2423                20.5081                11.2907

                     61                     62                     63
                      A                      A                      A
 Frequencies --   3229.5052              3256.9339              3276.5516
 Red. masses --      1.0939                 1.0891                 1.1075
 Frc consts  --      6.7217                 6.8067                 7.0051
 IR Inten    --      5.4208                 0.0512                 0.2780

 - Thermochemistry -
 -------------------
 Temperature   298.150 Kelvin.  Pressure   1.00000 Atm.
 Atom     1 has atomic number  6 and mass  12.00000

 Molecular mass:   248.99182 amu.
 Principal axes and moments of inertia in atomic units:
                           1         2         3
     Eigenvalues --  1705.868167118.569137470.45435
           X            0.99998  -0.00301   0.00473
           Y            0.00314   0.99963  -0.02704
           Z           -0.00465   0.02705   0.99962
 This molecule is an asymmetric top.
 Rotational symmetry number  1.
 Warning -- assumption of classical behavior for rotation
           may cause significant error
 Rotational temperatures (Kelvin)      0.05077     0.01217     0.01159
 Rotational constants (GHZ):           1.05796     0.25353     0.24158
 Zero-point vibrational energy     414592.4 (Joules/Mol)
                                   99.08997 (Kcal/Mol)
 Warning -- explicit consideration of  20 degrees of freedom as
           vibrations may cause significant error
 Vibrational temperatures:     48.38    57.16    81.35    90.67   158.93
          (Kelvin)            183.17   249.34   338.75   342.76   410.33
                              416.59   472.15   532.05   596.59   657.81
                              691.72   783.97   826.43   849.51   892.30
                              909.99   944.01   974.84  1000.12  1011.31
                             1092.31  1121.53  1205.98  1235.18  1252.73
                             1359.94  1402.72  1408.26  1447.48  1459.87
                             1463.97  1465.87  1518.82  1548.63  1586.36
                             1624.46  1629.14  1723.54  1757.05  1850.86
                             1883.47  1932.60  1937.04  1974.63  2147.37
                             2210.09  2347.40  2381.80  2390.26  2641.73
                             2704.76  4593.60  4608.28  4620.62  4632.66
                             4646.54  4686.00  4714.23

 Zero-point correction=                           0.157910 (Hartree/Particle)
 Thermal correction to Energy=                    0.171665
 Thermal correction to Enthalpy=                  0.172609
 Thermal correction to Gibbs Free Energy=         0.115125
 Sum of electronic and zero-point Energies=          -1424.840718
 Sum of electronic and thermal Energies=             -1424.826962
 Sum of electronic and thermal Enthalpies=           -1424.826018
 Sum of electronic and thermal Free Energies=        -1424.883503

                     E (Thermal)             CV                S
                      KCal/Mol        Cal/Mol-Kelvin    Cal/Mol-Kelvin
 Total                  107.722             51.084            120.987
 Electronic               0.000              0.000              0.000
 Translational            0.889              2.981             42.437
 Rotational               0.889              2.981             32.872
 Vibrational            105.944             45.122             45.677
 Vibration     1          0.594              1.983              5.603
 Vibration     2          0.594              1.981              5.273
 Vibration     3          0.596              1.975              4.574
 Vibration     4          0.597              1.972              4.360
 Vibration     5          0.606              1.941              3.261
 Vibration     6          0.611              1.926              2.986
 Vibration     7          0.627              1.875              2.399
 Vibration     8          0.655              1.787              1.837
 Vibration     9          0.656              1.782              1.816
 Vibration    10          0.683              1.701              1.502
 Vibration    11          0.686              1.693              1.477
 Vibration    12          0.711              1.619              1.269
 Vibration    13          0.742              1.534              1.081
 Vibration    14          0.778              1.438              0.910
 Vibration    15          0.815              1.345              0.774
 Vibration    16          0.837              1.293              0.708
 Vibration    17          0.900              1.151              0.555
 Vibration    18          0.931              1.087              0.496
 Vibration    19          0.948              1.052              0.466
 Vibration    20          0.980              0.989              0.416

 Optimization completed.
    -- Stationary point found.
 Normal termination of Gaussian 16 at Fri Dec 11 01:19:56 2020.

 ----------------------------------------------------------------------
 # B3LYP/6-311++G(d,p) empiricaldispersion=gd3bj scf=xqc pop=npa geom=c
 heck
 ----------------------------------------------------------------------

 --------------------------------------
 CID_88799210_JID_6957_Energie_neutraal
 --------------------------------------
 Structure from the checkpoint file:  "JID_6957.chk"
 Charge =  0 Multiplicity = 1

 SCF Done:  E(RB3LYP) =  -1425.22232716     A.U. after   18 cycles
 Normal termination of Gaussian 16 at Fri Dec 11 01:22:42 2020.

 ----------------------------------------------------------------------
 # B3LYP/6-311++G(d,p) empiricaldispersion=gd3bj scf=xqc pop=npa geom=c
 heck
 ----------------------------------------------------------------------

 ------------------------------------
 CID_88799210_JID_6957_Energie_kation
 ------------------------------------
 Structure from the checkpoint file:  "JID_6957.chk"
 Charge =  1 Multiplicity = 2

 SCF Done:  E(UB3LYP) =  -1424.91388782     A.U. after   30 cycles
 Normal termination of Gaussian 16 at Fri Dec 11 01:29:02 2020.
 Gaussian 16:  ES64L-G16RevA.03 25-Dec-2016

 ----------------------------------------------------------------------
 # B3LYP/6-311++G(d,p) empiricaldispersion=gd3bj scf=xqc pop=npa geom=c
 heck
 ----------------------------------------------------------------------

 -----------------------------------
 CID_88799210_JID_6957_Energie_anion
 -----------------------------------
 Structure from the checkpoint file:  "JID_6957.chk"
 Charge = -1 Multiplicity = 2

                         Standard orientation:
 ---------------------------------------------------------------------
 Center     Atomic      Atomic             Coordinates (Angstroms)
 Number     Number       Type             X           Y           Z
 ---------------------------------------------------------------------
      1          6           0       -4.796062    0.232679   -0.170126
      2          6           0       -4.263206   -1.015412    0.165384
      3          6           0       -2.889973   -1.175046    0.305646
      4          6           0       -2.023259   -0.086931    0.098742
      5          6           0       -2.568452    1.166370   -0.237463
      6          6           0       -3.946725    1.321928   -0.365003
      7          6           0       -0.565737   -0.278239    0.234130
      8         16           0        0.161247   -1.294537    1.296155
      9         16           0        0.331862    0.714979   -0.955198
     10          7           0        1.934615    0.430738   -0.499218
     11          6           0        2.699952   -0.688603   -0.929741
     12          8           0        2.383764   -1.476167   -1.786066
     13          6           0        3.953469   -0.643429   -0.114054
     14          6           0        3.888948    0.376686    0.747874
     15          6           0        2.586069    1.091596    0.577810
     16          8           0        2.152758    2.031848    1.196673
     17          1           0       -5.870266    0.355295   -0.273658
     18          1           0       -4.921350   -1.865735    0.316847
     19          1           0       -2.465710   -2.138800    0.564011
     20          1           0       -1.918418    2.027437   -0.353520
     21          1           0       -4.356210    2.297881   -0.607372
     22          1           0        4.744325   -1.368152   -0.257587
     23          1           0        4.613265    0.694779    1.486436
 ---------------------------------------------------------------------

 SCF Done:  E(UB3LYP) =  -1425.27859509     A.U. after   27 cycles

 The electronic state is 2-A.
 Alpha  occ. eigenvalues --  -88.76540 -88.67980 -18.97657 -18.97547 -14.23582
 Alpha  occ. eigenvalues --  -10.15043 -10.14843 -10.11162 -10.08300 -10.07910
 Alpha  occ. eigenvalues --  -10.07824 -10.07725 -10.07412 -10.07087 -10.06055
 Alpha  occ. eigenvalues --  -10.05935  -7.84896  -7.76743  -5.81434  -5.80820
 Alpha  occ. eigenvalues --   -5.80255  -5.73034  -5.72794  -5.72218  -0.93547
 Alpha  occ. eigenvalues --   -0.91907  -0.82732  -0.76382  -0.71566  -0.68042
 Alpha  occ. eigenvalues --   -0.65084  -0.62552  -0.58510  -0.53777  -0.52059
 Alpha  occ. eigenvalues --   -0.50679  -0.46402  -0.46021  -0.42232  -0.38967
 Alpha  occ. eigenvalues --   -0.36320  -0.35611  -0.34807  -0.34143  -0.32700
 Alpha  occ. eigenvalues --   -0.32393  -0.31422  -0.30678  -0.29711  -0.28819
 Alpha  occ. eigenvalues --   -0.27531  -0.26678  -0.25564  -0.25194  -0.22961
 Alpha  occ. eigenvalues --   -0.21467  -0.17353  -0.16417  -0.16110  -0.15363
 Alpha  occ. eigenvalues --   -0.14536  -0.13469  -0.11802  -0.09111  -0.00066
 Alpha virt. eigenvalues --    0.02732   0.06970   0.08096   0.08767   0.09066
 Alpha virt. eigenvalues --    0.09960   0.10344   0.11111   0.12180   0.12383
 Alpha virt. eigenvalues --    0.12981   0.13770   0.14689   0.15313   0.15418

  Beta  occ. eigenvalues --  -88.76529 -88.67927 -18.97395 -18.97265 -14.23633
  Beta  occ. eigenvalues --  -10.14962 -10.14738 -10.10791 -10.08319 -10.07943
  Beta  occ. eigenvalues --  -10.07855 -10.07614 -10.07330 -10.07004 -10.05903
  Beta  occ. eigenvalues --  -10.05753  -7.84886  -7.76695  -5.81431  -5.80824
  Beta  occ. eigenvalues --   -5.80207  -5.73015  -5.72614  -5.72189  -0.93167
  Beta  occ. eigenvalues --   -0.91443  -0.82550  -0.76214  -0.71182  -0.67675
  Beta  occ. eigenvalues --   -0.64980  -0.62301  -0.58301  -0.53103  -0.51793
  Beta  occ. eigenvalues --   -0.50596  -0.46147  -0.45817  -0.42125  -0.38679
  Beta  occ. eigenvalues --   -0.36090  -0.35440  -0.34661  -0.33698  -0.32665
  Beta  occ. eigenvalues --   -0.32119  -0.31151  -0.30400  -0.29328  -0.28535
  Beta  occ. eigenvalues --   -0.27185  -0.25415  -0.25351  -0.25047  -0.22593
  Beta  occ. eigenvalues --   -0.20419  -0.16143  -0.15847  -0.15703  -0.14979
  Beta  occ. eigenvalues --   -0.14119  -0.13126  -0.11145  -0.08958
  Beta virt. eigenvalues --    0.04634   0.05425   0.06960   0.08242   0.08746
  Beta virt. eigenvalues --    0.09056   0.09972   0.11044   0.11390   0.12191
  Beta virt. eigenvalues --    0.12407   0.13048   0.13794   0.14731   0.15329

 Mulliken charges and spin densities:
               1          2
     1  C   -0.414657   0.083998
     2  C   -0.296682  -0.025315
     3  C   -0.627528   0.050737
     4  C    1.415253   0.015055
     5  C   -0.942005   0.050032
     6  C   -0.142716  -0.022215
     7  C    0.206864   0.168808
     8  S   -0.659692   0.139079
     9  S    0.383661   0.028091
    10  N    0.035151  -0.024219
    11  C   -0.027830   0.043373
    12  O   -0.316796   0.084465
    13  C   -0.098232   0.152538
    14  C   -0.121469   0.128411
    15  C   -0.046976   0.060920
    16  O   -0.333609   0.093502
    17  H    0.123553  -0.007029
    18  H    0.142479   0.001861
    19  H    0.115506  -0.003772
    20  H    0.144949  -0.002617
    21  H    0.143398   0.001694
    22  H    0.159558  -0.009630
    23  H    0.157821  -0.007767
 Sum of Mulliken charges =  -1.00000   1.00000

 Dipole moment (field-independent basis, Debye):
    X=             -3.5684    Y=              0.7974    Z=             -0.6777  Tot=              3.7186
 Quadrupole moment (field-independent basis, Debye-Ang):
   XX=           -128.7639   YY=           -123.4991   ZZ=           -126.8247
   XY=             -1.3658   XZ=              3.8264   YZ=             -7.7366

 Summary of Natural Population Analysis:

                                       Natural Population
                Natural  -----------------------------------------------
    Atom  No    Charge         Core      Valence    Rydberg      Total
 -----------------------------------------------------------------------
      C    1   -0.08155      0.99958     2.07265    0.00932     3.08155
      C    2   -0.11668      0.99957     2.10804    0.00908     3.11668
      C    3   -0.06129      0.99952     2.05324    0.00852     3.06129
      C    4   -0.06175      0.99945     2.05035    0.01195     3.06175
      C    5   -0.07578      0.99953     2.06827    0.00798     3.07578
      C    6   -0.11598      0.99957     2.10705    0.00936     3.11598
      C    7   -0.09141      0.99957     2.07610    0.01574     3.09141
      S    8    0.00205      4.99942     2.98349    0.01505     7.99795
      S    9    0.26103      4.99939     2.71529    0.02428     7.73897
      N   10   -0.36328      0.99961     2.85027    0.01340     3.86328
      C   11    0.35036      0.99966     1.62651    0.02347     2.64964
      O   12   -0.25961      0.99987     3.25320    0.00654     4.25961
      C   13   -0.08497      0.99950     2.07690    0.00856     3.08497
      C   14   -0.09333      0.99950     2.08529    0.00854     3.09333
      C   15    0.35215      0.99966     1.62488    0.02331     2.64785
      O   16   -0.25844      0.99987     3.25209    0.00648     4.25844
      H   17    0.09297      0.00000     0.40605    0.00098     0.40703
      H   18    0.09600      0.00000     0.40303    0.00098     0.40400
      H   19    0.10940      0.00000     0.38930    0.00129     0.39060
      H   20    0.10720      0.00000     0.39170    0.00110     0.39280
      H   21    0.09628      0.00000     0.40273    0.00099     0.40372
      H   22    0.09810      0.00000     0.40083    0.00107     0.40190
      H   23    0.09852      0.00000     0.40041    0.00106     0.40148
 =======================================================================
   * Total *    0.00000     23.99328    39.79766    0.20907    64.00000

 Normal termination of Gaussian 16 at Fri Dec 11 01:34:49 2020.
