 Gaussian 16, Revision A.03,

 -----------------------------------------------------------
 # opt freq B3LYP/6-31G(d) empiricaldispersion=gd3bj scf=xqc
 -----------------------------------------------------------

 ------------------------------
 CID_17944986_JID_3383_neutraal
 ------------------------------
 Symbolic Z-matrix:
 Charge =  0 Multiplicity = 1

 SCF Done:  E(RB3LYP) =  -595.319024219     A.U. after   15 cycles
 SCF Done:  E(RB3LYP) =  -595.325623059     A.U. after   13 cycles
 SCF Done:  E(RB3LYP) =  -595.327540862     A.U. after   13 cycles
 SCF Done:  E(RB3LYP) =  -595.328788876     A.U. after   13 cycles
 SCF Done:  E(RB3LYP) =  -595.329632055     A.U. after   12 cycles
 SCF Done:  E(RB3LYP) =  -595.330102969     A.U. after   11 cycles
 SCF Done:  E(RB3LYP) =  -595.330309178     A.U. after   11 cycles
 SCF Done:  E(RB3LYP) =  -595.330384078     A.U. after   11 cycles
 SCF Done:  E(RB3LYP) =  -595.330416349     A.U. after   10 cycles
 SCF Done:  E(RB3LYP) =  -595.330421586     A.U. after    9 cycles
 SCF Done:  E(RB3LYP) =  -595.330493772     A.U. after   11 cycles
 SCF Done:  E(RB3LYP) =  -595.330497617     A.U. after   11 cycles
 SCF Done:  E(RB3LYP) =  -595.330494567     A.U. after   11 cycles
 SCF Done:  E(RB3LYP) =  -595.330500225     A.U. after   10 cycles
 SCF Done:  E(RB3LYP) =  -595.330500151     A.U. after    9 cycles
 SCF Done:  E(RB3LYP) =  -595.330500318     A.U. after    8 cycles
 Optimization completed.
    -- Stationary point found.
 Normal termination of Gaussian 16 at Wed Dec  9 23:10:54 2020.

 --------------------------------------------------------------------
 #N Geom=AllCheck Guess=TCheck SCRF=Check GenChk RB3LYP/6-31G(d) Freq
 --------------------------------------------------------------------

 Structure from the checkpoint file:  "JID_3383.chk"
 ------------------------------
 CID_17944986_JID_3383_neutraal
 ------------------------------
 Charge =  0 Multiplicity = 1

 SCF Done:  E(RB3LYP) =  -595.330500318     A.U. after    1 cycles

  Exact polarizability: 169.374   2.150 125.992  12.189  -6.649  78.390
 Approx polarizability: 230.849   8.930 203.902  22.944 -11.828 112.323

                      1                      2                      3
                      A                      A                      A
 Frequencies --     28.9199                44.8564                57.0356
 Red. masses --      3.2840                 3.4240                 2.9333
 Frc consts  --      0.0016                 0.0041                 0.0056
 IR Inten    --      0.6251                 0.4049                 1.0414

                      4                      5                      6
                      A                      A                      A
 Frequencies --     93.8417               104.5055               130.6092
 Red. masses --      3.5920                 2.3897                 2.2334
 Frc consts  --      0.0186                 0.0154                 0.0224
 IR Inten    --      1.4652                 0.6168                 4.6022

                      7                      8                      9
                      A                      A                      A
 Frequencies --    146.9491               206.4560               225.2741
 Red. masses --      2.8027                 2.4199                 1.4355
 Frc consts  --      0.0357                 0.0608                 0.0429
 IR Inten    --      0.5838                 0.4441                 2.0252

                     10                     11                     12
                      A                      A                      A
 Frequencies --    251.9513               283.9687               335.3048
 Red. masses --      1.3765                 3.4935                 3.8050
 Frc consts  --      0.0515                 0.1660                 0.2520
 IR Inten    --      0.7025                 2.8803                 2.0155

                     13                     14                     15
                      A                      A                      A
 Frequencies --    350.7860               376.8516               401.0636
 Red. masses --      2.9674                 3.7045                 3.7064
 Frc consts  --      0.2151                 0.3100                 0.3513
 IR Inten    --      1.7437                14.9460                 8.6660

                     16                     17                     18
                      A                      A                      A
 Frequencies --    462.1699               504.0985               541.9894
 Red. masses --      3.3441                 3.8276                 3.2707
 Frc consts  --      0.4209                 0.5731                 0.5661
 IR Inten    --      3.5319                 1.3529                 7.7399

                     19                     20                     21
                      A                      A                      A
 Frequencies --    568.1302               680.4870               726.9390
 Red. masses --      2.9895                 5.8495                 1.2771
 Frc consts  --      0.5685                 1.5959                 0.3976
 IR Inten    --     16.3756                 3.8994                40.5379

                     22                     23                     24
                      A                      A                      A
 Frequencies --    746.2949               778.6393               792.9612
 Red. masses --      5.0013                 2.5702                 1.8459
 Frc consts  --      1.6412                 0.9181                 0.6838
 IR Inten    --      5.7894                 3.2309                 5.2221

                     25                     26                     27
                      A                      A                      A
 Frequencies --    856.4562               880.1119               931.1426
 Red. masses --      3.2688                 2.8538                 1.3244
 Frc consts  --      1.4127                 1.3024                 0.6765
 IR Inten    --      7.6174                 6.6423                 0.7882

                     28                     29                     30
                      A                      A                      A
 Frequencies --    939.0236               966.9205               971.0290
 Red. masses --      1.4072                 3.3295                 2.7569
 Frc consts  --      0.7311                 1.8341                 1.5316
 IR Inten    --      1.2311                 4.7518                12.1582

                     31                     32                     33
                      A                      A                      A
 Frequencies --    980.9927              1049.0993              1053.7928
 Red. masses --      1.5017                 1.7387                 2.0930
 Frc consts  --      0.8515                 1.1275                 1.3694
 IR Inten    --      4.3314                24.2700               142.8960

                     34                     35                     36
                      A                      A                      A
 Frequencies --   1075.6306              1110.5215              1116.4769
 Red. masses --      2.1739                 2.8079                 1.4388
 Frc consts  --      1.4819                 2.0403                 1.0567
 IR Inten    --     21.1836               176.6220                13.6573

                     37                     38                     39
                      A                      A                      A
 Frequencies --   1135.2084              1163.8339              1195.5563
 Red. masses --      2.4526                 1.3115                 1.3425
 Frc consts  --      1.8622                 1.0466                 1.1306
 IR Inten    --    105.0672                19.4577                66.1570

                     40                     41                     42
                      A                      A                      A
 Frequencies --   1202.1519              1231.5282              1273.9406
 Red. masses --      1.9309                 2.3029                 1.6410
 Frc consts  --      1.6441                 2.0578                 1.5691
 IR Inten    --     11.4041               149.6390               311.9452

                     43                     44                     45
                      A                      A                      A
 Frequencies --   1288.4571              1308.7922              1323.0476
 Red. masses --      2.0698                 1.1943                 1.1804
 Frc consts  --      2.0245                 1.2053                 1.2174
 IR Inten    --    145.0264                 1.4967                 9.5651

                     46                     47                     48
                      A                      A                      A
 Frequencies --   1342.9303              1384.6528              1402.7473
 Red. masses --      1.5721                 2.1180                 1.4060
 Frc consts  --      1.6705                 2.3925                 1.6300
 IR Inten    --     77.5249                78.8893                 6.7685

                     49                     50                     51
                      A                      A                      A
 Frequencies --   1428.3720              1439.5973              1448.8971
 Red. masses --      1.3834                 1.8419                 1.2741
 Frc consts  --      1.6630                 2.2490                 1.5759
 IR Inten    --     14.4385                16.7539                 7.2061

                     52                     53                     54
                      A                      A                      A
 Frequencies --   1481.0449              1502.8668              1508.9223
 Red. masses --      1.2381                 1.0741                 1.0766
 Frc consts  --      1.6001                 1.4294                 1.4443
 IR Inten    --     46.6002                11.8056                 3.4247

                     55                     56                     57
                      A                      A                      A
 Frequencies --   1514.9591              1516.3810              1528.9066
 Red. masses --      1.8464                 1.0797                 1.0749
 Frc consts  --      2.4967                 1.4628                 1.4804
 IR Inten    --     15.6403                 4.3116                29.7446

                     58                     59                     60
                      A                      A                      A
 Frequencies --   1538.9639              1544.0292              1564.9815
 Red. masses --      1.0510                 1.1208                 1.3439
 Frc consts  --      1.4665                 1.5743                 1.9392
 IR Inten    --      6.4994                32.1495                49.4201

                     61                     62                     63
                      A                      A                      A
 Frequencies --   1609.3219              1709.3939              1778.7943
 Red. masses --      3.3643                 5.4570                11.2412
 Frc consts  --      5.1336                 9.3948                20.9562
 IR Inten    --    440.8186               101.4873               254.2463

                     64                     65                     66
                      A                      A                      A
 Frequencies --   2904.8097              3003.0038              3036.9598
 Red. masses --      1.0770                 1.0502                 1.0604
 Frc consts  --      5.3543                 5.5799                 5.7626
 IR Inten    --     97.4582                93.2790                31.1725

                     67                     68                     69
                      A                      A                      A
 Frequencies --   3057.8182              3058.3425              3070.1511
 Red. masses --      1.0356                 1.0840                 1.0986
 Frc consts  --      5.7052                 5.9739                 6.1012
 IR Inten    --     21.9597                34.6178                14.4797

                     70                     71                     72
                      A                      A                      A
 Frequencies --   3071.1894              3083.7979              3123.1534
 Red. masses --      1.0893                 1.0647                 1.1022
 Frc consts  --      6.0538                 5.9656                 6.3340
 IR Inten    --     30.5493                66.0483                48.5129

                     73                     74                     75
                      A                      A                      A
 Frequencies --   3133.1349              3142.9090              3144.4307
 Red. masses --      1.1032                 1.0997                 1.1056
 Frc consts  --      6.3805                 6.4002                 6.4405
 IR Inten    --     22.4315                14.1289                17.1071

                     76                     77                     78
                      A                      A                      A
 Frequencies --   3198.8466              3211.4685              3244.7128
 Red. masses --      1.0896                 1.0900                 1.0948
 Frc consts  --      6.5689                 6.6233                 6.7912
 IR Inten    --      9.0826                 3.4028                11.2363

 - Thermochemistry -
 -------------------
 Temperature   298.150 Kelvin.  Pressure   1.00000 Atm.
 Atom     1 has atomic number  6 and mass  12.00000

 Molecular mass:   181.11028 amu.
 Principal axes and moments of inertia in atomic units:
                           1         2         3
     Eigenvalues --  1224.704634180.997064823.82178
           X            0.99997   0.00148  -0.00718
           Y           -0.00155   0.99996  -0.00929
           Z            0.00717   0.00930   0.99993
 This molecule is an asymmetric top.
 Rotational symmetry number  1.
 Warning -- assumption of classical behavior for rotation
           may cause significant error
 Rotational temperatures (Kelvin)      0.07072     0.02072     0.01796
 Rotational constants (GHZ):           1.47361     0.43165     0.37413
 Zero-point vibrational energy     631773.5 (Joules/Mol)
                                  150.99750 (Kcal/Mol)
 Warning -- explicit consideration of  19 degrees of freedom as
           vibrations may cause significant error
 Vibrational temperatures:     41.61    64.54    82.06   135.02   150.36
          (Kelvin)            187.92   211.43   297.04   324.12   362.50
                              408.57   482.43   504.70   542.21   577.04
                              664.96   725.29   779.80   817.41   979.07
                             1045.90  1073.75  1120.29  1140.89  1232.25
                             1266.28  1339.71  1351.05  1391.18  1397.09
                             1411.43  1509.42  1516.17  1547.59  1597.79
                             1606.36  1633.31  1674.50  1720.14  1729.63
                             1771.89  1832.92  1853.80  1883.06  1903.57
                             1932.18  1992.21  2018.24  2055.11  2071.26
                             2084.64  2130.89  2162.29  2171.00  2179.69
                             2181.73  2199.76  2214.23  2221.51  2251.66
                             2315.46  2459.44  2559.29  4179.37  4320.65
                             4369.51  4399.52  4400.27  4417.26  4418.76
                             4436.90  4493.52  4507.88  4521.95  4524.13
                             4602.43  4620.59  4668.42

 Zero-point correction=                           0.240630 (Hartree/Particle)
 Thermal correction to Energy=                    0.254215
 Thermal correction to Enthalpy=                  0.255159
 Thermal correction to Gibbs Free Energy=         0.198942
 Sum of electronic and zero-point Energies=           -595.089870
 Sum of electronic and thermal Energies=              -595.076286
 Sum of electronic and thermal Enthalpies=            -595.075342
 Sum of electronic and thermal Free Energies=         -595.131559

                     E (Thermal)             CV                S
                      KCal/Mol        Cal/Mol-Kelvin    Cal/Mol-Kelvin
 Total                  159.522             49.205            118.318
 Electronic               0.000              0.000              0.000
 Translational            0.889              2.981             41.488
 Rotational               0.889              2.981             31.580
 Vibrational            157.745             43.244             45.250
 Vibration     1          0.593              1.984              5.902
 Vibration     2          0.595              1.979              5.032
 Vibration     3          0.596              1.975              4.557
 Vibration     4          0.603              1.954              3.578
 Vibration     5          0.605              1.946              3.368
 Vibration     6          0.612              1.923              2.937
 Vibration     7          0.617              1.906              2.711
 Vibration     8          0.641              1.831              2.075
 Vibration     9          0.650              1.803              1.916
 Vibration    10          0.664              1.759              1.717
 Vibration    11          0.682              1.703              1.510
 Vibration    12          0.716              1.605              1.234
 Vibration    13          0.728              1.574              1.163
 Vibration    14          0.747              1.519              1.052
 Vibration    15          0.767              1.468              0.959
 Vibration    16          0.820              1.334              0.760
 Vibration    17          0.859              1.241              0.648
 Vibration    18          0.897              1.157              0.561
 Vibration    19          0.924              1.100              0.508

 Optimization completed.
    -- Stationary point found.
 Normal termination of Gaussian 16 at Wed Dec  9 23:17:27 2020.

 ----------------------------------------------------------------------
 # B3LYP/6-311++G(d,p) empiricaldispersion=gd3bj scf=xqc pop=npa geom=c
 heck
 ----------------------------------------------------------------------

 --------------------------------------
 CID_17944986_JID_3383_Energie_neutraal
 --------------------------------------
 Structure from the checkpoint file:  "JID_3383.chk"
 Charge =  0 Multiplicity = 1

 SCF Done:  E(RB3LYP) =  -595.498585262     A.U. after   16 cycles
 Normal termination of Gaussian 16 at Wed Dec  9 23:20:49 2020.

 ----------------------------------------------------------------------
 # B3LYP/6-311++G(d,p) empiricaldispersion=gd3bj scf=xqc pop=npa geom=c
 heck
 ----------------------------------------------------------------------

 ------------------------------------
 CID_17944986_JID_3383_Energie_kation
 ------------------------------------
 Structure from the checkpoint file:  "JID_3383.chk"
 Charge =  1 Multiplicity = 2

 SCF Done:  E(UB3LYP) =  -595.239423784     A.U. after   22 cycles
 Normal termination of Gaussian 16 at Wed Dec  9 23:27:06 2020.
 Gaussian 16:  ES64L-G16RevA.03 25-Dec-2016

 ----------------------------------------------------------------------
 # B3LYP/6-311++G(d,p) empiricaldispersion=gd3bj scf=xqc pop=npa geom=c
 heck
 ----------------------------------------------------------------------

 -----------------------------------
 CID_17944986_JID_3383_Energie_anion
 -----------------------------------
 Structure from the checkpoint file:  "JID_3383.chk"
 Charge = -1 Multiplicity = 2

                         Standard orientation:
 ---------------------------------------------------------------------
 Center     Atomic      Atomic             Coordinates (Angstroms)
 Number     Number       Type             X           Y           Z
 ---------------------------------------------------------------------
      1          6           0        3.333509   -0.294469   -1.574010
      2          6           0        3.572552   -1.037509   -0.257296
      3          6           0        2.891021   -0.387897    0.942495
      4          8           0        1.459951   -0.388469    0.776741
      5          6           0        0.873588    0.791790    0.406851
      6          8           0        1.494593    1.831720    0.261212
      7          6           0       -0.568252    0.619735    0.228430
      8          6           0       -1.333993    1.695661   -0.094363
      9          6           0       -2.739667    1.572805   -0.321931
     10          6           0       -3.270940    0.315507   -0.362187
     11          7           0       -2.539093   -0.805976   -0.137552
     12          6           0       -1.202002   -0.733568    0.471500
     13          6           0       -3.148872   -2.116388   -0.112363
     14          1           0        2.272250   -0.305471   -1.842604
     15          1           0        3.890737   -0.762949   -2.392562
     16          1           0        3.641658    0.753304   -1.499136
     17          1           0        3.226753   -2.075821   -0.344489
     18          1           0        4.648418   -1.081987   -0.038680
     19          1           0        3.079813   -0.959747    1.856059
     20          1           0        3.226663    0.642340    1.080482
     21          1           0       -0.839360    2.655426   -0.210954
     22          1           0       -3.355200    2.431976   -0.554202
     23          1           0       -4.308892    0.140414   -0.631360
     24          1           0       -1.279226   -0.960309    1.554129
     25          1           0       -0.588163   -1.534401    0.042952
     26          1           0       -3.258679   -2.486766    0.919409
     27          1           0       -4.135485   -2.081370   -0.580640
     28          1           0       -2.525664   -2.832812   -0.661924
 ---------------------------------------------------------------------

 SCF Done:  E(UB3LYP) =  -595.498003028     A.U. after   32 cycles

 The electronic state is 2-A.
 Alpha  occ. eigenvalues --  -19.01627 -18.93974 -14.20359 -10.12745 -10.10243
 Alpha  occ. eigenvalues --  -10.08556 -10.07084 -10.06623 -10.05960 -10.05351
 Alpha  occ. eigenvalues --  -10.01422 -10.01208 -10.01052  -0.94978  -0.85867
 Alpha  occ. eigenvalues --   -0.82558  -0.68142  -0.66688  -0.63022  -0.58550
 Alpha  occ. eigenvalues --   -0.58032  -0.52024  -0.49966  -0.46951  -0.42833
 Alpha  occ. eigenvalues --   -0.39467  -0.37245  -0.36390  -0.34876  -0.34488
 Alpha  occ. eigenvalues --   -0.33052  -0.32527  -0.31419  -0.29644  -0.29244
 Alpha  occ. eigenvalues --   -0.28556  -0.27321  -0.27139  -0.24832  -0.24798
 Alpha  occ. eigenvalues --   -0.24320  -0.22358  -0.21435  -0.20227  -0.19997
 Alpha  occ. eigenvalues --   -0.16130  -0.13985  -0.12565  -0.04522   0.04809
 Alpha virt. eigenvalues --    0.07119   0.07293   0.08963   0.09310   0.10004
 Alpha virt. eigenvalues --    0.10330   0.10990   0.11305   0.12457   0.12946
 Alpha virt. eigenvalues --    0.13515   0.13833   0.14497   0.15355   0.16189

  Beta  occ. eigenvalues --  -19.01568 -18.93814 -14.20221 -10.12572 -10.10245
  Beta  occ. eigenvalues --  -10.08535 -10.07079 -10.06609 -10.05607 -10.05347
  Beta  occ. eigenvalues --  -10.01327 -10.01112 -10.00976  -0.94786  -0.85606
  Beta  occ. eigenvalues --   -0.82246  -0.68045  -0.66408  -0.62682  -0.58471
  Beta  occ. eigenvalues --   -0.57797  -0.51801  -0.49825  -0.46573  -0.42685
  Beta  occ. eigenvalues --   -0.39346  -0.36975  -0.36240  -0.34621  -0.34279
  Beta  occ. eigenvalues --   -0.32959  -0.32358  -0.31252  -0.29500  -0.28970
  Beta  occ. eigenvalues --   -0.28454  -0.27203  -0.27004  -0.24767  -0.24685
  Beta  occ. eigenvalues --   -0.23963  -0.22207  -0.21319  -0.20086  -0.18964
  Beta  occ. eigenvalues --   -0.15535  -0.12766  -0.12304  -0.03787
  Beta virt. eigenvalues --    0.07054   0.07678   0.08917   0.09357   0.09978
  Beta virt. eigenvalues --    0.10117   0.10422   0.11347   0.11362   0.12502
  Beta virt. eigenvalues --    0.12935   0.13468   0.13713   0.14441   0.15350

 Mulliken charges and spin densities:
               1          2
     1  C   -0.371903  -0.070706
     2  C    0.018691  -0.163635
     3  C   -0.104266  -0.086913
     4  O    0.018972   0.015566
     5  C   -0.977610   0.115510
     6  O   -0.339039   0.059876
     7  C    0.867008   0.121403
     8  C   -0.139125   0.258578
     9  C   -0.109579  -0.323668
    10  C   -0.298613   0.393174
    11  N    0.078960   0.133405
    12  C   -0.636187  -0.185789
    13  C    0.388858  -0.672408
    14  H    0.124953   0.027247
    15  H    0.063724   0.052119
    16  H    0.133744   0.010159
    17  H    0.066500   0.066033
    18  H   -0.066410   0.172249
    19  H    0.003291   0.131331
    20  H    0.201326  -0.024762
    21  H    0.168117  -0.020917
    22  H    0.111263   0.013309
    23  H   -0.101476   0.177844
    24  H    0.066266   0.075365
    25  H    0.300033  -0.107229
    26  H   -0.270636   0.402277
    27  H   -0.124660   0.234350
    28  H   -0.072202   0.196234
 Sum of Mulliken charges =  -1.00000   1.00000

 Dipole moment (field-independent basis, Debye):
    X=              3.2208    Y=             -1.7863    Z=             -1.3488  Tot=              3.9222
 Quadrupole moment (field-independent basis, Debye-Ang):
   XX=           -129.0584   YY=           -107.5339   ZZ=            -95.2209
   XY=             -6.6648   XZ=              4.9741   YZ=              2.3713

 Summary of Natural Population Analysis:

                                       Natural Population
                Natural  -----------------------------------------------
    Atom  No    Charge         Core      Valence    Rydberg      Total
 -----------------------------------------------------------------------
      C    1   -0.28921      0.99967     2.28464    0.00490     3.28921
      C    2   -0.19915      0.99964     2.19226    0.00725     3.19915
      C    3   -0.01648      0.99956     2.00574    0.01118     3.01648
      O    4   -0.29314      0.99987     3.28461    0.00866     4.29314
      C    5    0.40956      0.99959     1.56577    0.02508     2.59044
      O    6   -0.32472      0.99987     3.31985    0.00500     4.32472
      C    7   -0.10467      0.99944     2.09295    0.01227     3.10467
      C    8   -0.00014      0.99951     1.99205    0.00858     3.00014
      C    9   -0.21298      0.99957     2.20206    0.01135     3.21298
      C   10    0.11033      0.99955     1.87757    0.01255     2.88967
      N   11   -0.21905      0.99967     2.70901    0.01037     3.71905
      C   12   -0.07889      0.99960     2.06764    0.01165     3.07889
      C   13   -0.16917      0.99965     2.16149    0.00803     3.16917
      H   14    0.10503      0.00000     0.39389    0.00109     0.39497
      H   15    0.09074      0.00000     0.40832    0.00094     0.40926
      H   16    0.10194      0.00000     0.39686    0.00121     0.39806
      H   17    0.09293      0.00000     0.40534    0.00173     0.40707
      H   18    0.09057      0.00000     0.40762    0.00181     0.40943
      H   19    0.08388      0.00000     0.41488    0.00124     0.41612
      H   20    0.09780      0.00000     0.40048    0.00172     0.40220
      H   21    0.10105      0.00000     0.39800    0.00094     0.39895
      H   22    0.09706      0.00000     0.40210    0.00085     0.40294
      H   23    0.08376      0.00000     0.41510    0.00114     0.41624
      H   24    0.07756      0.00000     0.42063    0.00181     0.42244
      H   25    0.09364      0.00000     0.40429    0.00207     0.40636
      H   26    0.08808      0.00000     0.40831    0.00361     0.41192
      H   27    0.09502      0.00000     0.40410    0.00089     0.40498
      H   28    0.08867      0.00000     0.40996    0.00136     0.41133
 =======================================================================
   * Total *    0.00000     12.99519    35.84552    0.15929    49.00000

 Normal termination of Gaussian 16 at Wed Dec  9 23:36:39 2020.
