 Gaussian 16, Revision A.03,

 -----------------------------------------------------------
 # opt freq B3LYP/6-31G(d) empiricaldispersion=gd3bj scf=xqc
 -----------------------------------------------------------

 -----------------------------
 CID_9670975_JID_7984_neutraal
 -----------------------------
 Symbolic Z-matrix:
 Charge =  0 Multiplicity = 1

 SCF Done:  E(RB3LYP) =  -762.536400513     A.U. after   15 cycles
 SCF Done:  E(RB3LYP) =  -762.547180684     A.U. after   13 cycles
 SCF Done:  E(RB3LYP) =  -762.549086732     A.U. after   12 cycles
 SCF Done:  E(RB3LYP) =  -762.549509619     A.U. after   12 cycles
 SCF Done:  E(RB3LYP) =  -762.549713471     A.U. after   11 cycles
 SCF Done:  E(RB3LYP) =  -762.549737062     A.U. after   12 cycles
 SCF Done:  E(RB3LYP) =  -762.549800293     A.U. after   11 cycles
 SCF Done:  E(RB3LYP) =  -762.549806172     A.U. after    9 cycles
 SCF Done:  E(RB3LYP) =  -762.549808183     A.U. after    9 cycles
 SCF Done:  E(RB3LYP) =  -762.549808625     A.U. after    8 cycles
 SCF Done:  E(RB3LYP) =  -762.549808651     A.U. after    8 cycles
 SCF Done:  E(RB3LYP) =  -762.549808682     A.U. after    8 cycles
 SCF Done:  E(RB3LYP) =  -762.549808684     A.U. after    7 cycles
 Optimization completed.
    -- Stationary point found.
 Normal termination of Gaussian 16 at Fri Dec 11 13:27:51 2020.

 --------------------------------------------------------------------
 #N Geom=AllCheck Guess=TCheck SCRF=Check GenChk RB3LYP/6-31G(d) Freq
 --------------------------------------------------------------------

 Structure from the checkpoint file:  "JID_7984.chk"
 -----------------------------
 CID_9670975_JID_7984_neutraal
 -----------------------------
 Charge =  0 Multiplicity = 1

 SCF Done:  E(RB3LYP) =  -762.549808684     A.U. after    1 cycles

  Exact polarizability: 210.724  -4.134 135.955  20.357   7.794  98.934
 Approx polarizability: 298.612  -8.408 256.430  40.570  24.584 156.018

                      1                      2                      3
                      A                      A                      A
 Frequencies --     39.3076                46.6130                59.4906
 Red. masses --      6.0330                 5.2822                 2.6139
 Frc consts  --      0.0055                 0.0068                 0.0055
 IR Inten    --      2.9738                 0.2207                 1.3977

                      4                      5                      6
                      A                      A                      A
 Frequencies --     85.3960               126.2794               133.2999
 Red. masses --      5.5991                 5.2137                 6.5869
 Frc consts  --      0.0241                 0.0490                 0.0690
 IR Inten    --      2.1406                 0.5170                 5.2618

                      7                      8                      9
                      A                      A                      A
 Frequencies --    178.1205               206.3257               241.0244
 Red. masses --      4.9850                 3.5451                 6.5211
 Frc consts  --      0.0932                 0.0889                 0.2232
 IR Inten    --      0.6333                 4.6614                 0.4276

                     10                     11                     12
                      A                      A                      A
 Frequencies --    261.6728               270.9558               325.9260
 Red. masses --      3.2977                 5.3881                 3.3452
 Frc consts  --      0.1330                 0.2331                 0.2094
 IR Inten    --      6.8702                 2.8541                 9.2051

                     13                     14                     15
                      A                      A                      A
 Frequencies --    350.2589               384.2601               422.5857
 Red. masses --      8.3239                 4.5927                 3.2948
 Frc consts  --      0.6017                 0.3995                 0.3467
 IR Inten    --      6.5647                 1.6144                 1.1633

                     16                     17                     18
                      A                      A                      A
 Frequencies --    442.4134               447.7826               522.0670
 Red. masses --      1.9586                 2.1095                 4.3138
 Frc consts  --      0.2259                 0.2492                 0.6927
 IR Inten    --     15.1106                12.4555                20.6595

                     19                     20                     21
                      A                      A                      A
 Frequencies --    537.9771               555.9713               616.7214
 Red. masses --      7.4440                 8.2099                 5.2716
 Frc consts  --      1.2694                 1.4952                 1.1813
 IR Inten    --      0.9718                 5.4883                 4.0162

                     22                     23                     24
                      A                      A                      A
 Frequencies --    619.5594               653.1487               690.1550
 Red. masses --      3.7183                 4.9873                 4.0399
 Frc consts  --      0.8409                 1.2535                 1.1337
 IR Inten    --      0.4809                22.1992                34.6380

                     25                     26                     27
                      A                      A                      A
 Frequencies --    730.8707               768.0311               771.0332
 Red. masses --      5.1207                 2.0231                 1.4237
 Frc consts  --      1.6116                 0.7031                 0.4987
 IR Inten    --      1.7215               209.7119               142.7052

                     28                     29                     30
                      A                      A                      A
 Frequencies --    773.6047               790.1159               820.9174
 Red. masses --      4.1912                 1.4743                 1.4341
 Frc consts  --      1.4778                 0.5423                 0.5694
 IR Inten    --      7.0239                47.6691                 8.8029

                     31                     32                     33
                      A                      A                      A
 Frequencies --    850.8095               859.7994               873.3577
 Red. masses --      1.4380                 4.4024                 4.2371
 Frc consts  --      0.6133                 1.9175                 1.9042
 IR Inten    --     22.6129                 2.0543                 0.6434

                     34                     35                     36
                      A                      A                      A
 Frequencies --    910.7188               915.3043               968.6869
 Red. masses --      1.4239                 3.4431                 3.1268
 Frc consts  --      0.6958                 1.6996                 1.7287
 IR Inten    --      0.3698                 6.0525                 8.6302

                     37                     38                     39
                      A                      A                      A
 Frequencies --    978.7999               985.3733              1011.4721
 Red. masses --      1.3939                 5.1190                 1.3117
 Frc consts  --      0.7868                 2.9284                 0.7907
 IR Inten    --      1.9242                 0.9923                 0.0207

                     40                     41                     42
                      A                      A                      A
 Frequencies --   1039.4099              1064.1898              1071.7679
 Red. masses --      2.5254                 1.6164                 1.5967
 Frc consts  --      1.6075                 1.0786                 1.0806
 IR Inten    --      6.1359                 2.8583                20.1060

                     43                     44                     45
                      A                      A                      A
 Frequencies --   1097.6282              1112.9359              1117.3564
 Red. masses --      1.3710                 2.3594                 1.6166
 Frc consts  --      0.9732                 1.7219                 1.1892
 IR Inten    --      3.1654                 0.0927                 7.4709

                     46                     47                     48
                      A                      A                      A
 Frequencies --   1139.7782              1147.6864              1190.6177
 Red. masses --      2.7536                 1.0949                 1.1605
 Frc consts  --      2.1076                 0.8497                 0.9692
 IR Inten    --     39.3095                 1.4125                15.5251

                     49                     50                     51
                      A                      A                      A
 Frequencies --   1200.9771              1212.5562              1215.3365
 Red. masses --      1.6382                 1.7660                 1.3918
 Frc consts  --      1.3922                 1.5299                 1.2112
 IR Inten    --      0.3928                 8.4781                 0.1961

                     52                     53                     54
                      A                      A                      A
 Frequencies --   1232.5337              1243.4781              1286.7843
 Red. masses --      2.3045                 2.3154                 1.9431
 Frc consts  --      2.0626                 2.1094                 1.8957
 IR Inten    --      0.3787                36.4694                92.7381

                     55                     56                     57
                      A                      A                      A
 Frequencies --   1304.9469              1313.8794              1375.5775
 Red. masses --      2.1898                 1.6743                 2.1618
 Frc consts  --      2.1970                 1.7029                 2.4101
 IR Inten    --    152.2562                 1.7663                24.5808

                     58                     59                     60
                      A                      A                      A
 Frequencies --   1394.2838              1413.5761              1495.9101
 Red. masses --      6.4358                 2.0189                 1.0890
 Frc consts  --      7.3715                 2.3769                 1.4358
 IR Inten    --     23.2453                 2.7193                 1.8958

                     61                     62                     63
                      A                      A                      A
 Frequencies --   1508.7423              1510.8318              1534.0416
 Red. masses --      2.5020                 2.4830                 1.3125
 Frc consts  --      3.3555                 3.3393                 1.8198
 IR Inten    --      0.0570                 0.4389                 5.2783

                     64                     65                     66
                      A                      A                      A
 Frequencies --   1647.3328              1652.1462              1685.2387
 Red. masses --      6.9582                 6.2062                 2.1424
 Frc consts  --     11.1252                 9.9809                 3.5848
 IR Inten    --      1.8769                31.9440                24.8065

                     67                     68                     69
                      A                      A                      A
 Frequencies --   1706.6856              1804.4174              1840.1131
 Red. masses --      1.7671                12.8917                13.0135
 Frc consts  --      3.0327                24.7306                25.9617
 IR Inten    --      5.5222               323.0696                71.0989

                     70                     71                     72
                      A                      A                      A
 Frequencies --   3047.1773              3141.3477              3150.4709
 Red. masses --      1.0806                 1.0857                 1.0541
 Frc consts  --      5.9116                 6.3126                 6.1641
 IR Inten    --      6.0816                 3.3069                13.0505

                     73                     74                     75
                      A                      A                      A
 Frequencies --   3161.9419              3194.5312              3207.5592
 Red. masses --      1.0568                 1.0868                 1.0903
 Frc consts  --      6.2249                 6.5345                 6.6091
 IR Inten    --     11.7129                 2.0493                 9.9209

                     76                     77                     78
                      A                      A                      A
 Frequencies --   3219.6409              3222.9976              3232.2142
 Red. masses --      1.0934                 1.0961                 1.1190
 Frc consts  --      6.6779                 6.7085                 6.8878
 IR Inten    --      6.1527                16.3536                 0.9512

                     79                     80                     81
                      A                      A                      A
 Frequencies --   3244.5399              3445.2437              3602.6533
 Red. masses --      1.1162                 1.0524                 1.0913
 Frc consts  --      6.9228                 7.3602                 8.3455
 IR Inten    --     18.3384                 1.9478                11.5357

 - Thermochemistry -
 -------------------
 Temperature   298.150 Kelvin.  Pressure   1.00000 Atm.
 Atom     1 has atomic number  6 and mass  12.00000

 Molecular mass:   228.08988 amu.
 Principal axes and moments of inertia in atomic units:
                           1         2         3
     Eigenvalues --  1882.973865490.674985945.41111
           X            0.99998   0.00472  -0.00498
           Y           -0.00488   0.99951  -0.03095
           Z            0.00483   0.03098   0.99951
 This molecule is an asymmetric top.
 Rotational symmetry number  1.
 Warning -- assumption of classical behavior for rotation
           may cause significant error
 Rotational temperatures (Kelvin)      0.04600     0.01577     0.01457
 Rotational constants (GHZ):           0.95845     0.32869     0.30355
 Zero-point vibrational energy     602064.3 (Joules/Mol)
                                  143.89681 (Kcal/Mol)
 Warning -- explicit consideration of  22 degrees of freedom as
           vibrations may cause significant error
 Vibrational temperatures:     56.55    67.07    85.59   122.87   181.69
          (Kelvin)            191.79   256.28   296.86   346.78   376.49
                              389.84   468.93   503.94   552.86   608.01
                              636.53   644.26   751.14   774.03   799.92
                              887.32   891.41   939.74   992.98  1051.56
                             1105.03  1109.34  1113.04  1136.80  1181.12
                             1224.13  1237.06  1256.57  1310.32  1316.92
                             1393.72  1408.27  1417.73  1455.28  1495.48
                             1531.13  1542.03  1579.24  1601.27  1607.63
                             1639.89  1651.26  1713.03  1727.94  1744.60
                             1748.60  1773.34  1789.09  1851.40  1877.53
                             1890.38  1979.15  2006.06  2033.82  2152.28
                             2170.74  2173.75  2207.14  2370.14  2377.07
                             2424.68  2455.54  2596.15  2647.51  4384.21
                             4519.70  4532.82  4549.33  4596.22  4614.96
                             4632.35  4637.17  4650.44  4668.17  4956.94
                             5183.41

 Zero-point correction=                           0.229314 (Hartree/Particle)
 Thermal correction to Energy=                    0.243743
 Thermal correction to Enthalpy=                  0.244688
 Thermal correction to Gibbs Free Energy=         0.187108
 Sum of electronic and zero-point Energies=           -762.320495
 Sum of electronic and thermal Energies=              -762.306065
 Sum of electronic and thermal Enthalpies=            -762.305121
 Sum of electronic and thermal Free Energies=         -762.362700

                     E (Thermal)             CV                S
                      KCal/Mol        Cal/Mol-Kelvin    Cal/Mol-Kelvin
 Total                  152.951             55.815            121.186
 Electronic               0.000              0.000              0.000
 Translational            0.889              2.981             42.176
 Rotational               0.889              2.981             32.486
 Vibrational            151.174             49.854             46.524
 Vibration     1          0.594              1.981              5.294
 Vibration     2          0.595              1.979              4.956
 Vibration     3          0.597              1.974              4.474
 Vibration     4          0.601              1.959              3.763
 Vibration     5          0.611              1.927              3.002
 Vibration     6          0.613              1.920              2.898
 Vibration     7          0.629              1.869              2.348
 Vibration     8          0.641              1.831              2.076
 Vibration     9          0.658              1.778              1.795
 Vibration    10          0.669              1.743              1.651
 Vibration    11          0.675              1.727              1.590
 Vibration    12          0.710              1.624              1.280
 Vibration    13          0.727              1.575              1.165
 Vibration    14          0.753              1.504              1.022
 Vibration    15          0.785              1.421              0.883
 Vibration    16          0.802              1.378              0.819
 Vibration    17          0.807              1.366              0.803
 Vibration    18          0.877              1.201              0.605
 Vibration    19          0.893              1.166              0.570
 Vibration    20          0.911              1.127              0.532
 Vibration    21          0.976              0.997              0.422
 Vibration    22          0.980              0.991              0.417

 Optimization completed.
    -- Stationary point found.
 Normal termination of Gaussian 16 at Fri Dec 11 13:39:17 2020.

 ----------------------------------------------------------------------
 # B3LYP/6-311++G(d,p) empiricaldispersion=gd3bj scf=xqc pop=npa geom=c
 heck
 ----------------------------------------------------------------------

 -------------------------------------
 CID_9670975_JID_7984_Energie_neutraal
 -------------------------------------
 Structure from the checkpoint file:  "JID_7984.chk"
 Charge =  0 Multiplicity = 1

 SCF Done:  E(RB3LYP) =  -762.761547730     A.U. after   16 cycles
 Normal termination of Gaussian 16 at Fri Dec 11 13:44:35 2020.

 ----------------------------------------------------------------------
 # B3LYP/6-311++G(d,p) empiricaldispersion=gd3bj scf=xqc pop=npa geom=c
 heck
 ----------------------------------------------------------------------

 -----------------------------------
 CID_9670975_JID_7984_Energie_kation
 -----------------------------------
 Structure from the checkpoint file:  "JID_7984.chk"
 Charge =  1 Multiplicity = 2

 SCF Done:  E(UB3LYP) =  -762.466623223     A.U. after   23 cycles
 Normal termination of Gaussian 16 at Fri Dec 11 13:55:33 2020.
 Gaussian 16:  ES64L-G16RevA.03 25-Dec-2016

 ----------------------------------------------------------------------
 # B3LYP/6-311++G(d,p) empiricaldispersion=gd3bj scf=xqc pop=npa geom=c
 heck
 ----------------------------------------------------------------------

 ----------------------------------
 CID_9670975_JID_7984_Energie_anion
 ----------------------------------
 Structure from the checkpoint file:  "JID_7984.chk"
 Charge = -1 Multiplicity = 2

                         Standard orientation:
 ---------------------------------------------------------------------
 Center     Atomic      Atomic             Coordinates (Angstroms)
 Number     Number       Type             X           Y           Z
 ---------------------------------------------------------------------
      1          6           0       -2.387197   -1.328700    1.655288
      2          6           0       -1.205226   -0.486103    2.048988
      3          6           0       -2.223539    0.085748    1.100895
      4          6           0       -1.971431    0.298563   -0.352823
      5          7           0       -2.918856    0.441725   -1.211045
      6          7           0       -4.212026    0.392022   -0.735105
      7          6           0       -0.573445    0.368755   -0.893722
      8          6           0        0.230884   -0.947566   -0.838482
      9          8           0       -0.199482   -2.064169   -1.048300
     10          6           0        1.625391   -0.599012   -0.452337
     11          6           0        2.744657   -1.426954   -0.386279
     12          6           0        3.947187   -0.864262    0.040774
     13          6           0        4.023166    0.492280    0.401126
     14          6           0        2.898656    1.315434    0.341921
     15          6           0        1.700689    0.752094   -0.092653
     16          6           0        0.364032    1.396014   -0.228667
     17          8           0        0.070475    2.519271    0.122760
     18          1           0       -3.167194   -1.509010    2.389856
     19          1           0       -2.203606   -2.146852    0.965341
     20          1           0       -1.175292   -0.070711    3.051641
     21          1           0       -0.230907   -0.776636    1.669233
     22          1           0       -2.898686    0.829220    1.523453
     23          1           0       -4.347185   -0.272930    0.027781
     24          1           0       -4.833126    0.183184   -1.508244
     25          1           0       -0.658939    0.640869   -1.955463
     26          1           0        2.667825   -2.474476   -0.660099
     27          1           0        4.839556   -1.480474    0.101591
     28          1           0        4.973178    0.900269    0.734057
     29          1           0        2.939662    2.362755    0.624046
 ---------------------------------------------------------------------

 SCF Done:  E(UB3LYP) =  -762.796289585     A.U. after   24 cycles

 The electronic state is 2-A.
 Alpha  occ. eigenvalues --  -18.94863 -18.94630 -14.22972 -14.21416 -10.09382
 Alpha  occ. eigenvalues --  -10.09046 -10.08903 -10.07908 -10.07343 -10.06790
 Alpha  occ. eigenvalues --  -10.04502 -10.04442 -10.04345 -10.04255 -10.04071
 Alpha  occ. eigenvalues --  -10.02229 -10.02173  -0.88931  -0.88418  -0.87876
 Alpha  occ. eigenvalues --   -0.75990  -0.72969  -0.70336  -0.65945  -0.61725
 Alpha  occ. eigenvalues --   -0.59123  -0.53266  -0.50021  -0.49434  -0.49311
 Alpha  occ. eigenvalues --   -0.44386  -0.42181  -0.41424  -0.41026  -0.39225
 Alpha  occ. eigenvalues --   -0.37792  -0.33660  -0.33358  -0.32686  -0.32442
 Alpha  occ. eigenvalues --   -0.30405  -0.29026  -0.28300  -0.27986  -0.26479
 Alpha  occ. eigenvalues --   -0.26257  -0.25999  -0.24359  -0.24301  -0.23373
 Alpha  occ. eigenvalues --   -0.21604  -0.20872  -0.20502  -0.19478  -0.15776
 Alpha  occ. eigenvalues --   -0.13010  -0.12905  -0.12177  -0.11396  -0.08504
 Alpha  occ. eigenvalues --    0.02610
 Alpha virt. eigenvalues --    0.07256   0.07914   0.08624   0.08893   0.10283
 Alpha virt. eigenvalues --    0.10704   0.11241   0.11905   0.12077   0.12874
 Alpha virt. eigenvalues --    0.13546   0.13876   0.14362   0.14767   0.16046

  Beta  occ. eigenvalues --  -18.94461 -18.94169 -14.22971 -14.21408 -10.09228
  Beta  occ. eigenvalues --  -10.08905 -10.08843 -10.07908 -10.07343 -10.06789
  Beta  occ. eigenvalues --  -10.04572 -10.04476 -10.04371 -10.04129 -10.03892
  Beta  occ. eigenvalues --  -10.01990 -10.01936  -0.88317  -0.87796  -0.87581
  Beta  occ. eigenvalues --   -0.75980  -0.72568  -0.70303  -0.65494  -0.61473
  Beta  occ. eigenvalues --   -0.58884  -0.53233  -0.50014  -0.49219  -0.48511
  Beta  occ. eigenvalues --   -0.44339  -0.42109  -0.41290  -0.40550  -0.39143
  Beta  occ. eigenvalues --   -0.37763  -0.33463  -0.33119  -0.32327  -0.32147
  Beta  occ. eigenvalues --   -0.30350  -0.28616  -0.27965  -0.27718  -0.26237
  Beta  occ. eigenvalues --   -0.26156  -0.25793  -0.23643  -0.23154  -0.22300
  Beta  occ. eigenvalues --   -0.21428  -0.20483  -0.20004  -0.18809  -0.15723
  Beta  occ. eigenvalues --   -0.12157  -0.12093  -0.11007  -0.10959  -0.08143
  Beta virt. eigenvalues --    0.07247   0.08559   0.08688   0.08953   0.09028
  Beta virt. eigenvalues --    0.10267   0.10702   0.11230   0.12037   0.12073
  Beta virt. eigenvalues --    0.12870   0.13524   0.13857   0.14361   0.14763

 Mulliken charges and spin densities:
               1          2
     1  C   -0.432977   0.007725
     2  C   -0.308407  -0.009391
     3  C   -0.151211  -0.008072
     4  C   -0.308252  -0.022335
     5  N   -0.028863   0.004964
     6  N   -0.300861  -0.000010
     7  C    0.092248  -0.011781
     8  C   -0.215731   0.121632
     9  O   -0.359613   0.160028
    10  C   -0.034524   0.138737
    11  C    0.096613   0.019302
    12  C   -0.344602   0.097774
    13  C   -0.397292   0.136171
    14  C    0.069211  -0.010210
    15  C    0.053372   0.159421
    16  C   -0.216297   0.092103
    17  O   -0.368416   0.140206
    18  H    0.116023   0.000034
    19  H    0.200536  -0.000096
    20  H    0.154281   0.002243
    21  H    0.142459  -0.001297
    22  H    0.234308   0.001028
    23  H    0.229137   0.000239
    24  H    0.245534   0.000123
    25  H    0.273027  -0.004560
    26  H    0.166062   0.002204
    27  H    0.118817  -0.008470
    28  H    0.114247  -0.011769
    29  H    0.161171   0.004056
 Sum of Mulliken charges =  -1.00000   1.00000

 Dipole moment (field-independent basis, Debye):
    X=             -2.5559    Y=             -1.8376    Z=              2.5872  Tot=              4.0747
 Quadrupole moment (field-independent basis, Debye-Ang):
   XX=           -119.9030   YY=           -129.1195   ZZ=           -108.3782
   XY=              5.1679   XZ=             -3.3031   YZ=             -3.4873

 Summary of Natural Population Analysis:

                                       Natural Population
                Natural  -----------------------------------------------
    Atom  No    Charge         Core      Valence    Rydberg      Total
 -----------------------------------------------------------------------
      C    1   -0.20191      0.99963     2.19576    0.00653     3.20191
      C    2   -0.19064      0.99963     2.18427    0.00674     3.19064
      C    3   -0.14725      0.99956     2.13668    0.01101     3.14725
      C    4    0.12899      0.99954     1.85236    0.01911     2.87101
      N    5   -0.14887      0.99962     2.63322    0.01603     3.64887
      N    6   -0.32105      0.99975     2.80905    0.01226     3.82105
      C    7   -0.21138      0.99948     2.19686    0.01504     3.21138
      C    8    0.30323      0.99960     1.67586    0.02130     2.69677
      O    9   -0.25221      0.99987     3.24527    0.00707     4.25221
      C   10   -0.01959      0.99943     2.00875    0.01141     3.01959
      C   11   -0.09479      0.99953     2.08665    0.00862     3.09479
      C   12   -0.08386      0.99959     2.07525    0.00902     3.08386
      C   13   -0.07341      0.99959     2.06480    0.00902     3.07341
      C   14   -0.10243      0.99953     2.09426    0.00865     3.10243
      C   15   -0.01514      0.99943     2.00430    0.01141     3.01514
      C   16    0.30161      0.99960     1.67797    0.02081     2.69839
      O   17   -0.25322      0.99987     3.24636    0.00699     4.25322
      H   18    0.09301      0.00000     0.40590    0.00109     0.40699
      H   19    0.11393      0.00000     0.38502    0.00105     0.38607
      H   20    0.09823      0.00000     0.40077    0.00099     0.40177
      H   21    0.11637      0.00000     0.38275    0.00088     0.38363
      H   22    0.11105      0.00000     0.38773    0.00122     0.38895
      H   23    0.16898      0.00000     0.32905    0.00197     0.33102
      H   24    0.17415      0.00000     0.32427    0.00158     0.32585
      H   25    0.12811      0.00000     0.37071    0.00117     0.37189
      H   26    0.10037      0.00000     0.39807    0.00157     0.39963
      H   27    0.08878      0.00000     0.41022    0.00100     0.41122
      H   28    0.08823      0.00000     0.41077    0.00100     0.41177
      H   29    0.10070      0.00000     0.39771    0.00159     0.39930
 =======================================================================
   * Total *    0.00000     16.99325    42.79063    0.21612    60.00000

 Normal termination of Gaussian 16 at Fri Dec 11 14:06:52 2020.
