 Gaussian 16, Revision A.03,

 -----------------------------------------------------------
 # opt freq B3LYP/6-31G(d) empiricaldispersion=gd3bj scf=xqc
 -----------------------------------------------------------

 ------------------------------
 CID_151101697_JID_311_neutraal
 ------------------------------
 Symbolic Z-matrix:
 Charge =  0 Multiplicity = 1

 SCF Done:  E(RB3LYP) =  -511.802506268     A.U. after   15 cycles
 SCF Done:  E(RB3LYP) =  -511.804670434     A.U. after   15 cycles
 SCF Done:  E(RB3LYP) =  -511.806589509     A.U. after   13 cycles
 SCF Done:  E(RB3LYP) =  -511.806553333     A.U. after   13 cycles
 SCF Done:  E(RB3LYP) =  -511.806872514     A.U. after   12 cycles
 SCF Done:  E(RB3LYP) =  -511.807035711     A.U. after   13 cycles
 SCF Done:  E(RB3LYP) =  -511.807057601     A.U. after   12 cycles
 SCF Done:  E(RB3LYP) =  -511.807070431     A.U. after   12 cycles
 SCF Done:  E(RB3LYP) =  -511.807078638     A.U. after   10 cycles
 SCF Done:  E(RB3LYP) =  -511.807079667     A.U. after    9 cycles
 SCF Done:  E(RB3LYP) =  -511.807079800     A.U. after    8 cycles
 SCF Done:  E(RB3LYP) =  -511.807079911     A.U. after    8 cycles
 SCF Done:  E(RB3LYP) =  -511.807079907     A.U. after    7 cycles
 Optimization completed.
    -- Stationary point found.
 Normal termination of Gaussian 16 at Tue Dec  8 10:23:47 2020.

 --------------------------------------------------------------------
 #N Geom=AllCheck Guess=TCheck SCRF=Check GenChk RB3LYP/6-31G(d) Freq
 --------------------------------------------------------------------

 Structure from the checkpoint file:  "JID_311.chk"
 ------------------------------
 CID_151101697_JID_311_neutraal
 ------------------------------
 Charge =  0 Multiplicity = 1

 SCF Done:  E(RB3LYP) =  -511.807079907     A.U. after    1 cycles

  Exact polarizability:  82.040 -11.310  87.358   0.551   1.937  64.615
 Approx polarizability: 106.772 -30.071 165.114  -3.444   1.821  92.031

                      1                      2                      3
                      A                      A                      A
 Frequencies --     41.3175                90.0594               122.8920
 Red. masses --      4.7373                 6.7748                 3.3658
 Frc consts  --      0.0048                 0.0324                 0.0299
 IR Inten    --      0.7029                 0.5655                 0.8754

                      4                      5                      6
                      A                      A                      A
 Frequencies --    131.2582               186.3649               209.3636
 Red. masses --      2.3089                 2.0994                 2.1832
 Frc consts  --      0.0234                 0.0430                 0.0564
 IR Inten    --      2.5865                 1.0263                 5.8534

                      7                      8                      9
                      A                      A                      A
 Frequencies --    228.2690               259.4483               304.9150
 Red. masses --      1.3800                 2.8159                 1.8886
 Frc consts  --      0.0424                 0.1117                 0.1035
 IR Inten    --      0.4563                 0.8697                 0.8960

                     10                     11                     12
                      A                      A                      A
 Frequencies --    340.3836               366.7314               394.0435
 Red. masses --      2.0368                 3.3621                 1.7491
 Frc consts  --      0.1390                 0.2664                 0.1600
 IR Inten    --     10.8074                 8.7681                22.8366

                     13                     14                     15
                      A                      A                      A
 Frequencies --    418.1500               487.6427               514.5987
 Red. masses --      1.9347                 3.0635                 2.3661
 Frc consts  --      0.1993                 0.4292                 0.3692
 IR Inten    --     44.1919                45.4202                 6.1590

                     16                     17                     18
                      A                      A                      A
 Frequencies --    568.3486               613.7807               660.4389
 Red. masses --     13.5675                 3.9033                 5.3607
 Frc consts  --      2.5821                 0.8664                 1.3776
 IR Inten    --     13.8096                10.5110                 9.2693

                     19                     20                     21
                      A                      A                      A
 Frequencies --    735.9254               842.7011               892.8464
 Red. masses --      3.6423                 3.0276                 2.5796
 Frc consts  --      1.1622                 1.2668                 1.2116
 IR Inten    --      0.2215                19.0151                24.7457

                     22                     23                     24
                      A                      A                      A
 Frequencies --    925.5490               973.7217              1017.2415
 Red. masses --      2.1419                 1.9784                 1.8939
 Frc consts  --      1.0811                 1.1052                 1.1546
 IR Inten    --     11.5570                11.0964                 6.9991

                     25                     26                     27
                      A                      A                      A
 Frequencies --   1044.4477              1105.8546              1136.5032
 Red. masses --      2.8362                 5.2490                 1.5606
 Frc consts  --      1.8229                 3.7820                 1.1876
 IR Inten    --     19.3337               118.5998                23.5262

                     28                     29                     30
                      A                      A                      A
 Frequencies --   1160.4990              1183.8982              1190.1071
 Red. masses --      2.0499                 1.8127                 1.5361
 Frc consts  --      1.6266                 1.4970                 1.2818
 IR Inten    --     98.4259                73.7467                31.1979

                     31                     32                     33
                      A                      A                      A
 Frequencies --   1230.9184              1279.6106              1310.9840
 Red. masses --      1.4286                 1.4276                 1.6138
 Frc consts  --      1.2753                 1.3773                 1.6342
 IR Inten    --     11.7435                20.4276                26.7070

                     34                     35                     36
                      A                      A                      A
 Frequencies --   1359.8430              1390.9086              1405.9422
 Red. masses --      2.4710                 1.7963                 1.3403
 Frc consts  --      2.6922                 2.0475                 1.5610
 IR Inten    --    134.8529                35.9278                20.5353

                     37                     38                     39
                      A                      A                      A
 Frequencies --   1430.0180              1441.6931              1490.3852
 Red. masses --      1.6492                 1.3450                 1.1444
 Frc consts  --      1.9870                 1.6471                 1.4977
 IR Inten    --     21.2383                26.0691                 0.2570

                     40                     41                     42
                      A                      A                      A
 Frequencies --   1495.6288              1513.5632              1524.7085
 Red. masses --      1.0906                 1.0698                 1.0584
 Frc consts  --      1.4374                 1.4439                 1.4497
 IR Inten    --      1.1679                 1.8675                 1.1627

                     43                     44                     45
                      A                      A                      A
 Frequencies --   1530.6139              1534.2476              1543.2676
 Red. masses --      1.0702                 1.0761                 1.0494
 Frc consts  --      1.4772                 1.4924                 1.4726
 IR Inten    --      2.9766                 8.6962                 7.2829

                     46                     47                     48
                      A                      A                      A
 Frequencies --   2271.0032              3030.4812              3054.0777
 Red. masses --     13.6208                 1.0387                 1.0659
 Frc consts  --     41.3893                 5.6203                 5.8575
 IR Inten    --    441.8190                49.6287                28.4713

                     49                     50                     51
                      A                      A                      A
 Frequencies --   3065.6406              3069.9080              3099.5455
 Red. masses --      1.0538                 1.0457                 1.0975
 Frc consts  --      5.8350                 5.8066                 6.2122
 IR Inten    --     18.4173                10.4694                39.7651

                     52                     53                     54
                      A                      A                      A
 Frequencies --   3119.0611              3124.9510              3136.0659
 Red. masses --      1.0988                 1.1013                 1.1016
 Frc consts  --      6.2982                 6.3365                 6.3834
 IR Inten    --     13.9398                24.8726                19.0162

                     55                     56                     57
                      A                      A                      A
 Frequencies --   3142.7414              3158.0045              3726.8253
 Red. masses --      1.1037                 1.1028                 1.0655
 Frc consts  --      6.4227                 6.4800                 8.7193
 IR Inten    --     28.1548                18.7400                17.6128

 - Thermochemistry -
 -------------------
 Temperature   298.150 Kelvin.  Pressure   1.00000 Atm.
 Atom     1 has atomic number  6 and mass  12.00000

 Molecular mass:   145.08513 amu.
 Principal axes and moments of inertia in atomic units:
                           1         2         3
     Eigenvalues --   776.535502101.204582249.94606
           X            0.99967   0.00415   0.02517
           Y           -0.00297   0.99891  -0.04648
           Z           -0.02534   0.04639   0.99860
 This molecule is an asymmetric top.
 Rotational symmetry number  1.
 Warning -- assumption of classical behavior for rotation
           may cause significant error
 Rotational temperatures (Kelvin)      0.11154     0.04122     0.03850
 Rotational constants (GHZ):           2.32409     0.85891     0.80213
 Zero-point vibrational energy     458336.9 (Joules/Mol)
                                  109.54514 (Kcal/Mol)
 Warning -- explicit consideration of  17 degrees of freedom as
           vibrations may cause significant error
 Vibrational temperatures:     59.45   129.58   176.81   188.85   268.14
          (Kelvin)            301.23   328.43   373.29   438.70   489.74
                              527.64   566.94   601.62   701.61   740.39
                              817.73   883.09   950.22  1058.83  1212.46
                             1284.61  1331.66  1400.97  1463.58  1502.73
                             1591.08  1635.17  1669.70  1703.37  1712.30
                             1771.02  1841.07  1886.21  1956.51  2001.21
                             2022.84  2057.48  2074.27  2144.33  2151.88
                             2177.68  2193.72  2202.21  2207.44  2220.42
                             3267.47  4360.19  4394.14  4410.77  4416.91
                             4459.55  4487.63  4496.11  4512.10  4521.70
                             4543.66  5362.07

 Zero-point correction=                           0.174571 (Hartree/Particle)
 Thermal correction to Energy=                    0.185727
 Thermal correction to Enthalpy=                  0.186671
 Thermal correction to Gibbs Free Energy=         0.137786
 Sum of electronic and zero-point Energies=           -511.632509
 Sum of electronic and thermal Energies=              -511.621353
 Sum of electronic and thermal Enthalpies=            -511.620409
 Sum of electronic and thermal Free Energies=         -511.669294

                     E (Thermal)             CV                S
                      KCal/Mol        Cal/Mol-Kelvin    Cal/Mol-Kelvin
 Total                  116.545             40.305            102.888
 Electronic               0.000              0.000              0.000
 Translational            0.889              2.981             40.827
 Rotational               0.889              2.981             29.686
 Vibrational            114.768             34.343             32.374
 Vibration     1          0.594              1.981              5.195
 Vibration     2          0.602              1.956              3.659
 Vibration     3          0.610              1.930              3.054
 Vibration     4          0.612              1.922              2.928
 Vibration     5          0.632              1.859              2.264
 Vibration     6          0.642              1.826              2.049
 Vibration     7          0.651              1.798              1.893
 Vibration     8          0.668              1.747              1.665
 Vibration     9          0.696              1.664              1.390
 Vibration    10          0.720              1.595              1.210
 Vibration    11          0.740              1.541              1.093
 Vibration    12          0.761              1.483              0.985
 Vibration    13          0.781              1.431              0.898
 Vibration    14          0.844              1.277              0.690
 Vibration    15          0.870              1.218              0.623
 Vibration    16          0.924              1.100              0.507
 Vibration    17          0.973              1.003              0.427

 Optimization completed.
    -- Stationary point found.
 Normal termination of Gaussian 16 at Tue Dec  8 10:27:38 2020.

 ----------------------------------------------------------------------
 # B3LYP/6-311++G(d,p) empiricaldispersion=gd3bj scf=xqc pop=npa geom=c
 heck
 ----------------------------------------------------------------------

 --------------------------------------
 CID_151101697_JID_311_Energie_neutraal
 --------------------------------------
 Structure from the checkpoint file:  "JID_311.chk"
 Charge =  0 Multiplicity = 1

 SCF Done:  E(RB3LYP) =  -511.965220545     A.U. after   15 cycles
 Normal termination of Gaussian 16 at Tue Dec  8 10:29:02 2020.

 ----------------------------------------------------------------------
 # B3LYP/6-311++G(d,p) empiricaldispersion=gd3bj scf=xqc pop=npa geom=c
 heck
 ----------------------------------------------------------------------

 ------------------------------------
 CID_151101697_JID_311_Energie_kation
 ------------------------------------
 Structure from the checkpoint file:  "JID_311.chk"
 Charge =  1 Multiplicity = 2

 SCF Done:  E(UB3LYP) =  -511.632425208     A.U. after   23 cycles
 Normal termination of Gaussian 16 at Tue Dec  8 10:33:19 2020.
 Gaussian 16:  ES64L-G16RevA.03 25-Dec-2016

 ----------------------------------------------------------------------
 # B3LYP/6-311++G(d,p) empiricaldispersion=gd3bj scf=xqc pop=npa geom=c
 heck
 ----------------------------------------------------------------------

 -----------------------------------
 CID_151101697_JID_311_Energie_anion
 -----------------------------------
 Structure from the checkpoint file:  "JID_311.chk"
 Charge = -1 Multiplicity = 2

                         Standard orientation:
 ---------------------------------------------------------------------
 Center     Atomic      Atomic             Coordinates (Angstroms)
 Number     Number       Type             X           Y           Z
 ---------------------------------------------------------------------
      1          6           0       -0.539419   -0.959476    1.596084
      2          6           0       -0.860354   -0.238823    0.287841
      3          6           0       -0.353311    1.210941    0.241031
      4          6           0        1.127328    1.435896    0.569764
      5          7           0        2.059062    0.961059   -0.475758
      6          7           0        2.412440   -0.216689   -0.398038
      7          7           0        2.828517   -1.279988   -0.424673
      8          8           0       -0.266143   -0.897810   -0.816998
      9          8           0       -2.279162   -0.290654    0.203854
     10          6           0       -2.860984    0.279046   -0.961984
     11          1           0        0.536337   -1.113143    1.707356
     12          1           0       -1.034098   -1.936428    1.594560
     13          1           0       -0.915087   -0.395848    2.455063
     14          1           0       -0.546431    1.617214   -0.756359
     15          1           0       -0.949390    1.787767    0.958153
     16          1           0        1.306545    2.511940    0.634393
     17          1           0        1.388895    1.004422    1.543917
     18          1           0       -0.503639   -1.837659   -0.754113
     19          1           0       -2.889840    1.376013   -0.914310
     20          1           0       -2.323538   -0.028233   -1.865766
     21          1           0       -3.887004   -0.094524   -1.004877
 ---------------------------------------------------------------------

 SCF Done:  E(UB3LYP) =  -511.952845342     A.U. after   30 cycles

 The electronic state is 2-A.
 Alpha  occ. eigenvalues --  -19.02122 -19.01902 -14.34953 -14.24775 -14.23348
 Alpha  occ. eigenvalues --  -10.17059 -10.10179 -10.10085 -10.06178 -10.05793
 Alpha  occ. eigenvalues --   -1.01242  -0.96287  -0.89617  -0.85497  -0.68938
 Alpha  occ. eigenvalues --   -0.64127  -0.57485  -0.56788  -0.47983  -0.42435
 Alpha  occ. eigenvalues --   -0.41834  -0.39796  -0.38448  -0.37308  -0.36081
 Alpha  occ. eigenvalues --   -0.33701  -0.32687  -0.32488  -0.30235  -0.28638
 Alpha  occ. eigenvalues --   -0.28247  -0.27138  -0.26536  -0.25145  -0.20395
 Alpha  occ. eigenvalues --   -0.19518  -0.18210  -0.16417  -0.13206   0.04806
 Alpha virt. eigenvalues --    0.07206   0.07942   0.08258   0.09666   0.10422
 Alpha virt. eigenvalues --    0.10785   0.11116   0.12174   0.12772   0.13502
 Alpha virt. eigenvalues --    0.14565   0.14834   0.15574   0.16765   0.17611

  Beta  occ. eigenvalues --  -19.02101 -19.01888 -14.34835 -14.24571 -14.23387
  Beta  occ. eigenvalues --  -10.17058 -10.10108 -10.10054 -10.06146 -10.05764
  Beta  occ. eigenvalues --   -1.00985  -0.96255  -0.89575  -0.85357  -0.68872
  Beta  occ. eigenvalues --   -0.64057  -0.57418  -0.56663  -0.47905  -0.42379
  Beta  occ. eigenvalues --   -0.41752  -0.39461  -0.38290  -0.37178  -0.35935
  Beta  occ. eigenvalues --   -0.33529  -0.32597  -0.32251  -0.30111  -0.28507
  Beta  occ. eigenvalues --   -0.28208  -0.27105  -0.26481  -0.25062  -0.20352
  Beta  occ. eigenvalues --   -0.19471  -0.17944  -0.16362  -0.13134
  Beta virt. eigenvalues --    0.07379   0.08460   0.08554   0.09589   0.10390
  Beta virt. eigenvalues --    0.10969   0.11329   0.11811   0.12639   0.13073
  Beta virt. eigenvalues --    0.13747   0.15123   0.15131   0.15793   0.16921

 Mulliken charges and spin densities:
               1          2
     1  C    1.210807  -1.708283
     2  C   -1.518717   0.953177
     3  C    0.180474  -0.064479
     4  C    1.190926  -1.810488
     5  N   -1.015947   0.459602
     6  N    0.747035  -0.041595
     7  N    0.120588  -0.200901
     8  O   -0.179425   0.012265
     9  O   -0.144035   0.065734
    10  C    0.806897  -0.993132
    11  H    0.269799  -0.128332
    12  H   -0.083548   0.231704
    13  H   -0.357548   0.539344
    14  H    0.189776  -0.002724
    15  H   -0.389923   0.576602
    16  H   -0.935798   1.163005
    17  H   -0.218032   0.365499
    18  H    0.035959   0.227088
    19  H   -0.395941   0.535051
    20  H   -0.103361   0.268962
    21  H   -0.409988   0.551902
 Sum of Mulliken charges =  -1.00000   1.00000

 Dipole moment (field-independent basis, Debye):
    X=              1.0575    Y=             -3.3266    Z=             -0.6104  Tot=              3.5436
 Quadrupole moment (field-independent basis, Debye-Ang):
   XX=           -109.7026   YY=           -100.7915   ZZ=            -91.0424
   XY=              0.5552   XZ=              1.7450   YZ=             -5.0372

 Summary of Natural Population Analysis:

                                       Natural Population
                Natural  -----------------------------------------------
    Atom  No    Charge         Core      Valence    Rydberg      Total
 -----------------------------------------------------------------------
      C    1   -0.30227      0.99959     2.29500    0.00768     3.30227
      C    2    0.28579      0.99956     1.69382    0.02082     2.71421
      C    3   -0.21658      0.99955     2.20537    0.01167     3.21658
      C    4   -0.09104      0.99958     2.07895    0.01252     3.09104
      N    5   -0.19179      0.99970     2.67791    0.01418     3.69179
      N    6    0.13082      0.99970     2.35408    0.01540     3.36918
      N    7   -0.04061      0.99982     2.52742    0.01338     3.54061
      O    8   -0.37666      0.99988     3.36877    0.00801     4.37666
      O    9   -0.31228      0.99987     3.30076    0.01165     4.31228
      C   10   -0.10228      0.99960     2.09438    0.00830     3.10228
      H   11    0.10232      0.00000     0.39668    0.00100     0.39768
      H   12    0.10383      0.00000     0.39475    0.00142     0.39617
      H   13    0.10826      0.00000     0.39041    0.00133     0.39174
      H   14    0.10919      0.00000     0.38874    0.00207     0.39081
      H   15    0.11041      0.00000     0.38701    0.00259     0.38959
      H   16    0.10387      0.00000     0.39295    0.00318     0.39613
      H   17    0.09117      0.00000     0.40702    0.00180     0.40883
      H   18    0.23052      0.00000     0.26642    0.00306     0.26948
      H   19    0.08069      0.00000     0.41741    0.00190     0.41931
      H   20    0.08805      0.00000     0.40995    0.00200     0.41195
      H   21    0.08859      0.00000     0.40985    0.00157     0.41141
 =======================================================================
   * Total *    0.00000      9.99684    28.85763    0.14553    39.00000

 Normal termination of Gaussian 16 at Tue Dec  8 10:42:16 2020.
