 Gaussian 16, Revision A.03,

 -----------------------------------------------------------
 # opt freq B3LYP/6-31G(d) empiricaldispersion=gd3bj scf=xqc
 -----------------------------------------------------------

 --------------------------------
 CID_102773360_JID_10955_neutraal
 --------------------------------
 Symbolic Z-matrix:
 Charge =  0 Multiplicity = 1

 SCF Done:  E(RB3LYP) =  -931.190626717     A.U. after   16 cycles
 SCF Done:  E(RB3LYP) =  -931.195420631     A.U. after   15 cycles
 SCF Done:  E(RB3LYP) =  -931.191037310     A.U. after   15 cycles
 SCF Done:  E(RB3LYP) =  -931.198771363     A.U. after   14 cycles
 SCF Done:  E(RB3LYP) =  -931.200185338     A.U. after   14 cycles
 SCF Done:  E(RB3LYP) =  -931.201395423     A.U. after   14 cycles
 SCF Done:  E(RB3LYP) =  -931.203377131     A.U. after   16 cycles
 SCF Done:  E(RB3LYP) =  -931.203401500     A.U. after   16 cycles
 SCF Done:  E(RB3LYP) =  -931.204027941     A.U. after   14 cycles
 SCF Done:  E(RB3LYP) =  -931.204301591     A.U. after   13 cycles
 SCF Done:  E(RB3LYP) =  -931.204513478     A.U. after   12 cycles
 SCF Done:  E(RB3LYP) =  -931.204541071     A.U. after   12 cycles
 SCF Done:  E(RB3LYP) =  -931.204548662     A.U. after   12 cycles
 SCF Done:  E(RB3LYP) =  -931.204552260     A.U. after   12 cycles
 SCF Done:  E(RB3LYP) =  -931.204552785     A.U. after   10 cycles
 SCF Done:  E(RB3LYP) =  -931.204552831     A.U. after    8 cycles
 Optimization completed.
    -- Stationary point found.
 Normal termination of Gaussian 16 at Sat Dec 12 16:48:11 2020.

 --------------------------------------------------------------------
 #N Geom=AllCheck Guess=TCheck SCRF=Check GenChk RB3LYP/6-31G(d) Freq
 --------------------------------------------------------------------

 Structure from the checkpoint file:  "JID_10955.chk"
 --------------------------------
 CID_102773360_JID_10955_neutraal
 --------------------------------
 Charge =  0 Multiplicity = 1

 SCF Done:  E(RB3LYP) =  -931.204552832     A.U. after    1 cycles

  Exact polarizability: 238.602  -4.366 199.726 -15.973  -8.324  90.653
 Approx polarizability: 360.597 -12.631 344.598 -42.695 -23.847 156.818

                      1                      2                      3
                      A                      A                      A
 Frequencies --     16.2995                32.3904                44.7988
 Red. masses --      7.7947                 5.9819                 5.7026
 Frc consts  --      0.0012                 0.0037                 0.0067
 IR Inten    --      0.6577                 0.3614                 1.6811

                      4                      5                      6
                      A                      A                      A
 Frequencies --     74.5850               100.6716               151.4649
 Red. masses --      5.9109                 4.4464                 8.0246
 Frc consts  --      0.0194                 0.0266                 0.1085
 IR Inten    --      1.2999                 0.1462                 1.0154

                      7                      8                      9
                      A                      A                      A
 Frequencies --    158.5070               169.8000               206.0139
 Red. masses --      3.0504                 4.2394                 4.3413
 Frc consts  --      0.0452                 0.0720                 0.1086
 IR Inten    --      1.3055                 4.0349                 1.0548

                     10                     11                     12
                      A                      A                      A
 Frequencies --    235.1639               247.8887               309.3213
 Red. masses --      7.3014                 3.6350                 4.6859
 Frc consts  --      0.2379                 0.1316                 0.2642
 IR Inten    --      7.3283                 1.4763                 6.5402

                     13                     14                     15
                      A                      A                      A
 Frequencies --    345.8783               357.7864               384.2557
 Red. masses --      4.0175                 1.1522                 4.1834
 Frc consts  --      0.2832                 0.0869                 0.3639
 IR Inten    --      3.0908               116.6383                 6.4693

                     16                     17                     18
                      A                      A                      A
 Frequencies --    416.4657               427.5448               430.9671
 Red. masses --      6.0013                 3.6192                 6.6079
 Frc consts  --      0.6133                 0.3898                 0.7231
 IR Inten    --      1.3885                 2.9375                 2.4042

                     19                     20                     21
                      A                      A                      A
 Frequencies --    453.0857               478.5334               518.6416
 Red. masses --      3.7016                 3.6869                 5.3543
 Frc consts  --      0.4477                 0.4974                 0.8486
 IR Inten    --      3.8721                 7.3724                 1.1490

                     22                     23                     24
                      A                      A                      A
 Frequencies --    533.0736               544.0453               563.5739
 Red. masses --      4.5068                 4.6652                 3.4567
 Frc consts  --      0.7546                 0.8136                 0.6469
 IR Inten    --      7.2692                 3.6684                12.1663

                     25                     26                     27
                      A                      A                      A
 Frequencies --    590.6413               624.4397               627.3270
 Red. masses --      4.0806                 3.8339                 2.8695
 Frc consts  --      0.8387                 0.8808                 0.6653
 IR Inten    --      6.3566                 2.6963                11.8615

                     28                     29                     30
                      A                      A                      A
 Frequencies --    699.4223               705.6062               732.6301
 Red. masses --      5.5972                 5.5974                 2.7420
 Frc consts  --      1.6132                 1.6420                 0.8671
 IR Inten    --      4.0601                 6.0632                36.8584

                     31                     32                     33
                      A                      A                      A
 Frequencies --    771.0811               773.4839               786.6168
 Red. masses --      5.1110                 3.4681                 2.2125
 Frc consts  --      1.7904                 1.2225                 0.8066
 IR Inten    --     13.6250                14.7794                 8.1970

                     34                     35                     36
                      A                      A                      A
 Frequencies --    810.1932               824.4159               840.3565
 Red. masses --      1.4805                 5.9708                 1.7889
 Frc consts  --      0.5726                 2.3910                 0.7443
 IR Inten    --     32.8329                35.6313                52.5103

                     37                     38                     39
                      A                      A                      A
 Frequencies --    846.6883               873.8448               876.4727
 Red. masses --      3.5832                 1.9707                 2.1895
 Frc consts  --      1.5135                 0.8866                 0.9910
 IR Inten    --      4.1957                 8.4641                18.6534

                     40                     41                     42
                      A                      A                      A
 Frequencies --    907.4767               953.4394               956.6402
 Red. masses --      1.9157                 1.3251                 1.4070
 Frc consts  --      0.9295                 0.7097                 0.7586
 IR Inten    --      5.1556                 0.2561                 0.6870

                     43                     44                     45
                      A                      A                      A
 Frequencies --    965.9588               978.0572               981.7394
 Red. masses --      2.1439                 4.5545                 1.4469
 Frc consts  --      1.1786                 2.5670                 0.8216
 IR Inten    --      3.7872                17.0803                 0.6690

                     46                     47                     48
                      A                      A                      A
 Frequencies --   1000.2002              1074.0419              1081.4570
 Red. masses --      2.3389                 2.3908                 2.3395
 Frc consts  --      1.3786                 1.6249                 1.6121
 IR Inten    --      4.6309                 3.0716                 1.7300

                     49                     50                     51
                      A                      A                      A
 Frequencies --   1101.1300              1112.5652              1139.0200
 Red. masses --      2.4773                 2.8169                 2.4184
 Frc consts  --      1.7697                 2.0543                 1.8486
 IR Inten    --     21.2964                54.6182                21.2431

                     52                     53                     54
                      A                      A                      A
 Frequencies --   1174.9286              1182.2044              1188.8456
 Red. masses --      1.4123                 1.5257                 1.4222
 Frc consts  --      1.1487                 1.2563                 1.1843
 IR Inten    --     10.8848                 4.2153                13.8909

                     55                     56                     57
                      A                      A                      A
 Frequencies --   1212.7924              1223.0901              1256.2961
 Red. masses --      1.5349                 1.4330                 1.7687
 Frc consts  --      1.3301                 1.2630                 1.6447
 IR Inten    --    188.6321                 1.3576                 8.9475

                     58                     59                     60
                      A                      A                      A
 Frequencies --   1269.0326              1286.1303              1289.5009
 Red. masses --      1.9237                 1.5109                 3.3433
 Frc consts  --      1.8253                 1.4725                 3.2754
 IR Inten    --      5.5077                10.0049               275.8119

                     61                     62                     63
                      A                      A                      A
 Frequencies --   1299.6587              1318.2951              1339.4731
 Red. masses --      1.9600                 1.4497                 2.3040
 Frc consts  --      1.9506                 1.4844                 2.4356
 IR Inten    --      9.9027                 8.0943                35.0212

                     64                     65                     66
                      A                      A                      A
 Frequencies --   1341.2921              1352.2166              1382.2019
 Red. masses --      1.7197                 2.7538                 3.8315
 Frc consts  --      1.8228                 2.9667                 4.3129
 IR Inten    --      7.5833                 9.7962               206.3555

                     67                     68                     69
                      A                      A                      A
 Frequencies --   1385.2988              1406.8523              1465.1007
 Red. masses --      2.1734                 2.8550                 2.6612
 Frc consts  --      2.4574                 3.3293                 3.3656
 IR Inten    --    112.4998                14.7345                49.5080

                     70                     71                     72
                      A                      A                      A
 Frequencies --   1469.4567              1509.7325              1514.9603
 Red. masses --      2.7629                 1.7535                 1.2946
 Frc consts  --      3.5150                 2.3548                 1.7507
 IR Inten    --      5.4801                11.2849                 6.2699

                     73                     74                     75
                      A                      A                      A
 Frequencies --   1527.7974              1537.3787              1571.0071
 Red. masses --      1.1098                 2.8212                 1.7231
 Frc consts  --      1.5262                 3.9287                 2.5057
 IR Inten    --      1.4575               231.7721                 5.2914

                     76                     77                     78
                      A                      A                      A
 Frequencies --   1614.1796              1636.2344              1645.8470
 Red. masses --      6.9130                 6.6181                 5.0252
 Frc consts  --     10.6125                10.4393                 8.0201
 IR Inten    --    391.5902                13.1028                98.9151

                     79                     80                     81
                      A                      A                      A
 Frequencies --   1649.6490              1691.1226              3036.4067
 Red. masses --      6.2183                 6.9435                 1.0687
 Frc consts  --      9.9702                11.6998                 5.8056
 IR Inten    --      3.9456                 7.7234                27.3697

                     82                     83                     84
                      A                      A                      A
 Frequencies --   3064.3299              3094.8637              3109.1660
 Red. masses --      1.0713                 1.0947                 1.0833
 Frc consts  --      5.9268                 6.1777                 6.1698
 IR Inten    --     17.3527                32.2404                 8.1008

                     85                     86                     87
                      A                      A                      A
 Frequencies --   3161.3817              3177.0843              3187.8346
 Red. masses --      1.0961                 1.0885                 1.0904
 Frc consts  --      6.4544                 6.4736                 6.5286
 IR Inten    --     12.7359                15.8323                18.3003

                     88                     89                     90
                      A                      A                      A
 Frequencies --   3207.1322              3213.2561              3224.3022
 Red. masses --      1.0881                 1.0959                 1.0947
 Frc consts  --      6.5941                 6.6667                 6.7055
 IR Inten    --      7.8579                27.3439                 4.3690

                     91                     92                     93
                      A                      A                      A
 Frequencies --   3234.2313              3524.8963              3752.8002
 Red. masses --      1.0902                 1.0738                 1.0659
 Frc consts  --      6.7192                 7.8605                 8.8450
 IR Inten    --      5.8669                 7.7969                55.9384

 - Thermochemistry -
 -------------------
 Temperature   298.150 Kelvin.  Pressure   1.00000 Atm.
 Atom     1 has atomic number  6 and mass  12.00000

 Molecular mass:   271.09569 amu.
 Principal axes and moments of inertia in atomic units:
                           1         2         3
     Eigenvalues --  2948.949278223.09566**********
           X            0.99992  -0.01234  -0.00066
           Y            0.01234   0.99992   0.00132
           Z            0.00065  -0.00133   1.00000
 This molecule is an asymmetric top.
 Rotational symmetry number  1.
 Warning -- assumption of classical behavior for rotation
           may cause significant error
 Rotational temperatures (Kelvin)      0.02937     0.01053     0.00816
 Rotational constants (GHZ):           0.61199     0.21947     0.17012
 Zero-point vibrational energy     679263.3 (Joules/Mol)
                                  162.34784 (Kcal/Mol)
 Warning -- explicit consideration of  25 degrees of freedom as
           vibrations may cause significant error
 Vibrational temperatures:     23.45    46.60    64.46   107.31   144.84
          (Kelvin)            217.92   228.06   244.30   296.41   338.35
                              356.66   445.04   497.64   514.77   552.86
                              599.20   615.14   620.07   651.89   688.50
                              746.21   766.97   782.76   810.86   849.80
                              898.43   902.58  1006.31  1015.21  1054.09
                             1109.41  1112.87  1131.77  1165.69  1186.15
                             1209.09  1218.20  1257.27  1261.05  1305.66
                             1371.79  1376.39  1389.80  1407.21  1412.50
                             1439.07  1545.31  1555.98  1584.28  1600.73
                             1638.80  1690.46  1700.93  1710.48  1744.94
                             1759.75  1807.53  1825.85  1850.45  1855.30
                             1869.92  1896.73  1927.20  1929.82  1945.54
                             1988.68  1993.14  2024.15  2107.95  2114.22
                             2172.17  2179.69  2198.16  2211.94  2260.33
                             2322.44  2354.18  2368.01  2373.48  2433.15
                             4368.71  4408.89  4452.82  4473.40  4548.52
                             4571.12  4586.58  4614.35  4623.16  4639.05
                             4653.34  5071.54  5399.44

 Zero-point correction=                           0.258718 (Hartree/Particle)
 Thermal correction to Energy=                    0.274832
 Thermal correction to Enthalpy=                  0.275776
 Thermal correction to Gibbs Free Energy=         0.213145
 Sum of electronic and zero-point Energies=           -930.945835
 Sum of electronic and thermal Energies=              -930.929721
 Sum of electronic and thermal Enthalpies=            -930.928777
 Sum of electronic and thermal Free Energies=         -930.991407

                     E (Thermal)             CV                S
                      KCal/Mol        Cal/Mol-Kelvin    Cal/Mol-Kelvin
 Total                  172.460             63.446            131.817
 Electronic               0.000              0.000              0.000
 Translational            0.889              2.981             42.691
 Rotational               0.889              2.981             33.908
 Vibrational            170.682             57.484             55.219
 Vibration     1          0.593              1.986              7.041
 Vibration     2          0.594              1.983              5.677
 Vibration     3          0.595              1.979              5.035
 Vibration     4          0.599              1.966              4.029
 Vibration     5          0.604              1.949              3.441
 Vibration     6          0.619              1.901              2.654
 Vibration     7          0.621              1.893              2.568
 Vibration     8          0.625              1.880              2.438
 Vibration     9          0.640              1.831              2.079
 Vibration    10          0.655              1.787              1.839
 Vibration    11          0.662              1.766              1.746
 Vibration    12          0.699              1.656              1.366
 Vibration    13          0.724              1.584              1.185
 Vibration    14          0.733              1.559              1.132
 Vibration    15          0.753              1.504              1.022
 Vibration    16          0.780              1.434              0.904
 Vibration    17          0.789              1.410              0.867
 Vibration    18          0.792              1.403              0.855
 Vibration    19          0.812              1.354              0.786
 Vibration    20          0.835              1.298              0.714
 Vibration    21          0.874              1.209              0.613
 Vibration    22          0.888              1.177              0.580
 Vibration    23          0.899              1.153              0.557
 Vibration    24          0.919              1.110              0.517
 Vibration    25          0.948              1.052              0.466

 Optimization completed.
    -- Stationary point found.
 Normal termination of Gaussian 16 at Sat Dec 12 17:06:45 2020.

 ----------------------------------------------------------------------
 # B3LYP/6-311++G(d,p) empiricaldispersion=gd3bj scf=xqc pop=npa geom=c
 heck
 ----------------------------------------------------------------------

 ----------------------------------------
 CID_102773360_JID_10955_Energie_neutraal
 ----------------------------------------
 Structure from the checkpoint file:  "JID_10955.chk"
 Charge =  0 Multiplicity = 1

 SCF Done:  E(RB3LYP) =  -931.464714232     A.U. after   17 cycles
 Normal termination of Gaussian 16 at Sat Dec 12 17:15:15 2020.

 ----------------------------------------------------------------------
 # B3LYP/6-311++G(d,p) empiricaldispersion=gd3bj scf=xqc pop=npa geom=c
 heck
 ----------------------------------------------------------------------

 --------------------------------------
 CID_102773360_JID_10955_Energie_kation
 --------------------------------------
 Structure from the checkpoint file:  "JID_10955.chk"
 Charge =  1 Multiplicity = 2

 SCF Done:  E(UB3LYP) =  -931.184935756     A.U. after   27 cycles
 Normal termination of Gaussian 16 at Sat Dec 12 17:34:39 2020.
 Gaussian 16:  ES64L-G16RevA.03 25-Dec-2016

 ----------------------------------------------------------------------
 # B3LYP/6-311++G(d,p) empiricaldispersion=gd3bj scf=xqc pop=npa geom=c
 heck
 ----------------------------------------------------------------------

 -------------------------------------
 CID_102773360_JID_10955_Energie_anion
 -------------------------------------
 Structure from the checkpoint file:  "JID_10955.chk"
 Charge = -1 Multiplicity = 2

                         Standard orientation:
 ---------------------------------------------------------------------
 Center     Atomic      Atomic             Coordinates (Angstroms)
 Number     Number       Type             X           Y           Z
 ---------------------------------------------------------------------
      1          6           0       -1.950724    2.001254    0.654755
      2          6           0       -3.327348    1.839697   -0.040609
      3          6           0       -3.439443    0.343111   -0.219892
      4          6           0       -2.179051   -0.253944   -0.087868
      5          6           0       -1.112821    0.799387    0.166662
      6          7           0       -0.081422    0.359173    1.112864
      7          6           0        1.124591   -0.171879    0.642905
      8          6           0        2.141179    0.550246   -0.024769
      9          6           0        3.341124   -0.062069   -0.420515
     10          6           0        3.577606   -1.395468   -0.137240
     11          6           0        2.602424   -2.130668    0.554077
     12          6           0        1.415169   -1.526994    0.919095
     13          8           0        4.722966   -2.048019   -0.497217
     14          7           0        2.062015    1.985439   -0.277084
     15          8           0        3.080258    2.555851   -0.683245
     16          8           0        1.000158    2.573948   -0.057069
     17          7           0       -1.939300   -1.563190   -0.145640
     18          6           0       -3.007842   -2.346035   -0.373203
     19          6           0       -4.304670   -1.857328   -0.542171
     20          6           0       -4.533295   -0.479441   -0.459826
     21          1           0       -1.459966    2.953104    0.450011
     22          1           0       -2.073780    1.912484    1.740978
     23          1           0       -3.328831    2.342932   -1.017707
     24          1           0       -4.153400    2.266691    0.537982
     25          1           0       -0.619960    1.050904   -0.775405
     26          1           0       -0.498383   -0.302046    1.761876
     27          1           0        4.076927    0.550861   -0.927253
     28          1           0        2.785639   -3.178193    0.769391
     29          1           0        0.640362   -2.117054    1.397754
     30          1           0        5.309182   -1.425568   -0.954864
     31          1           0       -2.815432   -3.416136   -0.416001
     32          1           0       -5.123453   -2.547754   -0.719729
     33          1           0       -5.536401   -0.073633   -0.566167
 ---------------------------------------------------------------------

 SCF Done:  E(UB3LYP) =  -931.495975351     A.U. after   25 cycles

 The electronic state is 2-A.
 Alpha  occ. eigenvalues --  -19.03589 -18.93881 -18.93868 -14.31835 -14.21405
 Alpha  occ. eigenvalues --  -14.18734 -10.11727 -10.10613 -10.10233 -10.09788
 Alpha  occ. eigenvalues --  -10.09497 -10.09233 -10.09002 -10.08590 -10.07293
 Alpha  occ. eigenvalues --  -10.06394 -10.06082 -10.03735 -10.03080 -10.02866
 Alpha  occ. eigenvalues --   -1.02007  -0.94446  -0.85606  -0.84709  -0.80413
 Alpha  occ. eigenvalues --   -0.74345  -0.71780  -0.70101  -0.63843  -0.63465
 Alpha  occ. eigenvalues --   -0.61515  -0.57878  -0.53897  -0.53616  -0.50962
 Alpha  occ. eigenvalues --   -0.49465  -0.48214  -0.44497  -0.42258  -0.40884
 Alpha  occ. eigenvalues --   -0.40358  -0.39638  -0.37207  -0.35860  -0.35068
 Alpha  occ. eigenvalues --   -0.34317  -0.33891  -0.33564  -0.31824  -0.30816
 Alpha  occ. eigenvalues --   -0.30537  -0.29996  -0.29868  -0.28803  -0.28539
 Alpha  occ. eigenvalues --   -0.27118  -0.26564  -0.25798  -0.25195  -0.23621
 Alpha  occ. eigenvalues --   -0.22542  -0.21059  -0.19928  -0.16794  -0.16212
 Alpha  occ. eigenvalues --   -0.14559  -0.13235  -0.12441  -0.11937  -0.09569
 Alpha  occ. eigenvalues --   -0.07305   0.03035
 Alpha virt. eigenvalues --    0.05001   0.05983   0.07351   0.07602   0.08633
 Alpha virt. eigenvalues --    0.08814   0.09878   0.10034   0.10912   0.11363
 Alpha virt. eigenvalues --    0.12544   0.13039   0.13166   0.13358   0.14027

  Beta  occ. eigenvalues --  -19.03609 -18.93468 -18.93324 -14.31202 -14.21351
  Beta  occ. eigenvalues --  -14.18706 -10.11731 -10.10594 -10.10196 -10.09883
  Beta  occ. eigenvalues --  -10.09484 -10.09239 -10.08981 -10.08589 -10.07161
  Beta  occ. eigenvalues --  -10.06362 -10.06085 -10.03763 -10.02831 -10.02673
  Beta  occ. eigenvalues --   -1.00957  -0.94490  -0.85529  -0.83819  -0.80293
  Beta  occ. eigenvalues --   -0.74288  -0.71603  -0.69982  -0.63439  -0.63306
  Beta  occ. eigenvalues --   -0.61380  -0.57740  -0.53817  -0.52838  -0.50933
  Beta  occ. eigenvalues --   -0.49355  -0.48103  -0.44269  -0.42202  -0.40785
  Beta  occ. eigenvalues --   -0.40007  -0.39491  -0.37146  -0.35798  -0.34500
  Beta  occ. eigenvalues --   -0.33708  -0.33557  -0.31675  -0.31565  -0.30550
  Beta  occ. eigenvalues --   -0.30256  -0.29844  -0.29750  -0.28645  -0.28414
  Beta  occ. eigenvalues --   -0.27003  -0.26476  -0.25778  -0.25102  -0.23575
  Beta  occ. eigenvalues --   -0.22412  -0.20555  -0.19687  -0.16697  -0.16082
  Beta  occ. eigenvalues --   -0.14073  -0.11749  -0.11319  -0.09786  -0.09058
  Beta  occ. eigenvalues --   -0.06688
  Beta virt. eigenvalues --    0.05350   0.05960   0.07385   0.07574   0.08599
  Beta virt. eigenvalues --    0.08784   0.09694   0.09874   0.10098   0.10922
  Beta virt. eigenvalues --    0.11341   0.12580   0.13116   0.13297   0.13615

 Mulliken charges and spin densities:
               1          2
     1  C   -0.244547   0.028431
     2  C   -0.530573  -0.020852
     3  C    1.917700  -0.010287
     4  C   -1.941751   0.009425
     5  C   -0.637601  -0.004999
     6  N    0.388074   0.004281
     7  C   -0.328513   0.109660
     8  C    0.083601  -0.051331
     9  C    0.110217   0.213729
    10  C   -0.609259  -0.070007
    11  C   -0.235263   0.196445
    12  C    0.326420  -0.022247
    13  O   -0.271366  -0.002082
    14  N   -0.363464   0.206394
    15  O   -0.173398   0.161295
    16  O   -0.123789   0.205963
    17  N    0.118196   0.028314
    18  C    0.099611   0.001653
    19  C    0.011233   0.011641
    20  C   -0.801279   0.017629
    21  H    0.224144  -0.003702
    22  H    0.126236   0.003712
    23  H    0.155556   0.000642
    24  H    0.143089   0.003552
    25  H    0.187222   0.013586
    26  H    0.199478  -0.000988
    27  H    0.211911  -0.011592
    28  H    0.147448  -0.015810
    29  H    0.103144   0.001165
    30  H    0.248205  -0.000177
    31  H    0.173903   0.000060
    32  H    0.148200  -0.000737
    33  H    0.137213  -0.002766
 Sum of Mulliken charges =  -1.00000   1.00000

 Dipole moment (field-independent basis, Debye):
    X=             -9.2785    Y=             -4.7031    Z=              0.2164  Tot=             10.4046
 Quadrupole moment (field-independent basis, Debye-Ang):
   XX=           -146.2671   YY=           -153.6882   ZZ=           -123.7098
   XY=            -10.3101   XZ=             -1.0305   YZ=              1.8131

 Summary of Natural Population Analysis:

                                       Natural Population
                Natural  -----------------------------------------------
    Atom  No    Charge         Core      Valence    Rydberg      Total
 -----------------------------------------------------------------------
      C    1   -0.18326      0.99963     2.17543    0.00820     3.18326
      C    2   -0.19955      0.99962     2.19367    0.00626     3.19955
      C    3   -0.03214      0.99946     2.02466    0.00802     3.03214
      C    4    0.11602      0.99944     1.87100    0.01353     2.88398
      C    5   -0.01989      0.99952     2.00817    0.01220     3.01989
      N    6   -0.30676      0.99968     2.79338    0.01370     3.80676
      C    7    0.09978      0.99945     1.88982    0.01095     2.90022
      C    8    0.03910      0.99939     1.94902    0.01249     2.96090
      C    9   -0.09828      0.99949     2.08915    0.00963     3.09828
      C   10    0.12308      0.99937     1.86541    0.01213     2.87692
      C   11   -0.07446      0.99953     2.06578    0.00914     3.07446
      C   12   -0.11791      0.99955     2.11024    0.00812     3.11791
      O   13   -0.35234      0.99988     3.34611    0.00635     4.35234
      N   14    0.30447      0.99971     2.16720    0.02862     3.19553
      O   15   -0.20996      0.99990     3.20243    0.00763     4.20996
      O   16   -0.18751      0.99990     3.17898    0.00864     4.18751
      N   17   -0.22209      0.99968     2.71159    0.01083     3.72209
      C   18    0.01977      0.99960     1.96631    0.01432     2.98023
      C   19   -0.12886      0.99958     2.12081    0.00847     3.12886
      C   20   -0.08173      0.99952     2.07338    0.00883     3.08173
      H   21    0.11636      0.00000     0.38261    0.00104     0.38364
      H   22    0.09374      0.00000     0.40516    0.00110     0.40626
      H   23    0.10165      0.00000     0.39718    0.00117     0.39835
      H   24    0.09801      0.00000     0.40086    0.00113     0.40199
      H   25    0.11830      0.00000     0.37940    0.00230     0.38170
      H   26    0.17284      0.00000     0.32507    0.00209     0.32716
      H   27    0.11224      0.00000     0.38624    0.00151     0.38776
      H   28    0.09349      0.00000     0.40491    0.00160     0.40651
      H   29    0.09472      0.00000     0.40356    0.00171     0.40528
      H   30    0.22951      0.00000     0.26803    0.00246     0.27049
      H   31    0.08728      0.00000     0.41156    0.00116     0.41272
      H   32    0.09800      0.00000     0.40090    0.00110     0.40200
      H   33    0.09635      0.00000     0.40216    0.00149     0.40365
 =======================================================================
   * Total *    0.00000     19.99187    50.77021    0.23792    71.00000

 Normal termination of Gaussian 16 at Sat Dec 12 17:52:29 2020.
