 Gaussian 16, Revision A.03,

 -----------------------------------------------------------
 # opt freq B3LYP/6-31G(d) empiricaldispersion=gd3bj scf=xqc
 -----------------------------------------------------------

 -------------------------------
 CID_131617926_JID_5500_neutraal
 -------------------------------
 Symbolic Z-matrix:
 Charge =  0 Multiplicity = 1

 SCF Done:  E(RB3LYP) =  -992.077188914     A.U. after   16 cycles
 SCF Done:  E(RB3LYP) =  -992.103012394     A.U. after   13 cycles
 SCF Done:  E(RB3LYP) =  -992.105215970     A.U. after   13 cycles
 SCF Done:  E(RB3LYP) =  -992.106467074     A.U. after   13 cycles
 SCF Done:  E(RB3LYP) =  -992.107446946     A.U. after   15 cycles
 SCF Done:  E(RB3LYP) =  -992.107966273     A.U. after   12 cycles
 SCF Done:  E(RB3LYP) =  -992.105592829     A.U. after   15 cycles
 SCF Done:  E(RB3LYP) =  -992.108108060     A.U. after   13 cycles
 SCF Done:  E(RB3LYP) =  -992.108551655     A.U. after   12 cycles
 SCF Done:  E(RB3LYP) =  -992.108609984     A.U. after   11 cycles
 SCF Done:  E(RB3LYP) =  -992.108649609     A.U. after   11 cycles
 SCF Done:  E(RB3LYP) =  -992.108656691     A.U. after   11 cycles
 SCF Done:  E(RB3LYP) =  -992.108657198     A.U. after    8 cycles
 SCF Done:  E(RB3LYP) =  -992.108657305     A.U. after    8 cycles
 Optimization completed.
    -- Stationary point found.
 Normal termination of Gaussian 16 at Thu Dec 10 16:23:54 2020.

 --------------------------------------------------------------------
 #N Geom=AllCheck Guess=TCheck SCRF=Check GenChk RB3LYP/6-31G(d) Freq
 --------------------------------------------------------------------

 Structure from the checkpoint file:  "JID_5500.chk"
 -------------------------------
 CID_131617926_JID_5500_neutraal
 -------------------------------
 Charge =  0 Multiplicity = 1

 SCF Done:  E(RB3LYP) =  -992.108657304     A.U. after    1 cycles

  Exact polarizability: 198.215   4.862 155.803   5.771  -5.910  80.751
 Approx polarizability: 307.263  19.297 272.417  10.118 -14.105 136.804

                      1                      2                      3
                      A                      A                      A
 Frequencies --     41.8426                67.5207                94.7515
 Red. masses --      7.3040                 5.0267                 4.6132
 Frc consts  --      0.0075                 0.0135                 0.0244
 IR Inten    --      3.7969                 1.2318                 1.4664

                      4                      5                      6
                      A                      A                      A
 Frequencies --    119.0865               140.9223               191.8284
 Red. masses --      4.7088                 4.4223                 5.6331
 Frc consts  --      0.0393                 0.0517                 0.1221
 IR Inten    --      2.7963                 2.6324                 2.4710

                      7                      8                      9
                      A                      A                      A
 Frequencies --    209.9709               220.2737               254.0292
 Red. masses --      3.3664                 1.1999                 3.2490
 Frc consts  --      0.0874                 0.0343                 0.1235
 IR Inten    --      7.9281                 3.8561                 4.6700

                     10                     11                     12
                      A                      A                      A
 Frequencies --    284.5126               326.3128               330.6765
 Red. masses --      1.2521                 4.5126                 5.0681
 Frc consts  --      0.0597                 0.2831                 0.3265
 IR Inten    --     87.6129                 1.1895                 0.4931

                     13                     14                     15
                      A                      A                      A
 Frequencies --    368.5639               380.3792               392.3069
 Red. masses --      3.1790                 4.9607                 2.3953
 Frc consts  --      0.2544                 0.4229                 0.2172
 IR Inten    --      1.9752                 6.9582                 0.2063

                     16                     17                     18
                      A                      A                      A
 Frequencies --    407.0106               452.3316               468.0580
 Red. masses --      7.1406                 4.6258                 6.7421
 Frc consts  --      0.6969                 0.5576                 0.8702
 IR Inten    --      1.3444                 1.9572                 2.6506

                     19                     20                     21
                      A                      A                      A
 Frequencies --    502.8258               551.5189               597.3273
 Red. masses --      4.3451                 4.7174                 3.7132
 Frc consts  --      0.6473                 0.8454                 0.7806
 IR Inten    --      0.2568                 2.2215                 1.7272

                     22                     23                     24
                      A                      A                      A
 Frequencies --    624.2935               662.9525               690.2199
 Red. masses --      6.0683                 2.4310                 5.6976
 Frc consts  --      1.3935                 0.6295                 1.5992
 IR Inten    --      1.2086                15.3383                 4.4454

                     25                     26                     27
                      A                      A                      A
 Frequencies --    723.3029               734.1685               764.5924
 Red. masses --      5.8950                 2.8487                 2.4970
 Frc consts  --      1.8171                 0.9047                 0.8601
 IR Inten    --      4.4130                15.0684                14.6542

                     28                     29                     30
                      A                      A                      A
 Frequencies --    788.5748               811.2670               841.6440
 Red. masses --      2.3277                 1.5829                 4.1400
 Frc consts  --      0.8528                 0.6138                 1.7278
 IR Inten    --      4.1265                13.0578                21.8922

                     31                     32                     33
                      A                      A                      A
 Frequencies --    873.1428               903.9872               938.2583
 Red. masses --      1.3823                 1.3535                 4.8679
 Frc consts  --      0.6209                 0.6517                 2.5249
 IR Inten    --     16.8851                 6.2021                 3.6622

                     34                     35                     36
                      A                      A                      A
 Frequencies --    952.3325               988.9076              1015.4863
 Red. masses --      2.1785                 2.2247                 3.1045
 Frc consts  --      1.1641                 1.2818                 1.8862
 IR Inten    --      1.2715                 3.4137                 0.0867

                     37                     38                     39
                      A                      A                      A
 Frequencies --   1058.3355              1094.2548              1121.9824
 Red. masses --      2.8660                 1.8433                 1.2871
 Frc consts  --      1.8914                 1.3004                 0.9546
 IR Inten    --      5.5051                 8.0963                 9.4675

                     40                     41                     42
                      A                      A                      A
 Frequencies --   1138.8951              1187.4032              1192.6518
 Red. masses --      1.7495                 2.6888                 1.4668
 Frc consts  --      1.3370                 2.2336                 1.2292
 IR Inten    --     13.7466                22.1282                78.1780

                     43                     44                     45
                      A                      A                      A
 Frequencies --   1243.0867              1267.6092              1297.1691
 Red. masses --      1.1766                 1.7420                 1.3013
 Frc consts  --      1.0712                 1.6492                 1.2901
 IR Inten    --      1.2334                90.6916                34.8644

                     46                     47                     48
                      A                      A                      A
 Frequencies --   1318.7731              1346.9136              1363.9743
 Red. masses --      2.1139                 1.4771                 1.5717
 Frc consts  --      2.1660                 1.5788                 1.7228
 IR Inten    --     22.4288                 0.8041                 4.2556

                     49                     50                     51
                      A                      A                      A
 Frequencies --   1377.0782              1403.1861              1445.9920
 Red. masses --      3.8045                 3.0013                 1.2057
 Frc consts  --      4.2508                 3.4817                 1.4853
 IR Inten    --      4.3326                62.2342                 2.4463

                     52                     53                     54
                      A                      A                      A
 Frequencies --   1460.3108              1498.4685              1505.2874
 Red. masses --      4.2681                 1.3315                 2.5207
 Frc consts  --      5.3626                 1.7615                 3.3651
 IR Inten    --     74.4517                 8.9099                11.5809

                     55                     56                     57
                      A                      A                      A
 Frequencies --   1527.7101              1536.9806              1553.3466
 Red. masses --      1.0450                 1.0701                 1.1319
 Frc consts  --      1.4370                 1.4894                 1.6091
 IR Inten    --      3.5313                 4.0121                10.1604

                     58                     59                     60
                      A                      A                      A
 Frequencies --   1562.8761              1623.0098              1671.3456
 Red. masses --      5.5567                 6.6496                 6.8524
 Frc consts  --      7.9968                10.3202                11.2778
 IR Inten    --     12.8866                42.0326                23.9144

                     61                     62                     63
                      A                      A                      A
 Frequencies --   2370.0511              3003.4962              3058.7001
 Red. masses --     12.5914                 1.0754                 1.0373
 Frc consts  --     41.6717                 5.7156                 5.7180
 IR Inten    --      9.6288                43.2153                32.5949

                     64                     65                     66
                      A                      A                      A
 Frequencies --   3064.7143              3103.8211              3110.0614
 Red. masses --      1.0622                 1.0986                 1.0915
 Frc consts  --      5.8783                 6.2355                 6.2204
 IR Inten    --      3.1685                 3.3164                 3.1283

                     67                     68                     69
                      A                      A                      A
 Frequencies --   3126.7283              3154.5593              3217.3913
 Red. masses --      1.0980                 1.1010                 1.0912
 Frc consts  --      6.3246                 6.4555                 6.6555
 IR Inten    --     46.8893                 9.1191                 3.6012

                     70                     71                     72
                      A                      A                      A
 Frequencies --   3225.3962              3268.8384              3785.4788
 Red. masses --      1.0908                 1.0976                 1.0652
 Frc consts  --      6.6857                 6.9100                 8.9931
 IR Inten    --      6.3041                 1.2328                53.9172

 - Thermochemistry -
 -------------------
 Temperature   298.150 Kelvin.  Pressure   1.00000 Atm.
 Atom     1 has atomic number  6 and mass  12.00000

 Molecular mass:   217.05614 amu.
 Principal axes and moments of inertia in atomic units:
                           1         2         3
     Eigenvalues --  2407.312133702.243855712.40525
           X            0.99999   0.00004   0.00456
           Y            0.00003   0.99989  -0.01450
           Z           -0.00456   0.01450   0.99988
 This molecule is an asymmetric top.
 Rotational symmetry number  1.
 Warning -- assumption of classical behavior for rotation
           may cause significant error
 Rotational temperatures (Kelvin)      0.03598     0.02339     0.01516
 Rotational constants (GHZ):           0.74969     0.48747     0.31593
 Zero-point vibrational energy     532344.5 (Joules/Mol)
                                  127.23340 (Kcal/Mol)
 Warning -- explicit consideration of  21 degrees of freedom as
           vibrations may cause significant error
 Vibrational temperatures:     60.20    97.15   136.33   171.34   202.76
          (Kelvin)            276.00   302.10   316.92   365.49   409.35
                              469.49   475.77   530.28   547.28   564.44
                              585.60   650.80   673.43   723.45   793.51
                              859.42   898.22   953.84   993.07  1040.67
                             1056.30  1100.08  1134.58  1167.23  1210.94
                             1256.26  1300.64  1349.94  1370.19  1422.82
                             1461.06  1522.71  1574.39  1614.28  1638.62
                             1708.41  1715.96  1788.52  1823.81  1866.34
                             1897.42  1937.91  1962.45  1981.31  2018.87
                             2080.46  2101.06  2155.96  2165.77  2198.03
                             2211.37  2234.92  2248.63  2335.15  2404.69
                             3409.97  4321.36  4400.79  4409.44  4465.71
                             4474.68  4498.66  4538.71  4629.11  4640.63
                             4703.13  5446.46

 Zero-point correction=                           0.202759 (Hartree/Particle)
 Thermal correction to Energy=                    0.216504
 Thermal correction to Enthalpy=                  0.217448
 Thermal correction to Gibbs Free Energy=         0.162248
 Sum of electronic and zero-point Energies=           -991.905898
 Sum of electronic and thermal Energies=              -991.892153
 Sum of electronic and thermal Enthalpies=            -991.891209
 Sum of electronic and thermal Free Energies=         -991.946409

                     E (Thermal)             CV                S
                      KCal/Mol        Cal/Mol-Kelvin    Cal/Mol-Kelvin
 Total                  135.858             52.828            116.179
 Electronic               0.000              0.000              0.000
 Translational            0.889              2.981             42.028
 Rotational               0.889              2.981             32.299
 Vibrational            134.081             46.866             41.852
 Vibration     1          0.594              1.980              5.170
 Vibration     2          0.598              1.970              4.224
 Vibration     3          0.603              1.953              3.560
 Vibration     4          0.609              1.933              3.115
 Vibration     5          0.615              1.912              2.791
 Vibration     6          0.634              1.851              2.210
 Vibration     7          0.642              1.826              2.044
 Vibration     8          0.647              1.810              1.957
 Vibration     9          0.665              1.756              1.702
 Vibration    10          0.683              1.702              1.506
 Vibration    11          0.710              1.623              1.278
 Vibration    12          0.713              1.614              1.257
 Vibration    13          0.741              1.537              1.086
 Vibration    14          0.750              1.512              1.038
 Vibration    15          0.760              1.487              0.991
 Vibration    16          0.772              1.455              0.937
 Vibration    17          0.811              1.356              0.789
 Vibration    18          0.825              1.321              0.743
 Vibration    19          0.858              1.244              0.651
 Vibration    20          0.907              1.136              0.541
 Vibration    21          0.955              1.037              0.454

                           ! Non-Optimized Parameters !
 Normal termination of Gaussian 16 at Thu Dec 10 16:32:56 2020.

 ----------------------------------------------------------------------
 # B3LYP/6-311++G(d,p) empiricaldispersion=gd3bj scf=xqc pop=npa geom=c
 heck
 ----------------------------------------------------------------------

 ---------------------------------------
 CID_131617926_JID_5500_Energie_neutraal
 ---------------------------------------
 Structure from the checkpoint file:  "JID_5500.chk"
 Charge =  0 Multiplicity = 1

 SCF Done:  E(RB3LYP) =  -992.297526512     A.U. after   16 cycles
 Normal termination of Gaussian 16 at Thu Dec 10 16:37:55 2020.

 ----------------------------------------------------------------------
 # B3LYP/6-311++G(d,p) empiricaldispersion=gd3bj scf=xqc pop=npa geom=c
 heck
 ----------------------------------------------------------------------

 -------------------------------------
 CID_131617926_JID_5500_Energie_kation
 -------------------------------------
 Structure from the checkpoint file:  "JID_5500.chk"
 Charge =  1 Multiplicity = 2

 SCF Done:  E(UB3LYP) =  -992.007049500     A.U. after   25 cycles
 Normal termination of Gaussian 16 at Thu Dec 10 16:48:19 2020.
 Gaussian 16:  ES64L-G16RevA.03 25-Dec-2016

 ----------------------------------------------------------------------
 # B3LYP/6-311++G(d,p) empiricaldispersion=gd3bj scf=xqc pop=npa geom=c
 heck
 ----------------------------------------------------------------------

 ------------------------------------
 CID_131617926_JID_5500_Energie_anion
 ------------------------------------
 Structure from the checkpoint file:  "JID_5500.chk"
 Charge = -1 Multiplicity = 2

                         Standard orientation:
 ---------------------------------------------------------------------
 Center     Atomic      Atomic             Coordinates (Angstroms)
 Number     Number       Type             X           Y           Z
 ---------------------------------------------------------------------
      1          6           0       -3.461079   -0.234726    0.654981
      2          6           0       -2.637554   -0.280514   -0.647506
      3          6           0       -1.164804   -0.543913   -0.409156
      4          6           0       -0.749647   -1.859371   -0.077429
      5          6           0        0.575361   -2.166818    0.198118
      6          6           0        1.537686   -1.152006    0.160042
      7          6           0        2.953358   -1.234517    0.413986
      8          6           0        3.584398   -0.039996    0.287365
      9         16           0        2.506563    1.270069   -0.145806
     10          6           0        1.133105    0.164143   -0.168489
     11          6           0       -0.200366    0.472831   -0.460195
     12          6           0       -0.570117    1.903043   -0.828726
     13          6           0       -1.339215    2.580189    0.221051
     14          7           0       -1.962939    3.089710    1.056668
     15          8           0       -1.636339   -2.901517   -0.012993
     16          1           0       -3.351074   -1.158933    1.233043
     17          1           0       -4.524523   -0.093154    0.434571
     18          1           0       -3.128727    0.593581    1.285381
     19          1           0       -3.047979   -1.046879   -1.323825
     20          1           0       -2.777366    0.661311   -1.183853
     21          1           0        0.839874   -3.190035    0.443105
     22          1           0        3.459158   -2.155802    0.680433
     23          1           0        4.636095    0.171676    0.426893
     24          1           0        0.333134    2.490105   -1.024363
     25          1           0       -1.155230    1.930904   -1.755427
     26          1           0       -2.523842   -2.589787   -0.240035
 ---------------------------------------------------------------------

 SCF Done:  E(UB3LYP) =  -992.295073413     A.U. after   33 cycles
 SCF Done:  E(UB3LYP) =  -992.295073413     a.u. after    1 cycles

 The electronic state is 2-A.
 Alpha  occ. eigenvalues --  -88.74974 -19.03282 -14.20841 -10.11684 -10.11008
 Alpha  occ. eigenvalues --  -10.10821 -10.07919 -10.06878 -10.06827 -10.06587
 Alpha  occ. eigenvalues --  -10.05302 -10.05125 -10.04981 -10.04642 -10.03595
 Alpha  occ. eigenvalues --   -7.83614  -5.79930  -5.79579  -5.79151  -0.94346
 Alpha  occ. eigenvalues --   -0.80738  -0.76910  -0.72093  -0.68274  -0.66345
 Alpha  occ. eigenvalues --   -0.62359  -0.59370  -0.58322  -0.52181  -0.48403
 Alpha  occ. eigenvalues --   -0.47318  -0.44538  -0.42724  -0.40587  -0.37599
 Alpha  occ. eigenvalues --   -0.36264  -0.34320  -0.33990  -0.32645  -0.31124
 Alpha  occ. eigenvalues --   -0.30135  -0.28667  -0.27876  -0.26972  -0.26435
 Alpha  occ. eigenvalues --   -0.26384  -0.26030  -0.25009  -0.23940  -0.23347
 Alpha  occ. eigenvalues --   -0.22675  -0.22085  -0.20925  -0.18796  -0.16141
 Alpha  occ. eigenvalues --   -0.10526  -0.09498   0.04706
 Alpha virt. eigenvalues --    0.07176   0.08060   0.08762   0.09542   0.09890
 Alpha virt. eigenvalues --    0.10129   0.10792   0.11387   0.12240   0.12546
 Alpha virt. eigenvalues --    0.13036   0.13155   0.13288   0.14341   0.14461

  Beta  occ. eigenvalues --  -88.74960 -19.03272 -14.20828 -10.11692 -10.10989
  Beta  occ. eigenvalues --  -10.10889 -10.07969 -10.06670 -10.06593 -10.06569
  Beta  occ. eigenvalues --  -10.05194 -10.05108 -10.04748 -10.04575 -10.03401
  Beta  occ. eigenvalues --   -7.83602  -5.79927  -5.79577  -5.79099  -0.94325
  Beta  occ. eigenvalues --   -0.80699  -0.76691  -0.71801  -0.68084  -0.66137
  Beta  occ. eigenvalues --   -0.62185  -0.59103  -0.58074  -0.51960  -0.48136
  Beta  occ. eigenvalues --   -0.47200  -0.44249  -0.42648  -0.40466  -0.37442
  Beta  occ. eigenvalues --   -0.36137  -0.34135  -0.33934  -0.32524  -0.31035
  Beta  occ. eigenvalues --   -0.29905  -0.28489  -0.27715  -0.26900  -0.26372
  Beta  occ. eigenvalues --   -0.26136  -0.25801  -0.24914  -0.23821  -0.23273
  Beta  occ. eigenvalues --   -0.22622  -0.21991  -0.20823  -0.17961  -0.15411
  Beta  occ. eigenvalues --   -0.09354  -0.08783
  Beta virt. eigenvalues --    0.07647   0.08099   0.08567   0.09453   0.09886
  Beta virt. eigenvalues --    0.10209   0.10398   0.11116   0.11628   0.12306
  Beta virt. eigenvalues --    0.12616   0.13080   0.13147   0.13447   0.14397

 Mulliken charges and spin densities:
               1          2
     1  C    0.631518  -1.226344
     2  C   -0.774183   0.432732
     3  C    0.459605   0.647406
     4  C   -0.485574  -0.438083
     5  C   -0.508434  -0.229668
     6  C    0.949365  -0.076488
     7  C    0.382500  -0.100587
     8  C   -0.211162   0.234258
     9  S   -0.783288   0.029170
    10  C   -0.080932  -0.034635
    11  C   -0.005957   0.068815
    12  C    0.351438   0.002790
    13  C   -0.255522  -0.140718
    14  N   -0.347619   0.026606
    15  O   -0.285166   0.035561
    16  H    0.056265   0.061867
    17  H   -0.479134   0.619176
    18  H    0.075982   0.069472
    19  H   -0.487323   0.647953
    20  H   -0.007327   0.137318
    21  H    0.097692   0.010913
    22  H    0.112233  -0.004655
    23  H    0.195693  -0.013714
    24  H    0.174139  -0.009843
    25  H    0.195136   0.001268
    26  H    0.030056   0.249429
 Sum of Mulliken charges =  -1.00000   1.00000

 Dipole moment (field-independent basis, Debye):
    X=              5.7127    Y=              1.2163    Z=             -1.5842  Tot=              6.0518
 Quadrupole moment (field-independent basis, Debye-Ang):
   XX=           -154.4380   YY=           -130.5281   ZZ=           -112.9996
   XY=             -2.4601   XZ=              2.1219   YZ=            -11.1179

 Summary of Natural Population Analysis:

                                       Natural Population
                Natural  -----------------------------------------------
    Atom  No    Charge         Core      Valence    Rydberg      Total
 -----------------------------------------------------------------------
      C    1   -0.28329      0.99965     2.27755    0.00609     3.28329
      C    2   -0.20955      0.99962     2.19923    0.01070     3.20955
      C    3   -0.00445      0.99943     1.99564    0.00938     3.00445
      C    4    0.15023      0.99935     1.83643    0.01399     2.84977
      C    5   -0.08175      0.99948     2.07436    0.00790     3.08175
      C    6   -0.02349      0.99947     2.01534    0.00868     3.02349
      C    7   -0.12674      0.99950     2.11791    0.00933     3.12674
      C    8   -0.12471      0.99953     2.11451    0.01067     3.12471
      S    9    0.15858      4.99947     2.82084    0.02111     7.84142
      C   10   -0.09863      0.99935     2.08923    0.01005     3.09863
      C   11   -0.00277      0.99939     1.99252    0.01086     3.00277
      C   12   -0.25089      0.99952     2.24352    0.00784     3.25089
      C   13    0.16753      0.99965     1.81533    0.01748     2.83247
      N   14   -0.19142      0.99979     2.68090    0.01073     3.69142
      O   15   -0.35008      0.99988     3.34356    0.00665     4.35008
      H   16    0.09383      0.00000     0.40503    0.00114     0.40617
      H   17    0.09839      0.00000     0.39926    0.00235     0.40161
      H   18    0.10570      0.00000     0.39320    0.00110     0.39430
      H   19    0.09821      0.00000     0.39882    0.00297     0.40179
      H   20    0.10022      0.00000     0.39844    0.00135     0.39978
      H   21    0.09749      0.00000     0.40125    0.00125     0.40251
      H   22    0.09959      0.00000     0.39944    0.00097     0.40041
      H   23    0.09764      0.00000     0.40148    0.00088     0.40236
      H   24    0.12201      0.00000     0.37660    0.00139     0.37799
      H   25    0.12093      0.00000     0.37788    0.00119     0.37907
      H   26    0.23744      0.00000     0.25911    0.00345     0.26256
 =======================================================================
   * Total *    0.00000     18.99310    37.82741    0.17950    57.00000

 Normal termination of Gaussian 16 at Thu Dec 10 17:02:16 2020.
