 Gaussian 16, Revision A.03,

 -----------------------------------------------------------
 # opt freq B3LYP/6-31G(d) empiricaldispersion=gd3bj scf=xqc
 -----------------------------------------------------------

 -------------------------------
 CID_130557181_JID_6340_neutraal
 -------------------------------
 Symbolic Z-matrix:
 Charge =  0 Multiplicity = 1

 SCF Done:  E(RB3LYP) =  -708.242184210     A.U. after   14 cycles
 SCF Done:  E(RB3LYP) =  -708.243366442     A.U. after   13 cycles
 SCF Done:  E(RB3LYP) =  -708.241941977     A.U. after   14 cycles
 SCF Done:  E(RB3LYP) =  -708.247800234     A.U. after   13 cycles
 SCF Done:  E(RB3LYP) =  -708.248572115     A.U. after   14 cycles
 SCF Done:  E(RB3LYP) =  -708.250620989     A.U. after   13 cycles
 SCF Done:  E(RB3LYP) =  -708.250911109     A.U. after   12 cycles
 SCF Done:  E(RB3LYP) =  -708.251152177     A.U. after   12 cycles
 SCF Done:  E(RB3LYP) =  -708.251136868     A.U. after   12 cycles
 SCF Done:  E(RB3LYP) =  -708.251236020     A.U. after   11 cycles
 SCF Done:  E(RB3LYP) =  -708.251281925     A.U. after    9 cycles
 SCF Done:  E(RB3LYP) =  -708.251282561     A.U. after    8 cycles
 SCF Done:  E(RB3LYP) =  -708.251282871     A.U. after    7 cycles
 SCF Done:  E(RB3LYP) =  -708.251283075     A.U. after    8 cycles
 SCF Done:  E(RB3LYP) =  -708.251283148     A.U. after    7 cycles
 Optimization completed.
    -- Stationary point found.
 Normal termination of Gaussian 16 at Thu Dec 10 22:24:03 2020.

 --------------------------------------------------------------------
 #N Geom=AllCheck Guess=TCheck SCRF=Check GenChk RB3LYP/6-31G(d) Freq
 --------------------------------------------------------------------

 Structure from the checkpoint file:  "JID_6340.chk"
 -------------------------------
 CID_130557181_JID_6340_neutraal
 -------------------------------
 Charge =  0 Multiplicity = 1

 SCF Done:  E(RB3LYP) =  -708.251283148     A.U. after    1 cycles

  Exact polarizability: 141.248  14.756 153.552   1.340  -2.519 131.188
 Approx polarizability: 194.999  20.299 232.705   6.460  -7.368 221.223

                      1                      2                      3
                      A                      A                      A
 Frequencies --     23.9424                42.8455                58.7366
 Red. masses --      4.0810                 3.9045                 3.6449
 Frc consts  --      0.0014                 0.0042                 0.0074
 IR Inten    --      0.2877                 0.4403                 0.5581

                      4                      5                      6
                      A                      A                      A
 Frequencies --     59.4914                88.6881                96.7294
 Red. masses --      4.2595                 4.1407                 4.2416
 Frc consts  --      0.0089                 0.0192                 0.0234
 IR Inten    --      0.7138                 0.4416                 1.0495

                      7                      8                      9
                      A                      A                      A
 Frequencies --    138.0743               165.2315               221.9102
 Red. masses --      3.1515                 2.1670                 2.7858
 Frc consts  --      0.0354                 0.0349                 0.0808
 IR Inten    --      0.2013                 4.2953                 2.2261

                     10                     11                     12
                      A                      A                      A
 Frequencies --    232.8819               236.9202               271.5318
 Red. masses --      2.6719                 1.7253                 4.6958
 Frc consts  --      0.0854                 0.0571                 0.2040
 IR Inten    --      9.1923                 0.6394                 7.0757

                     13                     14                     15
                      A                      A                      A
 Frequencies --    297.5997               306.3902               352.0980
 Red. masses --      2.5326                 2.1834                 3.7519
 Frc consts  --      0.1322                 0.1208                 0.2740
 IR Inten    --      0.4655                 0.1874                 5.6711

                     16                     17                     18
                      A                      A                      A
 Frequencies --    403.7943               416.4895               422.9879
 Red. masses --      1.1561                 2.9638                 1.6432
 Frc consts  --      0.1111                 0.3029                 0.1732
 IR Inten    --     51.2498                 0.2886                10.9027

                     19                     20                     21
                      A                      A                      A
 Frequencies --    446.7455               460.4156               478.4429
 Red. masses --      1.4776                 3.1754                 3.1865
 Frc consts  --      0.1737                 0.3966                 0.4298
 IR Inten    --     85.6422                 3.0350                 3.5413

                     22                     23                     24
                      A                      A                      A
 Frequencies --    527.7615               562.1826               596.4841
 Red. masses --      3.0893                 4.0836                 2.2573
 Frc consts  --      0.5070                 0.7604                 0.4732
 IR Inten    --     10.9663                10.6996                21.9383

                     25                     26                     27
                      A                      A                      A
 Frequencies --    635.8406               656.0287               669.6501
 Red. masses --      6.1692                 2.1615                 1.8992
 Frc consts  --      1.4695                 0.5481                 0.5018
 IR Inten    --      0.5023                48.9919                84.1767

                     28                     29                     30
                      A                      A                      A
 Frequencies --    695.5773               716.3903               753.2150
 Red. masses --      2.3300                 2.1783                 1.6240
 Frc consts  --      0.6642                 0.6587                 0.5429
 IR Inten    --     39.5415                32.6048                48.4708

                     31                     32                     33
                      A                      A                      A
 Frequencies --    782.8070               799.9521               819.4131
 Red. masses --      2.5924                 1.6478                 3.9243
 Frc consts  --      0.9360                 0.6213                 1.5525
 IR Inten    --    188.2244                 8.3734                 2.5157

                     34                     35                     36
                      A                      A                      A
 Frequencies --    850.0629               868.6521               911.8490
 Red. masses --      1.6135                 1.2506                 2.0493
 Frc consts  --      0.6869                 0.5560                 1.0039
 IR Inten    --     11.2393                 0.5825                 5.1182

                     37                     38                     39
                      A                      A                      A
 Frequencies --    923.9628               940.0401               976.0087
 Red. masses --      1.5109                 2.0884                 1.3424
 Frc consts  --      0.7600                 1.0873                 0.7534
 IR Inten    --      0.6268                17.8217                 0.1292

                     40                     41                     42
                      A                      A                      A
 Frequencies --    996.5291              1001.0049              1017.8561
 Red. masses --      1.2725                 1.7377                 2.6966
 Frc consts  --      0.7445                 1.0259                 1.6461
 IR Inten    --      2.3580                 7.7440                 0.3022

                     43                     44                     45
                      A                      A                      A
 Frequencies --   1024.2507              1040.1380              1059.7926
 Red. masses --      3.4769                 2.5045                 2.2069
 Frc consts  --      2.1491                 1.5964                 1.4604
 IR Inten    --      2.3747                22.9715                 1.5829

                     46                     47                     48
                      A                      A                      A
 Frequencies --   1061.9151              1085.1373              1113.6041
 Red. masses --      2.8317                 1.8281                 1.5630
 Frc consts  --      1.8814                 1.2683                 1.1420
 IR Inten    --     13.7401                65.6736                 2.7083

                     49                     50                     51
                      A                      A                      A
 Frequencies --   1121.1397              1156.1495              1179.0792
 Red. masses --      1.9879                 1.9206                 2.6798
 Frc consts  --      1.4722                 1.5126                 2.1950
 IR Inten    --     27.5440                34.8492                29.2264

                     52                     53                     54
                      A                      A                      A
 Frequencies --   1192.8864              1206.8954              1211.8006
 Red. masses --      1.1030                 1.6526                 1.4874
 Frc consts  --      0.9248                 1.4182                 1.2869
 IR Inten    --      0.1427                 0.5352                 2.8297

                     55                     56                     57
                      A                      A                      A
 Frequencies --   1219.1252              1262.2065              1281.8676
 Red. masses --      2.0171                 1.2561                 1.3237
 Frc consts  --      1.7664                 1.1791                 1.2815
 IR Inten    --      0.6075                53.6798                 4.3114

                     58                     59                     60
                      A                      A                      A
 Frequencies --   1293.9803              1302.2352              1339.3075
 Red. masses --      1.2933                 1.3420                 1.6265
 Frc consts  --      1.2758                 1.3408                 1.7190
 IR Inten    --      7.4230                 1.2867                 9.9750

                     61                     62                     63
                      A                      A                      A
 Frequencies --   1363.9614              1365.2346              1383.2132
 Red. masses --      1.3434                 2.2996                 1.4288
 Frc consts  --      1.4725                 2.5253                 1.6106
 IR Inten    --      7.2138                 2.3120                32.8209

                     64                     65                     66
                      A                      A                      A
 Frequencies --   1394.9146              1411.1481              1441.3033
 Red. masses --      1.3980                 1.4821                 1.7887
 Frc consts  --      1.6027                 1.7389                 2.1893
 IR Inten    --     18.1508                 9.1659               125.7298

                     67                     68                     69
                      A                      A                      A
 Frequencies --   1446.3056              1456.5900              1499.2170
 Red. masses --      1.2285                 2.0936                 2.1522
 Frc consts  --      1.5141                 2.6171                 2.8502
 IR Inten    --     29.2612                85.2588                14.0694

                     70                     71                     72
                      A                      A                      A
 Frequencies --   1510.4975              1519.5970              1526.1807
 Red. masses --      1.2288                 1.0947                 1.0578
 Frc consts  --      1.6519                 1.4893                 1.4516
 IR Inten    --      4.0315                 4.0451                 3.6435

                     73                     74                     75
                      A                      A                      A
 Frequencies --   1535.3813              1537.8488              1543.8736
 Red. masses --      1.1184                 1.0802                 2.0424
 Frc consts  --      1.5534                 1.5052                 2.8682
 IR Inten    --     11.5951                15.7316                10.6398

                     76                     77                     78
                      A                      A                      A
 Frequencies --   1552.7464              1642.8680              1655.8676
 Red. masses --      1.1563                 5.3870                 1.3213
 Frc consts  --      1.6426                 8.5666                 2.1345
 IR Inten    --      5.9308                 6.4450               111.8954

                     79                     80                     81
                      A                      A                      A
 Frequencies --   1663.5180              1737.9044              2979.3357
 Red. masses --      5.2469                 3.4088                 1.0712
 Frc consts  --      8.5547                 6.0660                 5.6022
 IR Inten    --      6.2475               462.9478                53.4845

                     82                     83                     84
                      A                      A                      A
 Frequencies --   2997.7101              3045.4541              3047.7638
 Red. masses --      1.0715                 1.0612                 1.0448
 Frc consts  --      5.6730                 5.7990                 5.7178
 IR Inten    --     42.8123                 1.5031                22.2539

                     85                     86                     87
                      A                      A                      A
 Frequencies --   3054.4572              3062.8128              3087.6648
 Red. masses --      1.0905                 1.0821                 1.0986
 Frc consts  --      5.9942                 5.9809                 6.1709
 IR Inten    --     37.4165                46.6949                16.8645

                     88                     89                     90
                      A                      A                      A
 Frequencies --   3114.3153              3122.1885              3124.9252
 Red. masses --      1.1017                 1.0920                 1.0999
 Frc consts  --      6.2957                 6.2720                 6.3280
 IR Inten    --     59.1740                26.0209                19.4137

                     91                     92                     93
                      A                      A                      A
 Frequencies --   3172.3127              3183.6817              3193.9595
 Red. masses --      1.0869                 1.0865                 1.0912
 Frc consts  --      6.4445                 6.4886                 6.5586
 IR Inten    --      7.3663                 0.3822                22.8011

                     94                     95                     96
                      A                      A                      A
 Frequencies --   3206.5796              3213.2605              3539.4209
 Red. masses --      1.0941                 1.0957                 1.0479
 Frc consts  --      6.6281                 6.6654                 7.7349
 IR Inten    --     23.7400                10.8816                13.2719

                     97                     98                     99
                      A                      A                      A
 Frequencies --   3565.6875              3643.9461              3687.9878
 Red. masses --      1.0746                 1.0972                 1.0652
 Frc consts  --      8.0498                 8.5841                 8.5364
 IR Inten    --     83.4554                17.4914                27.9338

 - Thermochemistry -
 -------------------
 Temperature   298.150 Kelvin.  Pressure   1.00000 Atm.
 Atom     1 has atomic number  6 and mass  12.00000

 Molecular mass:   221.15281 amu.
 Principal axes and moments of inertia in atomic units:
                           1         2         3
     Eigenvalues --  2932.768343978.590205613.24423
           X            0.99992   0.00963  -0.00852
           Y           -0.00957   0.99993   0.00731
           Z            0.00859  -0.00723   0.99994
 This molecule is an asymmetric top.
 Rotational symmetry number  1.
 Warning -- assumption of classical behavior for rotation
           may cause significant error
 Rotational temperatures (Kelvin)      0.02953     0.02177     0.01543
 Rotational constants (GHZ):           0.61537     0.45361     0.32151
 Zero-point vibrational energy     803330.4 (Joules/Mol)
                                  192.00058 (Kcal/Mol)
 Warning -- explicit consideration of  24 degrees of freedom as
           vibrations may cause significant error
 Vibrational temperatures:     34.45    61.65    84.51    85.59   127.60
          (Kelvin)            139.17   198.66   237.73   319.28   335.07
                              340.88   390.67   428.18   440.83   506.59
                              580.97   599.24   608.59   642.77   662.44
                              688.37   759.33   808.86   858.21   914.83
                              943.88   963.48  1000.78  1030.73  1083.71
                             1126.28  1150.95  1178.95  1223.05  1249.80
                             1311.95  1329.38  1352.51  1404.26  1433.78
                             1440.22  1464.47  1473.67  1496.53  1524.81
                             1527.86  1561.27  1602.23  1613.07  1663.44
                             1696.43  1716.30  1736.45  1743.51  1754.05
                             1816.03  1844.32  1861.75  1873.63  1926.96
                             1962.44  1964.27  1990.14  2006.97  2030.33
                             2073.71  2080.91  2095.71  2157.04  2173.27
                             2186.36  2195.83  2209.07  2212.62  2221.29
                             2234.06  2363.72  2382.42  2393.43  2500.46
                             4286.60  4313.04  4381.73  4385.05  4394.68
                             4406.70  4442.46  4480.81  4492.13  4496.07
                             4564.25  4580.61  4595.40  4613.55  4623.17
                             5092.44  5130.23  5242.83  5306.19

 Zero-point correction=                           0.305972 (Hartree/Particle)
 Thermal correction to Energy=                    0.322177
 Thermal correction to Enthalpy=                  0.323121
 Thermal correction to Gibbs Free Energy=         0.261312
 Sum of electronic and zero-point Energies=           -707.945311
 Sum of electronic and thermal Energies=              -707.929106
 Sum of electronic and thermal Enthalpies=            -707.928162
 Sum of electronic and thermal Free Energies=         -707.989972

                     E (Thermal)             CV                S
                      KCal/Mol        Cal/Mol-Kelvin    Cal/Mol-Kelvin
 Total                  202.169             62.061            130.089
 Electronic               0.000              0.000              0.000
 Translational            0.889              2.981             42.084
 Rotational               0.889              2.981             32.549
 Vibrational            200.392             56.100             55.456
 Vibration     1          0.593              1.985              6.277
 Vibration     2          0.595              1.980              5.123
 Vibration     3          0.596              1.974              4.499
 Vibration     4          0.597              1.974              4.474
 Vibration     5          0.602              1.957              3.689
 Vibration     6          0.603              1.952              3.519
 Vibration     7          0.614              1.915              2.830
 Vibration     8          0.624              1.885              2.489
 Vibration     9          0.648              1.808              1.943
 Vibration    10          0.654              1.791              1.857
 Vibration    11          0.656              1.784              1.826
 Vibration    12          0.675              1.726              1.586
 Vibration    13          0.691              1.678              1.430
 Vibration    14          0.697              1.662              1.382
 Vibration    15          0.729              1.571              1.157
 Vibration    16          0.769              1.462              0.949
 Vibration    17          0.780              1.434              0.904
 Vibration    18          0.785              1.420              0.882
 Vibration    19          0.806              1.368              0.806
 Vibration    20          0.818              1.338              0.765
 Vibration    21          0.835              1.298              0.714
 Vibration    22          0.883              1.189              0.592
 Vibration    23          0.918              1.113              0.519
 Vibration    24          0.954              1.039              0.456

 Optimization completed.
    -- Stationary point found.
 Normal termination of Gaussian 16 at Thu Dec 10 22:38:49 2020.

 ----------------------------------------------------------------------
 # B3LYP/6-311++G(d,p) empiricaldispersion=gd3bj scf=xqc pop=npa geom=c
 heck
 ----------------------------------------------------------------------

 ---------------------------------------
 CID_130557181_JID_6340_Energie_neutraal
 ---------------------------------------
 Structure from the checkpoint file:  "JID_6340.chk"
 Charge =  0 Multiplicity = 1

 SCF Done:  E(RB3LYP) =  -708.465357466     A.U. after   14 cycles
 Normal termination of Gaussian 16 at Thu Dec 10 22:45:31 2020.

 ----------------------------------------------------------------------
 # B3LYP/6-311++G(d,p) empiricaldispersion=gd3bj scf=xqc pop=npa geom=c
 heck
 ----------------------------------------------------------------------

 -------------------------------------
 CID_130557181_JID_6340_Energie_kation
 -------------------------------------
 Structure from the checkpoint file:  "JID_6340.chk"
 Charge =  1 Multiplicity = 2

 SCF Done:  E(UB3LYP) =  -708.169343758     A.U. after   26 cycles
 Normal termination of Gaussian 16 at Thu Dec 10 23:04:21 2020.
 Gaussian 16:  ES64L-G16RevA.03 25-Dec-2016

 ----------------------------------------------------------------------
 # B3LYP/6-311++G(d,p) empiricaldispersion=gd3bj scf=xqc pop=npa geom=c
 heck
 ----------------------------------------------------------------------

 ------------------------------------
 CID_130557181_JID_6340_Energie_anion
 ------------------------------------
 Structure from the checkpoint file:  "JID_6340.chk"
 Charge = -1 Multiplicity = 2

                         Standard orientation:
 ---------------------------------------------------------------------
 Center     Atomic      Atomic             Coordinates (Angstroms)
 Number     Number       Type             X           Y           Z
 ---------------------------------------------------------------------
      1          6           0        0.392052   -2.627446   -1.066253
      2          6           0        1.184536   -2.342472    0.212883
      3          6           0        2.449799   -1.489298    0.014637
      4          6           0        2.201906   -0.169425   -0.726833
      5          7           0        1.233532    0.624487    0.022554
      6          6           0        1.005170    1.977488   -0.206513
      7          7           0        0.028939    2.660037    0.284682
      8          6           0       -0.859711    1.981014    1.216159
      9          6           0       -1.690112    0.852398    0.610102
     10          6           0       -1.975264   -0.303575    1.347129
     11          6           0       -2.720120   -1.344983    0.788908
     12          6           0       -3.189121   -1.243216   -0.520568
     13          6           0       -2.909889   -0.094270   -1.265064
     14          6           0       -2.166317    0.943340   -0.704786
     15          7           0        1.982149    2.634399   -0.952244
     16          8           0        3.075890   -1.228644    1.265013
     17          1           0       -0.063386   -1.718418   -1.474813
     18          1           0       -0.424044   -3.328969   -0.867280
     19          1           0        1.030096   -3.066260   -1.843344
     20          1           0        0.532255   -1.850691    0.947047
     21          1           0        1.502311   -3.280308    0.682184
     22          1           0        3.175819   -2.065522   -0.571966
     23          1           0        3.145482    0.380501   -0.763703
     24          1           0        1.872829   -0.366336   -1.759746
     25          1           0        0.368463    0.127431    0.200414
     26          1           0       -0.303925    1.571886    2.076901
     27          1           0       -1.542529    2.737662    1.622890
     28          1           0       -1.603006   -0.390857    2.365693
     29          1           0       -2.925559   -2.236503    1.375088
     30          1           0       -3.762938   -2.053922   -0.960468
     31          1           0       -3.271232   -0.008510   -2.286426
     32          1           0       -1.930253    1.830623   -1.284211
     33          1           0        2.263107    2.172860   -1.809919
     34          1           0        1.705095    3.596797   -1.109341
     35          1           0        2.574366   -0.492099    1.657151
 ---------------------------------------------------------------------

 SCF Done:  E(UB3LYP) =  -708.455235127     A.U. after   33 cycles
 SCF Done:  E(UB3LYP) =  -708.455235127     a.u. after    1 cycles

 The electronic state is 2-A.
 Alpha  occ. eigenvalues --  -19.02999 -14.23940 -14.22263 -14.17647 -10.17232
 Alpha  occ. eigenvalues --  -10.13215 -10.11157 -10.10589 -10.09428 -10.08849
 Alpha  occ. eigenvalues --  -10.08787 -10.08623 -10.08493 -10.08239 -10.07554
 Alpha  occ. eigenvalues --  -10.06481  -0.93674  -0.89011  -0.79819  -0.78496
 Alpha  occ. eigenvalues --   -0.76190  -0.69277  -0.67345  -0.65902  -0.62911
 Alpha  occ. eigenvalues --   -0.58997  -0.55750  -0.52025  -0.51219  -0.49789
 Alpha  occ. eigenvalues --   -0.49170  -0.44275  -0.42735  -0.41167  -0.39457
 Alpha  occ. eigenvalues --   -0.38630  -0.38079  -0.37166  -0.36413  -0.35027
 Alpha  occ. eigenvalues --   -0.34214  -0.33557  -0.32871  -0.32401  -0.31617
 Alpha  occ. eigenvalues --   -0.30213  -0.29307  -0.28446  -0.26537  -0.26139
 Alpha  occ. eigenvalues --   -0.25717  -0.25595  -0.25337  -0.23533  -0.19044
 Alpha  occ. eigenvalues --   -0.17897  -0.16891  -0.16187  -0.15558  -0.13312
 Alpha  occ. eigenvalues --    0.04034
 Alpha virt. eigenvalues --    0.05897   0.06835   0.06953   0.07025   0.07270
 Alpha virt. eigenvalues --    0.08152   0.09047   0.09145   0.09559   0.09880
 Alpha virt. eigenvalues --    0.10855   0.11025   0.11720   0.11921   0.12730

  Beta  occ. eigenvalues --  -19.02997 -14.23934 -14.22216 -14.17642 -10.17227
  Beta  occ. eigenvalues --  -10.13207 -10.11126 -10.10586 -10.09428 -10.08841
  Beta  occ. eigenvalues --  -10.08773 -10.08607 -10.08479 -10.08231 -10.07546
  Beta  occ. eigenvalues --  -10.06451  -0.93665  -0.88988  -0.79787  -0.78463
  Beta  occ. eigenvalues --   -0.76160  -0.69251  -0.67320  -0.65874  -0.62869
  Beta  occ. eigenvalues --   -0.58971  -0.55699  -0.51989  -0.51183  -0.49764
  Beta  occ. eigenvalues --   -0.49127  -0.44218  -0.42685  -0.41143  -0.39413
  Beta  occ. eigenvalues --   -0.38598  -0.38049  -0.37138  -0.36381  -0.35002
  Beta  occ. eigenvalues --   -0.34189  -0.33533  -0.32854  -0.32375  -0.31584
  Beta  occ. eigenvalues --   -0.30184  -0.29276  -0.28419  -0.26511  -0.26112
  Beta  occ. eigenvalues --   -0.25683  -0.25572  -0.25313  -0.23509  -0.19023
  Beta  occ. eigenvalues --   -0.17868  -0.16867  -0.16171  -0.15537  -0.13299
  Beta virt. eigenvalues --    0.06286   0.06848   0.06945   0.07195   0.07457
  Beta virt. eigenvalues --    0.07796   0.08739   0.09405   0.09533   0.09696
  Beta virt. eigenvalues --    0.10177   0.11254   0.11551   0.11956   0.12291

 Mulliken charges and spin densities:
               1          2
     1  C    0.530348  -1.041489
     2  C   -0.538572   0.642493
     3  C    0.237733  -0.961124
     4  C    0.119969  -0.512298
     5  N   -0.146600   0.014210
     6  C   -0.275300   0.124813
     7  N   -0.064958  -0.052913
     8  C    0.415121  -1.079382
     9  C    0.557445   0.037346
    10  C   -1.228891   0.933599
    11  C   -0.171572  -0.159282
    12  C    1.504880  -1.819337
    13  C   -0.244156  -0.117767
    14  C   -0.496768   0.393384
    15  N   -0.290146  -0.032451
    16  O   -0.164498   0.003160
    17  H   -0.023509   0.161877
    18  H   -0.062386   0.188331
    19  H   -0.239489   0.394179
    20  H   -0.047643   0.158050
    21  H   -0.021153   0.228665
    22  H   -0.125341   0.328629
    23  H    0.087770   0.141354
    24  H   -0.450987   0.645731
    25  H    1.305744  -0.863245
    26  H    0.128239   0.038062
    27  H    0.169504   0.031586
    28  H    0.011343   0.142866
    29  H   -0.462716   0.649710
    30  H   -0.329631   0.500917
    31  H   -0.509448   0.698705
    32  H   -0.044861   0.243780
    33  H   -0.379299   0.640838
    34  H    0.004531   0.279073
    35  H    0.245299   0.017931
 Sum of Mulliken charges =  -1.00000   1.00000

 Dipole moment (field-independent basis, Debye):
    X=             -0.7274    Y=              1.2071    Z=              5.0364  Tot=              5.2299
 Quadrupole moment (field-independent basis, Debye-Ang):
   XX=           -162.7133   YY=           -155.3651   ZZ=           -141.2799
   XY=             -9.0862   XZ=              1.3890   YZ=              3.8635

 Summary of Natural Population Analysis:

                                       Natural Population
                Natural  -----------------------------------------------
    Atom  No    Charge         Core      Valence    Rydberg      Total
 -----------------------------------------------------------------------
      C    1   -0.28927      0.99966     2.28423    0.00538     3.28927
      C    2   -0.20567      0.99962     2.19709    0.00896     3.20567
      C    3    0.06368      0.99956     1.92241    0.01435     2.93632
      C    4   -0.10515      0.99959     2.09359    0.01197     3.10515
      N    5   -0.35199      0.99966     2.84157    0.01076     3.85199
      C    6    0.31498      0.99960     1.66852    0.01690     2.68502
      N    7   -0.31090      0.99966     2.80123    0.01002     3.81090
      C    8   -0.10650      0.99957     2.09500    0.01193     3.10650
      C    9   -0.03578      0.99950     2.02567    0.01061     3.03578
      C   10   -0.11047      0.99950     2.10093    0.01004     3.11047
      C   11   -0.09808      0.99956     2.08744    0.01108     3.09808
      C   12   -0.10270      0.99956     2.09260    0.01054     3.10270
      C   13   -0.09526      0.99956     2.08505    0.01065     3.09526
      C   14   -0.10141      0.99950     2.09189    0.01002     3.10141
      N   15   -0.40481      0.99971     2.89569    0.00940     3.90481
      O   16   -0.37330      0.99990     3.36701    0.00639     4.37330
      H   17    0.09953      0.00000     0.39853    0.00194     0.40047
      H   18    0.10402      0.00000     0.39485    0.00113     0.39598
      H   19    0.09742      0.00000     0.40138    0.00121     0.40258
      H   20    0.09450      0.00000     0.40378    0.00172     0.40550
      H   21    0.10137      0.00000     0.39754    0.00108     0.39863
      H   22    0.08890      0.00000     0.40987    0.00123     0.41110
      H   23    0.10686      0.00000     0.39159    0.00155     0.39314
      H   24    0.09673      0.00000     0.40104    0.00223     0.40327
      H   25    0.20271      0.00000     0.29258    0.00471     0.29729
      H   26    0.08685      0.00000     0.41146    0.00169     0.41315
      H   27    0.09985      0.00000     0.39896    0.00119     0.40015
      H   28    0.10020      0.00000     0.39873    0.00107     0.39980
      H   29    0.10279      0.00000     0.39596    0.00125     0.39721
      H   30    0.10390      0.00000     0.39462    0.00148     0.39610
      H   31    0.10333      0.00000     0.39553    0.00114     0.39667
      H   32    0.10990      0.00000     0.38838    0.00172     0.39010
      H   33    0.19083      0.00000     0.30389    0.00528     0.30917
      H   34    0.19315      0.00000     0.30435    0.00250     0.30685
      H   35    0.22980      0.00000     0.26729    0.00291     0.27020
 =======================================================================
   * Total *   -0.00000     15.99370    43.80023    0.20607    60.00000

 Normal termination of Gaussian 16 at Thu Dec 10 23:26:54 2020.
