 Gaussian 16, Revision A.03,

 -----------------------------------------------------------
 # opt freq B3LYP/6-31G(d) empiricaldispersion=gd3bj scf=xqc
 -----------------------------------------------------------

 -------------------------------
 CID_151527102_JID_2846_neutraal
 -------------------------------
 Symbolic Z-matrix:
 Charge =  0 Multiplicity = 1

 SCF Done:  E(RB3LYP) =  -639.933568550     A.U. after   16 cycles
 SCF Done:  E(RB3LYP) =  -639.945170387     A.U. after   15 cycles
 SCF Done:  E(RB3LYP) =  -639.948551295     A.U. after   15 cycles
 SCF Done:  E(RB3LYP) =  -639.951976782     A.U. after   16 cycles
 SCF Done:  E(RB3LYP) =  -639.953718611     A.U. after   16 cycles
 SCF Done:  E(RB3LYP) =  -639.954250665     A.U. after   13 cycles
 SCF Done:  E(RB3LYP) =  -639.954330417     A.U. after   11 cycles
 SCF Done:  E(RB3LYP) =  -639.954352323     A.U. after   10 cycles
 SCF Done:  E(RB3LYP) =  -639.954362873     A.U. after    9 cycles
 SCF Done:  E(RB3LYP) =  -639.954372994     A.U. after   10 cycles
 SCF Done:  E(RB3LYP) =  -639.954377738     A.U. after    7 cycles
 SCF Done:  E(RB3LYP) =  -639.954377777     A.U. after    7 cycles
 SCF Done:  E(RB3LYP) =  -639.954377797     A.U. after    6 cycles
 SCF Done:  E(RB3LYP) =  -639.954377811     A.U. after    7 cycles
 Optimization completed.
    -- Stationary point found.
 Normal termination of Gaussian 16 at Wed Dec  9 18:06:39 2020.

 --------------------------------------------------------------------
 #N Geom=AllCheck Guess=TCheck SCRF=Check GenChk RB3LYP/6-31G(d) Freq
 --------------------------------------------------------------------

 Structure from the checkpoint file:  "JID_2846.chk"
 -------------------------------
 CID_151527102_JID_2846_neutraal
 -------------------------------
 Charge =  0 Multiplicity = 1

 SCF Done:  E(RB3LYP) =  -639.954377811     A.U. after    1 cycles

  Exact polarizability: 130.983  -2.088  68.794   8.738  -1.413  69.627
 Approx polarizability: 209.850  -7.961  92.150  35.518  -4.878 116.886

                      1                      2                      3
                      A                      A                      A
 Frequencies --     38.9088                85.9939                93.4258
 Red. masses --      5.3845                 2.1667                 3.2177
 Frc consts  --      0.0048                 0.0094                 0.0165
 IR Inten    --      0.0638                 1.8912                 1.5242

                      4                      5                      6
                      A                      A                      A
 Frequencies --    116.8128               130.9972               158.4165
 Red. masses --      2.4230                 5.1555                 1.5222
 Frc consts  --      0.0195                 0.0521                 0.0225
 IR Inten    --      2.0574                 0.0105                 4.2758

                      7                      8                      9
                      A                      A                      A
 Frequencies --    177.1570               195.1617               273.7496
 Red. masses --      3.0947                 1.7537                 2.8525
 Frc consts  --      0.0572                 0.0394                 0.1259
 IR Inten    --      1.3029                 4.3914                 7.6867

                     10                     11                     12
                      A                      A                      A
 Frequencies --    284.3531               355.2528               407.7842
 Red. masses --      3.7967                 4.6682                 4.7159
 Frc consts  --      0.1809                 0.3471                 0.4620
 IR Inten    --      1.1844                 2.1986                 3.3306

                     13                     14                     15
                      A                      A                      A
 Frequencies --    434.3404               513.8724               544.6966
 Red. masses --      7.0193                 7.0974                11.9503
 Frc consts  --      0.7802                 1.1042                 2.0890
 IR Inten    --      3.7220                 0.7716                 8.5815

                     16                     17                     18
                      A                      A                      A
 Frequencies --    567.1605               590.9890               690.2369
 Red. masses --      6.4434                 5.8840                 6.5849
 Frc consts  --      1.2212                 1.2108                 1.8484
 IR Inten    --      4.4397                 4.7552                14.1741

                     19                     20                     21
                      A                      A                      A
 Frequencies --    707.7364               767.1969               842.9280
 Red. masses --      9.7757                11.1218                 7.1253
 Frc consts  --      2.8850                 3.8569                 2.9829
 IR Inten    --      9.7082                 1.6901                 6.2693

                     22                     23                     24
                      A                      A                      A
 Frequencies --    903.6558               959.5673              1038.2578
 Red. masses --      1.9630                 8.7939                 9.1756
 Frc consts  --      0.9445                 4.7707                 5.8277
 IR Inten    --     40.4151                36.0793                67.7435

                     25                     26                     27
                      A                      A                      A
 Frequencies --   1066.2908              1086.9431              1095.3306
 Red. masses --      5.6169                 6.6195                 4.5917
 Frc consts  --      3.7627                 4.6078                 3.2458
 IR Inten    --     58.1285               189.7192                86.6231

                     28                     29                     30
                      A                      A                      A
 Frequencies --   1155.1777              1176.5149              1187.9339
 Red. masses --      3.6083                 2.1385                 1.2902
 Frc consts  --      2.8370                 1.7441                 1.0728
 IR Inten    --    151.1947               146.2758                 3.5245

                     31                     32                     33
                      A                      A                      A
 Frequencies --   1191.2378              1220.3719              1227.6003
 Red. masses --      1.2966                 1.6958                 1.4925
 Frc consts  --      1.0841                 1.4880                 1.3252
 IR Inten    --      8.2747                48.1437                78.2838

                     34                     35                     36
                      A                      A                      A
 Frequencies --   1252.3457              1269.4654              1360.0480
 Red. masses --      2.1190                 3.5788                 1.8030
 Frc consts  --      1.9581                 3.3981                 1.9649
 IR Inten    --    128.4807               240.4283                29.5641

                     37                     38                     39
                      A                      A                      A
 Frequencies --   1409.1307              1490.2088              1496.3472
 Red. masses --      5.6648                 1.1733                 1.1471
 Frc consts  --      6.6273                 1.5352                 1.5132
 IR Inten    --    253.2080                 5.3711                 3.4351

                     40                     41                     42
                      A                      A                      A
 Frequencies --   1513.3806              1515.9207              1527.7503
 Red. masses --      1.0540                 1.0718                 1.0868
 Frc consts  --      1.4223                 1.4512                 1.4945
 IR Inten    --      1.8862                 3.7578                13.8485

                     43                     44                     45
                      A                      A                      A
 Frequencies --   1543.4034              1545.3740              1725.0670
 Red. masses --      1.0509                 1.0583                11.5410
 Frc consts  --      1.4749                 1.4892                20.2351
 IR Inten    --     11.1642                16.7180               586.0224

                     46                     47                     48
                      A                      A                      A
 Frequencies --   2300.9750              3013.8888              3064.2943
 Red. masses --     13.9901                 1.0480                 1.0294
 Frc consts  --     43.6410                 5.6086                 5.6952
 IR Inten    --    583.7641                47.7384                45.3164

                     49                     50                     51
                      A                      A                      A
 Frequencies --   3102.2196              3114.8443              3137.5130
 Red. masses --      1.0864                 1.0580                 1.1070
 Frc consts  --      6.1599                 6.0479                 6.4207
 IR Inten    --     29.9968                15.9944                26.1254

                     52                     53                     54
                      A                      A                      A
 Frequencies --   3155.4464              3161.8915              3179.8230
 Red. masses --      1.1040                 1.1060                 1.1122
 Frc consts  --      6.4767                 6.5146                 6.6261
 IR Inten    --     28.8208                25.8571                 9.6982

 - Thermochemistry -
 -------------------
 Temperature   298.150 Kelvin.  Pressure   1.00000 Atm.
 Atom     1 has atomic number  6 and mass  12.00000

 Molecular mass:   172.05964 amu.
 Principal axes and moments of inertia in atomic units:
                           1         2         3
     Eigenvalues --   936.646093138.264643369.05353
           X            0.99992  -0.00622   0.01140
           Y            0.00625   0.99998  -0.00200
           Z           -0.01139   0.00207   0.99993
 This molecule is an asymmetric top.
 Rotational symmetry number  1.
 Warning -- assumption of classical behavior for rotation
           may cause significant error
 Rotational temperatures (Kelvin)      0.09247     0.02760     0.02571
 Rotational constants (GHZ):           1.92681     0.57508     0.53568
 Zero-point vibrational energy     395756.9 (Joules/Mol)
                                   94.58817 (Kcal/Mol)
 Warning -- explicit consideration of  17 degrees of freedom as
           vibrations may cause significant error
 Vibrational temperatures:     55.98   123.73   134.42   168.07   188.48
          (Kelvin)            227.93   254.89   280.79   393.86   409.12
                              511.13   586.71   624.92   739.35   783.70
                              816.02   850.30   993.10  1018.27  1103.83
                             1212.79  1300.16  1380.60  1493.82  1534.15
                             1563.87  1575.94  1662.04  1692.74  1709.17
                             1713.93  1755.84  1766.24  1801.85  1826.48
                             1956.81  2027.42  2144.08  2152.91  2177.42
                             2181.07  2198.09  2220.61  2223.45  2481.99
                             3310.59  4336.31  4408.84  4463.40  4481.57
                             4514.18  4539.98  4549.26  4575.06

 Zero-point correction=                           0.150736 (Hartree/Particle)
 Thermal correction to Energy=                    0.162460
 Thermal correction to Enthalpy=                  0.163404
 Thermal correction to Gibbs Free Energy=         0.112091
 Sum of electronic and zero-point Energies=           -639.803642
 Sum of electronic and thermal Energies=              -639.791918
 Sum of electronic and thermal Enthalpies=            -639.790974
 Sum of electronic and thermal Free Energies=         -639.842287

                     E (Thermal)             CV                S
                      KCal/Mol        Cal/Mol-Kelvin    Cal/Mol-Kelvin
 Total                  101.945             41.128            107.998
 Electronic               0.000              0.000              0.000
 Translational            0.889              2.981             41.336
 Rotational               0.889              2.981             30.672
 Vibrational            100.168             35.167             35.990
 Vibration     1          0.594              1.981              5.314
 Vibration     2          0.601              1.959              3.749
 Vibration     3          0.602              1.954              3.587
 Vibration     4          0.608              1.935              3.152
 Vibration     5          0.612              1.922              2.931
 Vibration     6          0.621              1.893              2.569
 Vibration     7          0.628              1.870              2.358
 Vibration     8          0.636              1.847              2.178
 Vibration     9          0.676              1.722              1.572
 Vibration    10          0.683              1.703              1.507
 Vibration    11          0.731              1.564              1.143
 Vibration    12          0.772              1.453              0.934
 Vibration    13          0.795              1.395              0.845
 Vibration    14          0.869              1.219              0.624
 Vibration    15          0.900              1.151              0.555
 Vibration    16          0.923              1.102              0.510
 Vibration    17          0.948              1.051              0.465

                           ! Non-Optimized Parameters !
 Normal termination of Gaussian 16 at Wed Dec  9 18:11:25 2020.

 ----------------------------------------------------------------------
 # B3LYP/6-311++G(d,p) empiricaldispersion=gd3bj scf=xqc pop=npa geom=c
 heck
 ----------------------------------------------------------------------

 ---------------------------------------
 CID_151527102_JID_2846_Energie_neutraal
 ---------------------------------------
 Structure from the checkpoint file:  "JID_2846.chk"
 Charge =  0 Multiplicity = 1

 SCF Done:  E(RB3LYP) =  -640.139371908     A.U. after   15 cycles
 Normal termination of Gaussian 16 at Wed Dec  9 18:13:33 2020.

 ----------------------------------------------------------------------
 # B3LYP/6-311++G(d,p) empiricaldispersion=gd3bj scf=xqc pop=npa geom=c
 heck
 ----------------------------------------------------------------------

 -------------------------------------
 CID_151527102_JID_2846_Energie_kation
 -------------------------------------
 Structure from the checkpoint file:  "JID_2846.chk"
 Charge =  1 Multiplicity = 2

 SCF Done:  E(UB3LYP) =  -639.796051443     A.U. after   33 cycles
 SCF Done:  E(UB3LYP) =  -639.796773974     a.u. after    8 cycles
 Normal termination of Gaussian 16 at Wed Dec  9 18:51:22 2020.
 Gaussian 16:  ES64L-G16RevA.03 25-Dec-2016

 ----------------------------------------------------------------------
 # B3LYP/6-311++G(d,p) empiricaldispersion=gd3bj scf=xqc pop=npa geom=c
 heck
 ----------------------------------------------------------------------

 ------------------------------------
 CID_151527102_JID_2846_Energie_anion
 ------------------------------------
 Structure from the checkpoint file:  "JID_2846.chk"
 Charge = -1 Multiplicity = 2

                         Standard orientation:
 ---------------------------------------------------------------------
 Center     Atomic      Atomic             Coordinates (Angstroms)
 Number     Number       Type             X           Y           Z
 ---------------------------------------------------------------------
      1          6           0       -2.717193    1.641156   -0.541958
      2          8           0       -1.908218    1.172215    0.541074
      3          6           0       -1.164933    0.033830    0.264474
      4          6           0       -0.291662   -0.259749    1.519532
      5          8           0        1.068355   -0.141835    1.041770
      6          6           0        0.949787    0.152610   -0.283154
      7          7           0       -0.200967    0.251329   -0.819395
      8          7           0        2.137663    0.328411   -0.985176
      9          7           0        3.190074    0.201937   -0.325730
     10          7           0        4.228093    0.121497    0.123285
     11          8           0       -2.069811   -0.999252   -0.036755
     12          6           0       -1.508499   -2.173602   -0.604543
     13          1           0       -3.178866    2.564015   -0.185891
     14          1           0       -3.490811    0.911076   -0.796224
     15          1           0       -2.102131    1.847321   -1.423425
     16          1           0       -0.459837    0.483922    2.298441
     17          1           0       -0.438719   -1.269155    1.907700
     18          1           0       -1.041347   -1.967697   -1.572703
     19          1           0       -0.761448   -2.634808    0.059466
     20          1           0       -2.338490   -2.871387   -0.733060
 ---------------------------------------------------------------------

 SCF Done:  E(UB3LYP) =  -640.130205265     A.U. after   33 cycles
 SCF Done:  E(UB3LYP) =  -640.130205265     a.u. after    1 cycles

 The electronic state is 2-A.
 Alpha  occ. eigenvalues --  -19.04771 -19.02005 -19.01534 -14.32767 -14.24425
 Alpha  occ. eigenvalues --  -14.23672 -14.15491 -10.18770 -10.16259 -10.11699
 Alpha  occ. eigenvalues --  -10.09921 -10.09579  -1.01519  -0.98763  -0.96103
 Alpha  occ. eigenvalues --   -0.90254  -0.85330  -0.77908  -0.65565  -0.59310
 Alpha  occ. eigenvalues --   -0.57483  -0.55020  -0.47742  -0.43773  -0.41743
 Alpha  occ. eigenvalues --   -0.39634  -0.38892  -0.37843  -0.35475  -0.34992
 Alpha  occ. eigenvalues --   -0.33660  -0.32784  -0.32581  -0.31227  -0.31038
 Alpha  occ. eigenvalues --   -0.27117  -0.26581  -0.22730  -0.22173  -0.19386
 Alpha  occ. eigenvalues --   -0.18732  -0.17350  -0.16681  -0.14654  -0.12826
 Alpha  occ. eigenvalues --    0.05660
 Alpha virt. eigenvalues --    0.07303   0.08232   0.09106   0.09262   0.10939
 Alpha virt. eigenvalues --    0.11523   0.11709   0.13254   0.13702   0.14526
 Alpha virt. eigenvalues --    0.15018   0.16448   0.17117   0.18101   0.18626

  Beta  occ. eigenvalues --  -19.04734 -19.01981 -19.01526 -14.32241 -14.23987
  Beta  occ. eigenvalues --  -14.23781 -14.15337 -10.18772 -10.16033 -10.11692
  Beta  occ. eigenvalues --  -10.09915 -10.09535  -1.00893  -0.98503  -0.95997
  Beta  occ. eigenvalues --   -0.90217  -0.85070  -0.77634  -0.65417  -0.59174
  Beta  occ. eigenvalues --   -0.57405  -0.54689  -0.47664  -0.43659  -0.41582
  Beta  occ. eigenvalues --   -0.39480  -0.37562  -0.37135  -0.35152  -0.34785
  Beta  occ. eigenvalues --   -0.33578  -0.32551  -0.31834  -0.31016  -0.30863
  Beta  occ. eigenvalues --   -0.26573  -0.26260  -0.22629  -0.22119  -0.19334
  Beta  occ. eigenvalues --   -0.18590  -0.16769  -0.16591  -0.14552  -0.11750
  Beta virt. eigenvalues --    0.07929   0.08674   0.09511   0.09781   0.11154
  Beta virt. eigenvalues --    0.11606   0.11782   0.12025   0.13454   0.13631
  Beta virt. eigenvalues --    0.14559   0.15135   0.16380   0.17472   0.18043

 Mulliken charges and spin densities:
               1          2
     1  C    0.157269  -0.279385
     2  O   -0.072236   0.009364
     3  C   -1.649384   0.857644
     4  C    0.552389  -0.695659
     5  O   -0.138050   0.039355
     6  C    0.275910  -0.151663
     7  N   -0.094485   0.049431
     8  N   -0.348287  -0.088364
     9  N    0.569190   0.126910
    10  N   -0.397846   0.319276
    11  O   -0.073150   0.018447
    12  C    0.952283  -1.176621
    13  H    0.034636   0.095125
    14  H   -0.023180   0.166769
    15  H    0.084518   0.057551
    16  H    0.068077   0.119658
    17  H   -0.023898   0.201429
    18  H    0.067947   0.099539
    19  H   -0.011118   0.142043
    20  H   -0.930583   1.089154
 Sum of Mulliken charges =  -1.00000   1.00000

 Dipole moment (field-independent basis, Debye):
    X=              0.1119    Y=              2.9208    Z=              1.3430  Tot=              3.2168
 Quadrupole moment (field-independent basis, Debye-Ang):
   XX=           -128.1921   YY=            -98.7405   ZZ=            -87.1648
   XY=            -13.7611   XZ=             -3.8922   YZ=             -2.2717

 Summary of Natural Population Analysis:

                                       Natural Population
                Natural  -----------------------------------------------
    Atom  No    Charge         Core      Valence    Rydberg      Total
 -----------------------------------------------------------------------
      C    1   -0.10461      0.99959     2.09709    0.00793     3.10461
      O    2   -0.30028      0.99985     3.29089    0.00953     4.30028
      C    3    0.35114      0.99958     1.62211    0.02717     2.64886
      C    4   -0.02960      0.99952     2.01722    0.01286     3.02960
      O    5   -0.28363      0.99987     3.27598    0.00778     4.28363
      C    6    0.38167      0.99956     1.59842    0.02036     2.61833
      N    7   -0.29036      0.99963     2.78219    0.00854     3.79036
      N    8   -0.21936      0.99963     2.70647    0.01326     3.71936
      N    9    0.17175      0.99970     2.31144    0.01710     3.32825
      N   10    0.02401      0.99982     2.46359    0.01258     3.47599
      O   11   -0.30870      0.99985     3.29768    0.01116     4.30870
      C   12   -0.10304      0.99959     2.09350    0.00995     3.10304
      H   13    0.08318      0.00000     0.41582    0.00100     0.41682
      H   14    0.08766      0.00000     0.41043    0.00191     0.41234
      H   15    0.09107      0.00000     0.40727    0.00166     0.40893
      H   16    0.09741      0.00000     0.40112    0.00148     0.40259
      H   17    0.09186      0.00000     0.40685    0.00129     0.40814
      H   18    0.09175      0.00000     0.40675    0.00150     0.40825
      H   19    0.07558      0.00000     0.42285    0.00158     0.42442
      H   20    0.09249      0.00000     0.40438    0.00313     0.40751
 =======================================================================
   * Total *   -0.00000     11.99620    32.83203    0.17177    45.00000

 Normal termination of Gaussian 16 at Wed Dec  9 18:56:37 2020.
