 Gaussian 16, Revision A.03,

 -----------------------------------------------------------
 # opt freq B3LYP/6-31G(d) empiricaldispersion=gd3bj scf=xqc
 -----------------------------------------------------------

 -------------------------------
 CID_119226689_JID_8240_neutraal
 -------------------------------
 Symbolic Z-matrix:
 Charge =  0 Multiplicity = 1

 SCF Done:  E(RB3LYP) =  -898.445196144     A.U. after   15 cycles
 SCF Done:  E(RB3LYP) =  -898.436462783     A.U. after   13 cycles
 SCF Done:  E(RB3LYP) =  -898.450127730     A.U. after   12 cycles
 SCF Done:  E(RB3LYP) =  -898.451227064     A.U. after   11 cycles
 SCF Done:  E(RB3LYP) =  -898.451295491     A.U. after   12 cycles
 SCF Done:  E(RB3LYP) =  -898.451383234     A.U. after   11 cycles
 SCF Done:  E(RB3LYP) =  -898.451460857     A.U. after   11 cycles
 SCF Done:  E(RB3LYP) =  -898.451531064     A.U. after   11 cycles
 SCF Done:  E(RB3LYP) =  -898.451593866     A.U. after   11 cycles
 SCF Done:  E(RB3LYP) =  -898.451748854     A.U. after   11 cycles
 SCF Done:  E(RB3LYP) =  -898.452139661     A.U. after   10 cycles
 SCF Done:  E(RB3LYP) =  -898.452140105     A.U. after    8 cycles
 SCF Done:  E(RB3LYP) =  -898.452140585     A.U. after    9 cycles
 SCF Done:  E(RB3LYP) =  -898.452140659     A.U. after    7 cycles
 SCF Done:  E(RB3LYP) =  -898.452140701     A.U. after    7 cycles
 Optimization completed.
    -- Stationary point found.
 Normal termination of Gaussian 16 at Fri Dec 11 19:52:12 2020.

 --------------------------------------------------------------------
 #N Geom=AllCheck Guess=TCheck SCRF=Check GenChk RB3LYP/6-31G(d) Freq
 --------------------------------------------------------------------

 Structure from the checkpoint file:  "JID_8240.chk"
 -------------------------------
 CID_119226689_JID_8240_neutraal
 -------------------------------
 Charge =  0 Multiplicity = 1

 SCF Done:  E(RB3LYP) =  -898.452140701     A.U. after    1 cycles

  Exact polarizability: 172.567   3.569 144.252   9.869  -4.168 112.875
 Approx polarizability: 226.418   7.302 227.686  14.105 -15.641 176.311

                      1                      2                      3
                      A                      A                      A
 Frequencies --     16.6795                35.5385                44.3795
 Red. masses --      5.2256                 5.2647                 5.3290
 Frc consts  --      0.0009                 0.0039                 0.0062
 IR Inten    --      0.2781                 0.7034                 0.6091

                      4                      5                      6
                      A                      A                      A
 Frequencies --     71.0507                75.5261                94.5930
 Red. masses --      6.8849                 4.2572                 3.8826
 Frc consts  --      0.0205                 0.0143                 0.0205
 IR Inten    --      1.2880                 1.9327                 1.0729

                      7                      8                      9
                      A                      A                      A
 Frequencies --    109.9645               114.1360               128.2758
 Red. masses --      1.1774                 1.9530                 4.2901
 Frc consts  --      0.0084                 0.0150                 0.0416
 IR Inten    --      0.0297                 0.0612                 0.7684

                     10                     11                     12
                      A                      A                      A
 Frequencies --    134.2473               197.5731               204.5656
 Red. masses --      6.0688                 3.6058                 3.5819
 Frc consts  --      0.0644                 0.0829                 0.0883
 IR Inten    --      0.4267                 0.5486                 0.9261

                     13                     14                     15
                      A                      A                      A
 Frequencies --    214.3023               230.9445               241.3269
 Red. masses --      2.0397                 1.3951                 2.2570
 Frc consts  --      0.0552                 0.0438                 0.0774
 IR Inten    --      3.0256                 0.1476                 4.9113

                     16                     17                     18
                      A                      A                      A
 Frequencies --    257.5485               277.9520               299.7368
 Red. masses --      2.0491                 2.4450                 3.3816
 Frc consts  --      0.0801                 0.1113                 0.1790
 IR Inten    --      1.5600                 7.3048                 0.5289

                     19                     20                     21
                      A                      A                      A
 Frequencies --    322.1046               351.0111               361.7149
 Red. masses --      2.3757                 3.7677                 2.8373
 Frc consts  --      0.1452                 0.2735                 0.2187
 IR Inten    --      1.7256                 1.9070                 1.9207

                     22                     23                     24
                      A                      A                      A
 Frequencies --    389.7358               440.5787               503.6111
 Red. masses --      4.5086                 7.3941                 3.6170
 Frc consts  --      0.4035                 0.8456                 0.5405
 IR Inten    --      2.0419                11.4146                14.6267

                     25                     26                     27
                      A                      A                      A
 Frequencies --    510.1838               529.0594               583.2595
 Red. masses --      3.4558                 4.2630                 1.7058
 Frc consts  --      0.5300                 0.7030                 0.3419
 IR Inten    --      0.8588                 6.4852                32.6528

                     28                     29                     30
                      A                      A                      A
 Frequencies --    602.4996               629.5313               656.8021
 Red. masses --      1.3231                 3.9598                 3.5929
 Frc consts  --      0.2830                 0.9246                 0.9132
 IR Inten    --    108.8364                18.6068                23.6568

                     31                     32                     33
                      A                      A                      A
 Frequencies --    663.0704               686.4952               708.6406
 Red. masses --      2.4399                 4.5818                 4.0407
 Frc consts  --      0.6320                 1.2722                 1.1955
 IR Inten    --     40.8462                45.5027                21.6526

                     34                     35                     36
                      A                      A                      A
 Frequencies --    751.2426               776.6660               782.2172
 Red. masses --      4.6874                 2.9702                 5.5422
 Frc consts  --      1.5586                 1.0556                 1.9979
 IR Inten    --     25.3644                 0.4622                47.5720

                     37                     38                     39
                      A                      A                      A
 Frequencies --    794.4966               816.3228               840.1310
 Red. masses --      3.5980                 1.1509                 1.4905
 Frc consts  --      1.3381                 0.4519                 0.6198
 IR Inten    --     21.7218                 2.5116                11.3617

                     40                     41                     42
                      A                      A                      A
 Frequencies --    858.6359               930.5386               948.3806
 Red. masses --      2.1818                 1.9718                 2.1549
 Frc consts  --      0.9477                 1.0059                 1.1419
 IR Inten    --      5.6874                 7.8513                 1.3765

                     43                     44                     45
                      A                      A                      A
 Frequencies --    987.7895              1027.7466              1047.8869
 Red. masses --      2.4988                 2.6186                 2.2758
 Frc consts  --      1.4365                 1.6296                 1.4724
 IR Inten    --     14.5002                28.1254                22.9871

                     46                     47                     48
                      A                      A                      A
 Frequencies --   1081.0332              1088.1997              1092.7421
 Red. masses --      1.4903                 2.2964                 5.8811
 Frc consts  --      1.0261                 1.6022                 4.1376
 IR Inten    --      2.9657                26.6293               172.9004

                     49                     50                     51
                      A                      A                      A
 Frequencies --   1110.6942              1133.4547              1149.2990
 Red. masses --      2.5525                 2.5628                 1.9319
 Frc consts  --      1.8552                 1.9399                 1.5035
 IR Inten    --     39.6052                19.9100                 1.9501

                     52                     53                     54
                      A                      A                      A
 Frequencies --   1164.0946              1165.1179              1210.9025
 Red. masses --      1.9918                 2.1960                 2.9040
 Frc consts  --      1.5903                 1.7564                 2.5088
 IR Inten    --    115.0310                89.3686               119.4795

                     55                     56                     57
                      A                      A                      A
 Frequencies --   1220.7208              1238.9467              1288.3062
 Red. masses --      1.9606                 2.3545                 3.8127
 Frc consts  --      1.7214                 2.1294                 3.7284
 IR Inten    --     37.0121                62.3077                17.9989

                     58                     59                     60
                      A                      A                      A
 Frequencies --   1306.6143              1337.9039              1347.4837
 Red. masses --      1.7358                 1.1396                 1.3012
 Frc consts  --      1.7460                 1.2018                 1.3920
 IR Inten    --    101.1624                 9.7621                 6.7225

                     61                     62                     63
                      A                      A                      A
 Frequencies --   1363.7547              1395.0147              1396.4998
 Red. masses --      2.1942                 1.2104                 2.0749
 Frc consts  --      2.4043                 1.3879                 2.3842
 IR Inten    --     93.2778                19.3773                53.6450

                     64                     65                     66
                      A                      A                      A
 Frequencies --   1426.1837              1428.3903              1430.3940
 Red. masses --      1.2942                 1.5974                 1.3757
 Frc consts  --      1.5510                 1.9202                 1.6584
 IR Inten    --      6.9111                27.7166                 5.9366

                     67                     68                     69
                      A                      A                      A
 Frequencies --   1434.2534              1449.8250              1462.3826
 Red. masses --      1.3032                 1.2762                 3.6805
 Frc consts  --      1.5794                 1.5806                 4.6375
 IR Inten    --     19.6670                14.6502                45.2925

                     70                     71                     72
                      A                      A                      A
 Frequencies --   1495.4932              1505.9868              1512.2993
 Red. masses --      1.1401                 1.1188                 1.4953
 Frc consts  --      1.5024                 1.4950                 2.0149
 IR Inten    --      8.0470                25.0317                39.0857

                     73                     74                     75
                      A                      A                      A
 Frequencies --   1515.5023              1518.8457              1519.7302
 Red. masses --      1.0583                 1.0532                 1.0563
 Frc consts  --      1.4321                 1.4315                 1.4373
 IR Inten    --      2.1817                 0.1710                18.1694

                     76                     77                     78
                      A                      A                      A
 Frequencies --   1524.6225              1525.5501              1542.8563
 Red. masses --      1.0589                 1.1068                 1.0681
 Frc consts  --      1.4502                 1.5177                 1.4979
 IR Inten    --      1.3268                 4.0678                 5.7426

                     79                     80                     81
                      A                      A                      A
 Frequencies --   1621.1581              1661.6332              1778.5413
 Red. masses --      7.8747                 7.0096                 7.7173
 Frc consts  --     12.1937                11.4028                14.3829
 IR Inten    --     71.1902                67.3462               329.8921

                     82                     83                     84
                      A                      A                      A
 Frequencies --   1813.6132              3001.2979              3050.2724
 Red. masses --      9.3261                 1.0716                 1.0402
 Frc consts  --     18.0733                 5.6870                 5.7022
 IR Inten    --    292.5172                68.8722                19.0986

                     85                     86                     87
                      A                      A                      A
 Frequencies --   3054.2868              3058.2574              3062.3303
 Red. masses --      1.0846                 1.0732                 1.0393
 Frc consts  --      5.9615                 5.9142                 5.7427
 IR Inten    --     20.1163                29.3348                14.0645

                     88                     89                     90
                      A                      A                      A
 Frequencies --   3065.1330              3100.4757              3104.5017
 Red. masses --      1.0342                 1.1007                 1.0940
 Frc consts  --      5.7249                 6.2339                 6.2123
 IR Inten    --     15.4247                13.2002                20.2900

                     91                     92                     93
                      A                      A                      A
 Frequencies --   3128.1176              3139.4135              3143.7206
 Red. masses --      1.0986                 1.1026                 1.1039
 Frc consts  --      6.3338                 6.4026                 6.4277
 IR Inten    --     28.5489                28.0420                14.8890

                     94                     95                     96
                      A                      A                      A
 Frequencies --   3158.0553              3182.5915              3187.9927
 Red. masses --      1.1013                 1.0980                 1.0909
 Frc consts  --      6.4714                 6.5525                 6.5324
 IR Inten    --     15.3393                 0.2018                 0.9290

                     97                     98                     99
                      A                      A                      A
 Frequencies --   3284.8622              3585.0085              3698.1413
 Red. masses --      1.0974                 1.0756                 1.0640
 Frc consts  --      6.9764                 8.1446                 8.5739
 IR Inten    --      1.6514                16.3746                75.4742

 - Thermochemistry -
 -------------------
 Temperature   298.150 Kelvin.  Pressure   1.00000 Atm.
 Atom     1 has atomic number  6 and mass  12.00000

 Molecular mass:   255.11067 amu.
 Principal axes and moments of inertia in atomic units:
                           1         2         3
     Eigenvalues --  2345.335577401.799518015.78039
           X            0.99999  -0.00308   0.00373
           Y            0.00292   0.99908   0.04277
           Z           -0.00386  -0.04275   0.99908
 This molecule is an asymmetric top.
 Rotational symmetry number  1.
 Warning -- assumption of classical behavior for rotation
           may cause significant error
 Rotational temperatures (Kelvin)      0.03693     0.01170     0.01081
 Rotational constants (GHZ):           0.76950     0.24382     0.22515
 Zero-point vibrational energy     756705.0 (Joules/Mol)
                                  180.85683 (Kcal/Mol)
 Warning -- explicit consideration of  28 degrees of freedom as
           vibrations may cause significant error
 Vibrational temperatures:     24.00    51.13    63.85   102.23   108.67
          (Kelvin)            136.10   158.21   164.22   184.56   193.15
                              284.26   294.32   308.33   332.28   347.22
                              370.55   399.91   431.25   463.44   505.03
                              520.43   560.74   633.89   724.58   734.04
                              761.20   839.18   866.86   905.76   944.99
                              954.01   987.71  1019.58  1080.87  1117.45
                             1125.44  1143.10  1174.51  1208.76  1235.39
                             1338.84  1364.51  1421.21  1478.70  1507.68
                             1555.37  1565.68  1572.21  1598.04  1630.79
                             1653.58  1674.87  1676.34  1742.22  1756.34
                             1782.57  1853.59  1879.93  1924.95  1938.73
                             1962.14  2007.12  2009.25  2051.96  2055.14
                             2058.02  2063.57  2085.97  2104.04  2151.68
                             2166.78  2175.86  2180.47  2185.28  2186.55
                             2193.59  2194.93  2219.83  2332.48  2390.72
                             2558.92  2609.38  4318.20  4388.66  4394.44
                             4400.15  4406.01  4410.04  4460.89  4466.69
                             4500.66  4516.92  4523.11  4543.74  4579.04
                             4586.81  4726.18  5158.03  5320.80

 Zero-point correction=                           0.288214 (Hartree/Particle)
 Thermal correction to Energy=                    0.307194
 Thermal correction to Enthalpy=                  0.308139
 Thermal correction to Gibbs Free Energy=         0.239368
 Sum of electronic and zero-point Energies=           -898.163927
 Sum of electronic and thermal Energies=              -898.144946
 Sum of electronic and thermal Enthalpies=            -898.144002
 Sum of electronic and thermal Free Energies=         -898.212773

                     E (Thermal)             CV                S
                      KCal/Mol        Cal/Mol-Kelvin    Cal/Mol-Kelvin
 Total                  192.767             68.945            144.741
 Electronic               0.000              0.000              0.000
 Translational            0.889              2.981             42.510
 Rotational               0.889              2.981             33.298
 Vibrational            190.990             62.983             68.934
 Vibration     1          0.593              1.986              6.995
 Vibration     2          0.594              1.982              5.493
 Vibration     3          0.595              1.980              5.053
 Vibration     4          0.598              1.968              4.124
 Vibration     5          0.599              1.965              4.004
 Vibration     6          0.603              1.953              3.563
 Vibration     7          0.606              1.941              3.270
 Vibration     8          0.607              1.938              3.197
 Vibration     9          0.611              1.925              2.972
 Vibration    10          0.613              1.919              2.884
 Vibration    11          0.637              1.843              2.156
 Vibration    12          0.640              1.833              2.092
 Vibration    13          0.644              1.819              2.007
 Vibration    14          0.653              1.794              1.872
 Vibration    15          0.658              1.777              1.793
 Vibration    16          0.667              1.750              1.678
 Vibration    17          0.679              1.714              1.546
 Vibration    18          0.692              1.674              1.418
 Vibration    19          0.707              1.631              1.299
 Vibration    20          0.728              1.573              1.162
 Vibration    21          0.736              1.551              1.115
 Vibration    22          0.758              1.492              1.001
 Vibration    23          0.800              1.382              0.825
 Vibration    24          0.859              1.242              0.649
 Vibration    25          0.865              1.227              0.633
 Vibration    26          0.884              1.186              0.589
 Vibration    27          0.940              1.068              0.479
 Vibration    28          0.961              1.026              0.445

                           ! Non-Optimized Parameters !
 Normal termination of Gaussian 16 at Fri Dec 11 20:08:02 2020.

 ----------------------------------------------------------------------
 # B3LYP/6-311++G(d,p) empiricaldispersion=gd3bj scf=xqc pop=npa geom=c
 heck
 ----------------------------------------------------------------------

 ---------------------------------------
 CID_119226689_JID_8240_Energie_neutraal
 ---------------------------------------
 Structure from the checkpoint file:  "JID_8240.chk"
 Charge =  0 Multiplicity = 1

 SCF Done:  E(RB3LYP) =  -898.721446215     A.U. after   16 cycles
 Normal termination of Gaussian 16 at Fri Dec 11 20:14:14 2020.

 ----------------------------------------------------------------------
 # B3LYP/6-311++G(d,p) empiricaldispersion=gd3bj scf=xqc pop=npa geom=c
 heck
 ----------------------------------------------------------------------

 -------------------------------------
 CID_119226689_JID_8240_Energie_kation
 -------------------------------------
 Structure from the checkpoint file:  "JID_8240.chk"
 Charge =  1 Multiplicity = 2

 SCF Done:  E(UB3LYP) =  -898.417672274     A.U. after   26 cycles
 Normal termination of Gaussian 16 at Fri Dec 11 20:28:01 2020.
 Gaussian 16:  ES64L-G16RevA.03 25-Dec-2016

 ----------------------------------------------------------------------
 # B3LYP/6-311++G(d,p) empiricaldispersion=gd3bj scf=xqc pop=npa geom=c
 heck
 ----------------------------------------------------------------------

 ------------------------------------
 CID_119226689_JID_8240_Energie_anion
 ------------------------------------
 Structure from the checkpoint file:  "JID_8240.chk"
 Charge = -1 Multiplicity = 2

                         Standard orientation:
 ---------------------------------------------------------------------
 Center     Atomic      Atomic             Coordinates (Angstroms)
 Number     Number       Type             X           Y           Z
 ---------------------------------------------------------------------
      1          6           0       -0.722094    0.776235    2.048996
      2          6           0       -1.431894    1.809684    1.179857
      3          8           0       -2.063573    1.279655    0.015506
      4          6           0       -3.140810    0.389175    0.271226
      5          6           0       -4.192250    0.575470   -0.822702
      6          6           0       -2.715708   -1.085535    0.363542
      7          8           0       -3.201337   -1.814171    1.221323
      8          7           0       -1.857676   -1.587857   -0.580298
      9          6           0       -1.043587   -0.893489   -1.574261
     10          6           0        0.329974   -0.535892   -1.090427
     11          6           0        1.347027   -1.239465   -0.529656
     12          6           0        2.393542   -0.291687   -0.245984
     13          6           0        1.937642    0.936684   -0.667687
     14          8           0        0.689460    0.792699   -1.181487
     15          6           0        2.516859    2.302937   -0.659340
     16          6           0        3.693205   -0.549368    0.374108
     17          8           0        4.556817    0.276805    0.609540
     18          8           0        3.855747   -1.864277    0.679561
     19          1           0       -0.232556    1.280791    2.890127
     20          1           0        0.040066    0.237444    1.480467
     21          1           0       -1.423799    0.044182    2.461348
     22          1           0       -2.179732    2.354645    1.777924
     23          1           0       -0.715548    2.540210    0.792671
     24          1           0       -3.594353    0.609051    1.245773
     25          1           0       -3.777038    0.363981   -1.812853
     26          1           0       -5.036996   -0.098808   -0.650720
     27          1           0       -4.551100    1.608795   -0.814411
     28          1           0       -1.636631   -2.561928   -0.410009
     29          1           0       -1.540267    0.023011   -1.884765
     30          1           0       -0.976577   -1.549220   -2.450690
     31          1           0        1.372385   -2.298145   -0.318142
     32          1           0        2.577283    2.708069   -1.676431
     33          1           0        1.893890    2.986306   -0.069297
     34          1           0        3.516431    2.263211   -0.225704
     35          1           0        4.739925   -1.930764    1.085191
 ---------------------------------------------------------------------

 SCF Done:  E(UB3LYP) =  -898.714217495     A.U. after   33 cycles
 SCF Done:  E(UB3LYP) =  -898.714217495     a.u. after    1 cycles

 The electronic state is 2-A.
 Alpha  occ. eigenvalues --  -19.06764 -19.05032 -19.03332 -18.99247 -18.98132
 Alpha  occ. eigenvalues --  -14.24050 -10.17489 -10.17005 -10.13814 -10.12604
 Alpha  occ. eigenvalues --  -10.11733 -10.11382 -10.10517 -10.07416 -10.06425
 Alpha  occ. eigenvalues --  -10.06374 -10.06188 -10.05847  -0.99816  -0.98666
 Alpha  occ. eigenvalues --   -0.95375  -0.93653  -0.89307  -0.82541  -0.69829
 Alpha  occ. eigenvalues --   -0.69319  -0.68300  -0.64372  -0.62742  -0.57467
 Alpha  occ. eigenvalues --   -0.56420  -0.53851  -0.52017  -0.49391  -0.47672
 Alpha  occ. eigenvalues --   -0.42876  -0.41783  -0.41659  -0.39490  -0.38826
 Alpha  occ. eigenvalues --   -0.36982  -0.36607  -0.35682  -0.34924  -0.34351
 Alpha  occ. eigenvalues --   -0.33875  -0.32712  -0.32705  -0.31153  -0.30888
 Alpha  occ. eigenvalues --   -0.30558  -0.29915  -0.29425  -0.28971  -0.28751
 Alpha  occ. eigenvalues --   -0.28480  -0.27177  -0.27008  -0.25789  -0.24946
 Alpha  occ. eigenvalues --   -0.22468  -0.21080  -0.19321  -0.17333  -0.16423
 Alpha  occ. eigenvalues --   -0.16087  -0.14986  -0.11690   0.04627
 Alpha virt. eigenvalues --    0.06260   0.06906   0.07454   0.08095   0.08329
 Alpha virt. eigenvalues --    0.09596   0.09740   0.10007   0.10437   0.11274
 Alpha virt. eigenvalues --    0.11569   0.11787   0.12362   0.12763   0.13012

  Beta  occ. eigenvalues --  -19.06614 -19.04968 -19.03329 -18.99234 -18.97986
  Beta  occ. eigenvalues --  -14.24037 -10.17483 -10.16766 -10.13808 -10.12599
  Beta  occ. eigenvalues --  -10.11713 -10.11390 -10.10110 -10.07384 -10.06457
  Beta  occ. eigenvalues --  -10.06369 -10.06189 -10.05891  -0.99526  -0.98437
  Beta  occ. eigenvalues --   -0.95362  -0.93639  -0.89067  -0.82516  -0.69704
  Beta  occ. eigenvalues --   -0.69257  -0.68056  -0.64350  -0.62634  -0.57285
  Beta  occ. eigenvalues --   -0.56341  -0.53587  -0.51976  -0.49316  -0.47616
  Beta  occ. eigenvalues --   -0.42684  -0.41739  -0.41588  -0.39377  -0.38799
  Beta  occ. eigenvalues --   -0.36739  -0.36434  -0.35396  -0.34636  -0.34084
  Beta  occ. eigenvalues --   -0.33803  -0.32654  -0.31888  -0.31071  -0.30852
  Beta  occ. eigenvalues --   -0.30500  -0.29810  -0.29328  -0.28842  -0.28622
  Beta  occ. eigenvalues --   -0.28408  -0.27078  -0.26947  -0.25683  -0.24889
  Beta  occ. eigenvalues --   -0.22450  -0.20403  -0.19296  -0.17032  -0.16295
  Beta  occ. eigenvalues --   -0.15985  -0.14966  -0.10742
  Beta virt. eigenvalues --    0.06702   0.07489   0.07646   0.08280   0.08488
  Beta virt. eigenvalues --    0.09382   0.09806   0.10009   0.10111   0.10696
  Beta virt. eigenvalues --    0.11412   0.11835   0.12202   0.12413   0.12750

 Mulliken charges and spin densities:
               1          2
     1  C   -0.350952  -0.013225
     2  C   -0.178465  -0.161067
     3  O    0.004542   0.006748
     4  C   -0.703196   0.541226
     5  C    0.899578  -1.367265
     6  C   -0.057152  -0.099499
     7  O   -0.293565   0.021382
     8  N   -0.250460   0.107186
     9  C    0.475995  -1.510601
    10  C   -0.543124   0.508125
    11  C    0.297093  -0.161133
    12  C    0.293999  -0.035508
    13  C   -0.562617   0.543315
    14  O    0.126374   0.034502
    15  C   -0.383485  -0.199291
    16  C    0.162455   0.161140
    17  O   -0.377443   0.050630
    18  O   -0.177307   0.006896
    19  H    0.098266   0.045715
    20  H    0.266443  -0.030757
    21  H    0.123261   0.043234
    22  H    0.034094   0.085322
    23  H    0.111348   0.056787
    24  H    0.091731   0.108369
    25  H   -0.329151   0.474678
    26  H    0.010530   0.153303
    27  H   -0.229514   0.386470
    28  H    0.117989   0.207790
    29  H    0.376437  -0.147436
    30  H   -0.658792   0.867704
    31  H    0.042511   0.137981
    32  H    0.004476   0.153509
    33  H    0.145586  -0.017278
    34  H    0.187315   0.008105
    35  H    0.225197   0.032942
 Sum of Mulliken charges =  -1.00000   1.00000

 Dipole moment (field-independent basis, Debye):
    X=              1.4824    Y=              1.7246    Z=              2.5023  Tot=              3.3813
 Quadrupole moment (field-independent basis, Debye-Ang):
   XX=           -184.8122   YY=           -135.6078   ZZ=           -138.4405
   XY=             -9.9062   XZ=             -3.5901   YZ=              1.3393

 Summary of Natural Population Analysis:

                                       Natural Population
                Natural  -----------------------------------------------
    Atom  No    Charge         Core      Valence    Rydberg      Total
 -----------------------------------------------------------------------
      C    1   -0.30824      0.99965     2.30415    0.00444     3.30824
      C    2   -0.00634      0.99959     1.99511    0.01165     3.00634
      O    3   -0.30479      0.99988     3.29380    0.01111     4.30479
      C    4    0.02608      0.99952     1.95995    0.01446     2.97392
      C    5   -0.28806      0.99964     2.28221    0.00622     3.28806
      C    6    0.33548      0.99963     1.64035    0.02454     2.66452
      O    7   -0.32608      0.99988     3.32059    0.00561     4.32608
      N    8   -0.31298      0.99967     2.80211    0.01120     3.81298
      C    9   -0.11253      0.99955     2.10041    0.01257     3.11253
      C   10    0.12963      0.99945     1.85594    0.01498     2.87037
      C   11   -0.13486      0.99946     2.12615    0.00925     3.13486
      C   12   -0.14303      0.99940     2.13306    0.01056     3.14303
      C   13    0.25708      0.99946     1.72953    0.01393     2.74292
      O   14   -0.22489      0.99985     3.21706    0.00799     4.22489
      C   15   -0.31573      0.99963     2.31173    0.00438     3.31573
      C   16    0.42384      0.99965     1.55272    0.02379     2.57616
      O   17   -0.31912      0.99987     3.31366    0.00559     4.31912
      O   18   -0.34966      0.99988     3.34330    0.00648     4.34966
      H   19    0.09895      0.00000     0.40033    0.00072     0.40105
      H   20    0.11130      0.00000     0.38744    0.00126     0.38870
      H   21    0.10199      0.00000     0.39700    0.00101     0.39801
      H   22    0.07386      0.00000     0.42495    0.00119     0.42614
      H   23    0.09197      0.00000     0.40690    0.00113     0.40803
      H   24    0.09294      0.00000     0.40519    0.00187     0.40706
      H   25    0.10269      0.00000     0.39568    0.00164     0.39731
      H   26    0.10406      0.00000     0.39503    0.00091     0.39594
      H   27    0.10320      0.00000     0.39541    0.00139     0.39680
      H   28    0.19313      0.00000     0.30425    0.00262     0.30687
      H   29    0.11772      0.00000     0.38005    0.00223     0.38228
      H   30    0.10465      0.00000     0.39281    0.00254     0.39535
      H   31    0.11152      0.00000     0.38738    0.00110     0.38848
      H   32    0.10700      0.00000     0.39163    0.00136     0.39300
      H   33    0.10400      0.00000     0.39496    0.00104     0.39600
      H   34    0.12276      0.00000     0.37638    0.00086     0.37724
      H   35    0.23248      0.00000     0.26375    0.00377     0.26752
 =======================================================================
   * Total *   -0.00000     17.99364    49.78096    0.22540    68.00000

 Normal termination of Gaussian 16 at Fri Dec 11 20:46:30 2020.
