 Gaussian 16, Revision A.03,

 -----------------------------------------------------------
 # opt freq B3LYP/6-31G(d) empiricaldispersion=gd3bj scf=xqc
 -----------------------------------------------------------

 ------------------------------
 CID_19736815_JID_5528_neutraal
 ------------------------------
 Symbolic Z-matrix:
 Charge =  0 Multiplicity = 1

 SCF Done:  E(RB3LYP) =  -992.068757725     A.U. after   16 cycles
 SCF Done:  E(RB3LYP) =  -992.074690053     A.U. after   14 cycles
 SCF Done:  E(RB3LYP) =  -992.075065859     A.U. after   12 cycles
 SCF Done:  E(RB3LYP) =  -992.074972189     A.U. after   12 cycles
 SCF Done:  E(RB3LYP) =  -992.075205477     A.U. after   12 cycles
 SCF Done:  E(RB3LYP) =  -992.075263246     A.U. after   12 cycles
 SCF Done:  E(RB3LYP) =  -992.075301014     A.U. after   12 cycles
 SCF Done:  E(RB3LYP) =  -992.075309314     A.U. after   11 cycles
 SCF Done:  E(RB3LYP) =  -992.075312458     A.U. after   11 cycles
 SCF Done:  E(RB3LYP) =  -992.075313488     A.U. after    9 cycles
 SCF Done:  E(RB3LYP) =  -992.075313933     A.U. after    8 cycles
 SCF Done:  E(RB3LYP) =  -992.075314242     A.U. after    8 cycles
 SCF Done:  E(RB3LYP) =  -992.075314429     A.U. after    8 cycles
 SCF Done:  E(RB3LYP) =  -992.075314520     A.U. after    8 cycles
 Optimization completed.
    -- Stationary point found.
 Normal termination of Gaussian 16 at Thu Dec 10 16:29:17 2020.

 --------------------------------------------------------------------
 #N Geom=AllCheck Guess=TCheck SCRF=Check GenChk RB3LYP/6-31G(d) Freq
 --------------------------------------------------------------------

 Structure from the checkpoint file:  "JID_5528.chk"
 ------------------------------
 CID_19736815_JID_5528_neutraal
 ------------------------------
 Charge =  0 Multiplicity = 1

 SCF Done:  E(RB3LYP) =  -992.075314520     A.U. after    1 cycles

  Exact polarizability: 274.758 -12.838 126.372  16.408  -0.542  94.773
 Approx polarizability: 413.692 -40.387 222.751  34.016  -2.605 158.155

                      1                      2                      3
                      A                      A                      A
 Frequencies --     25.5967                32.3816                49.2337
 Red. masses --      5.9302                 7.2521                 3.4064
 Frc consts  --      0.0023                 0.0045                 0.0049
 IR Inten    --      0.8893                 1.8764                 0.6123

                      4                      5                      6
                      A                      A                      A
 Frequencies --     93.1919               201.9120               218.3188
 Red. masses --      4.2539                 4.9474                 2.5043
 Frc consts  --      0.0218                 0.1188                 0.0703
 IR Inten    --      4.4492                 3.2595                 0.4000

                      7                      8                      9
                      A                      A                      A
 Frequencies --    232.2525               234.0318               292.0756
 Red. masses --      3.3995                 5.7056                 4.6350
 Frc consts  --      0.1080                 0.1841                 0.2330
 IR Inten    --      3.8248                 0.4253                 0.3231

                     10                     11                     12
                      A                      A                      A
 Frequencies --    302.1254               311.8066               387.1781
 Red. masses --      6.0277                 1.0591                 4.3642
 Frc consts  --      0.3242                 0.0607                 0.3855
 IR Inten    --      7.8418                19.6479                 3.8660

                     13                     14                     15
                      A                      A                      A
 Frequencies --    418.3689               460.7394               470.9214
 Red. masses --      5.1202                 3.0367                 5.0699
 Frc consts  --      0.5280                 0.3798                 0.6624
 IR Inten    --      1.7895                 8.9677                16.0571

                     16                     17                     18
                      A                      A                      A
 Frequencies --    472.4206               534.9171               557.7873
 Red. masses --      2.6779                 6.3297                 3.4873
 Frc consts  --      0.3521                 1.0671                 0.6393
 IR Inten    --      9.2122                19.1275                37.4533

                     19                     20                     21
                      A                      A                      A
 Frequencies --    587.2633               612.0393               628.9060
 Red. masses --      1.7322                 6.1238                 2.8868
 Frc consts  --      0.3520                 1.3515                 0.6727
 IR Inten    --    252.0915                 3.6382                90.6906

                     22                     23                     24
                      A                      A                      A
 Frequencies --    658.3213               692.6532               703.3629
 Red. masses --      4.4509                 3.3924                 2.7999
 Frc consts  --      1.1365                 0.9589                 0.8161
 IR Inten    --     17.7381                 8.7592                 8.7337

                     25                     26                     27
                      A                      A                      A
 Frequencies --    755.7899               774.8242               798.6963
 Red. masses --      3.7518                 1.4469                 3.4562
 Frc consts  --      1.2627                 0.5118                 1.2990
 IR Inten    --      0.1897                45.7479                29.0434

                     28                     29                     30
                      A                      A                      A
 Frequencies --    810.6317               844.3257               848.7220
 Red. masses --      1.6382                 1.6094                 1.5809
 Frc consts  --      0.6342                 0.6760                 0.6709
 IR Inten    --      9.5850                45.5997                13.1116

                     31                     32                     33
                      A                      A                      A
 Frequencies --    860.0184               926.8599               956.6816
 Red. masses --      1.6620                 2.1616                 1.2482
 Frc consts  --      0.7243                 1.0941                 0.6731
 IR Inten    --     15.6914                 1.7410                 0.8907

                     34                     35                     36
                      A                      A                      A
 Frequencies --    968.7946               981.3070              1004.6262
 Red. masses --      3.1003                 2.7622                 1.3013
 Frc consts  --      1.7144                 1.5672                 0.7738
 IR Inten    --      4.0917                39.9926                 1.2489

                     37                     38                     39
                      A                      A                      A
 Frequencies --   1016.7177              1031.2006              1103.6995
 Red. masses --      5.8236                 1.9434                 1.5787
 Frc consts  --      3.5469                 1.2176                 1.1331
 IR Inten    --     10.6422                18.3531                 2.3869

                     40                     41                     42
                      A                      A                      A
 Frequencies --   1145.2361              1148.4329              1180.7983
 Red. masses --      1.5684                 1.7669                 1.8911
 Frc consts  --      1.2120                 1.3730                 1.5535
 IR Inten    --     56.8347                96.4029                20.3245

                     43                     44                     45
                      A                      A                      A
 Frequencies --   1198.0840              1204.0399              1214.5350
 Red. masses --      1.6093                 1.3049                 1.1545
 Frc consts  --      1.3610                 1.1146                 1.0034
 IR Inten    --     14.4832                40.3521                29.9572

                     46                     47                     48
                      A                      A                      A
 Frequencies --   1248.3696              1274.9123              1326.8746
 Red. masses --      4.1594                 1.7126                 1.8993
 Frc consts  --      3.8191                 1.6401                 1.9701
 IR Inten    --    391.2887                49.1350                25.8761

                     49                     50                     51
                      A                      A                      A
 Frequencies --   1347.1917              1357.1494              1369.2217
 Red. masses --      1.8771                 2.1824                 2.1990
 Frc consts  --      2.0072                 2.3683                 2.4290
 IR Inten    --      5.4709                 8.4718                19.7712

                     52                     53                     54
                      A                      A                      A
 Frequencies --   1380.8476              1437.9429              1474.7465
 Red. masses --      5.3468                 1.0942                 2.0613
 Frc consts  --      6.0067                 1.3329                 2.6414
 IR Inten    --     29.1660                16.4363               152.5576

                     55                     56                     57
                      A                      A                      A
 Frequencies --   1522.6216              1544.3549              1602.4929
 Red. masses --      3.0984                 2.6470                 6.7971
 Frc consts  --      4.2322                 3.7196                10.2840
 IR Inten    --     32.5206               107.1366               135.8152

                     58                     59                     60
                      A                      A                      A
 Frequencies --   1644.1420              1672.3716              1696.6374
 Red. masses --      6.0636                 3.5801                 1.3276
 Frc consts  --      9.6574                 5.8995                 2.2517
 IR Inten    --     60.4252               180.6321               211.8953

                     61                     62                     63
                      A                      A                      A
 Frequencies --   1725.6736              3019.3071              3063.4998
 Red. masses --      6.6396                 1.0719                 1.0874
 Frc consts  --     11.6496                 5.7573                 6.0128
 IR Inten    --     16.1873                 3.0922                 0.8929

                     64                     65                     66
                      A                      A                      A
 Frequencies --   3183.7373              3201.2557              3204.5583
 Red. masses --      1.0871                 1.0928                 1.0912
 Frc consts  --      6.4920                 6.5984                 6.6021
 IR Inten    --      9.0542                27.0897                 4.1751

                     67                     68                     69
                      A                      A                      A
 Frequencies --   3208.9329              3214.2372              3225.4329
 Red. masses --      1.0872                 1.0915                 1.0959
 Frc consts  --      6.5961                 6.6438                 6.7172
 IR Inten    --      0.8990                 5.5320                 3.9468

                     70                     71                     72
                      A                      A                      A
 Frequencies --   3230.4411              3556.8155              3656.3311
 Red. masses --      1.0928                 1.0478                 1.0985
 Frc consts  --      6.7191                 7.8100                 8.6526
 IR Inten    --      2.8185                20.4806                10.1582

 - Thermochemistry -
 -------------------
 Temperature   298.150 Kelvin.  Pressure   1.00000 Atm.
 Atom     1 has atomic number  6 and mass  12.00000

 Molecular mass:   217.05614 amu.
 Principal axes and moments of inertia in atomic units:
                           1         2         3
     Eigenvalues --  1040.375798350.540078706.68090
           X            0.99997   0.00654   0.00415
           Y           -0.00653   0.99998  -0.00242
           Z           -0.00417   0.00240   0.99999
 This molecule is an asymmetric top.
 Rotational symmetry number  1.
 Warning -- assumption of classical behavior for rotation
           may cause significant error
 Rotational temperatures (Kelvin)      0.08325     0.01037     0.00995
 Rotational constants (GHZ):           1.73470     0.21612     0.20728
 Zero-point vibrational energy     534383.4 (Joules/Mol)
                                  127.72070 (Kcal/Mol)
 Warning -- explicit consideration of  20 degrees of freedom as
           vibrations may cause significant error
 Vibrational temperatures:     36.83    46.59    70.84   134.08   290.51
          (Kelvin)            314.11   334.16   336.72   420.23   434.69
                              448.62   557.06   601.94   662.90   677.55
                              679.71   769.63   802.53   844.94   880.59
                              904.86   947.18   996.57  1011.98  1087.41
                             1114.80  1149.15  1166.32  1214.80  1221.12
                             1237.37  1333.54  1376.45  1393.88  1411.88
                             1445.43  1462.83  1483.67  1587.98  1647.74
                             1652.34  1698.91  1723.78  1732.34  1747.45
                             1796.13  1834.31  1909.08  1938.31  1952.64
                             1970.00  1986.73  2068.88  2121.83  2190.71
                             2221.98  2305.63  2365.55  2406.17  2441.08
                             2482.86  4344.11  4407.69  4580.69  4605.89
                             4610.64  4616.94  4624.57  4640.68  4647.88
                             5117.46  5260.64

 Zero-point correction=                           0.203536 (Hartree/Particle)
 Thermal correction to Energy=                    0.216685
 Thermal correction to Enthalpy=                  0.217629
 Thermal correction to Gibbs Free Energy=         0.161944
 Sum of electronic and zero-point Energies=           -991.871779
 Sum of electronic and thermal Energies=              -991.858629
 Sum of electronic and thermal Enthalpies=            -991.857685
 Sum of electronic and thermal Free Energies=         -991.913371

                     E (Thermal)             CV                S
                      KCal/Mol        Cal/Mol-Kelvin    Cal/Mol-Kelvin
 Total                  135.972             51.147            117.201
 Electronic               0.000              0.000              0.000
 Translational            0.889              2.981             42.028
 Rotational               0.889              2.981             32.692
 Vibrational            134.195             45.185             42.481
 Vibration     1          0.593              1.985              6.144
 Vibration     2          0.594              1.983              5.678
 Vibration     3          0.595              1.978              4.848
 Vibration     4          0.602              1.954              3.592
 Vibration     5          0.639              1.837              2.116
 Vibration     6          0.646              1.813              1.973
 Vibration     7          0.653              1.792              1.861
 Vibration     8          0.654              1.789              1.848
 Vibration     9          0.687              1.688              1.462
 Vibration    10          0.694              1.670              1.405
 Vibration    11          0.700              1.651              1.353
 Vibration    12          0.756              1.498              1.011
 Vibration    13          0.781              1.430              0.898
 Vibration    14          0.819              1.337              0.764
 Vibration    15          0.828              1.315              0.735
 Vibration    16          0.829              1.311              0.731
 Vibration    17          0.890              1.173              0.576
 Vibration    18          0.913              1.123              0.528
 Vibration    19          0.944              1.059              0.472
 Vibration    20          0.971              1.006              0.429

                           ! Non-Optimized Parameters !
 Normal termination of Gaussian 16 at Thu Dec 10 16:36:52 2020.

 ----------------------------------------------------------------------
 # B3LYP/6-311++G(d,p) empiricaldispersion=gd3bj scf=xqc pop=npa geom=c
 heck
 ----------------------------------------------------------------------

 --------------------------------------
 CID_19736815_JID_5528_Energie_neutraal
 --------------------------------------
 Structure from the checkpoint file:  "JID_5528.chk"
 Charge =  0 Multiplicity = 1

 SCF Done:  E(RB3LYP) =  -992.263959878     A.U. after   17 cycles
 Normal termination of Gaussian 16 at Thu Dec 10 16:40:16 2020.

 ----------------------------------------------------------------------
 # B3LYP/6-311++G(d,p) empiricaldispersion=gd3bj scf=xqc pop=npa geom=c
 heck
 ----------------------------------------------------------------------

 ------------------------------------
 CID_19736815_JID_5528_Energie_kation
 ------------------------------------
 Structure from the checkpoint file:  "JID_5528.chk"
 Charge =  1 Multiplicity = 2

 SCF Done:  E(UB3LYP) =  -991.988198975     A.U. after   33 cycles
 SCF Done:  E(UB3LYP) =  -991.988198975     a.u. after    2 cycles
 Normal termination of Gaussian 16 at Thu Dec 10 16:55:09 2020.
 Gaussian 16:  ES64L-G16RevA.03 25-Dec-2016

 ----------------------------------------------------------------------
 # B3LYP/6-311++G(d,p) empiricaldispersion=gd3bj scf=xqc pop=npa geom=c
 heck
 ----------------------------------------------------------------------

 -----------------------------------
 CID_19736815_JID_5528_Energie_anion
 -----------------------------------
 Structure from the checkpoint file:  "JID_5528.chk"
 Charge = -1 Multiplicity = 2

                         Standard orientation:
 ---------------------------------------------------------------------
 Center     Atomic      Atomic             Coordinates (Angstroms)
 Number     Number       Type             X           Y           Z
 ---------------------------------------------------------------------
      1          6           0        3.037712    0.999648    0.764421
      2          6           0        1.603622    1.426514    0.839772
      3          6           0        0.677040    0.881216    0.035162
      4          6           0        1.031130   -0.156217   -0.916485
      5          6           0        2.298244   -0.638194   -1.012316
      6          6           0        3.365181   -0.151820   -0.171477
      7         16           0        4.888046   -0.804099   -0.231948
      8          8           0       -0.616021    1.360918    0.032239
      9          6           0       -1.644261    0.445098    0.175157
     10          6           0       -1.490100   -0.746576    0.886481
     11          6           0       -2.597924   -1.588793    1.000984
     12          6           0       -3.824025   -1.255136    0.437372
     13          6           0       -3.969431   -0.046547   -0.268582
     14          6           0       -2.860825    0.801282   -0.399428
     15          7           0       -5.177812    0.272789   -0.886731
     16          1           0        3.410912    0.752942    1.766970
     17          1           0        3.654702    1.858729    0.457381
     18          1           0        1.325076    2.209517    1.538012
     19          1           0        0.244120   -0.542371   -1.557001
     20          1           0        2.540357   -1.420652   -1.723693
     21          1           0       -0.542518   -0.996466    1.348686
     22          1           0       -2.501401   -2.520465    1.551273
     23          1           0       -4.674113   -1.924950    0.535363
     24          1           0       -2.929463    1.734980   -0.949178
     25          1           0       -5.327256    1.259777   -1.053912
     26          1           0       -5.994475   -0.165181   -0.479887
 ---------------------------------------------------------------------

 SCF Done:  E(UB3LYP) =  -992.308882001     A.U. after   23 cycles

 The electronic state is 2-A.
 Alpha  occ. eigenvalues --  -88.62287 -19.04489 -14.24690 -10.13809 -10.13123
 Alpha  occ. eigenvalues --  -10.08896 -10.08623 -10.07820 -10.07528 -10.06830
 Alpha  occ. eigenvalues --  -10.04239 -10.03307 -10.02512 -10.01885 -10.01561
 Alpha  occ. eigenvalues --   -7.71076  -5.67359  -5.67134  -5.66612  -0.96349
 Alpha  occ. eigenvalues --   -0.84632  -0.75077  -0.70297  -0.65992  -0.64122
 Alpha  occ. eigenvalues --   -0.61449  -0.60693  -0.54269  -0.52663  -0.50172
 Alpha  occ. eigenvalues --   -0.47441  -0.45286  -0.43736  -0.41457  -0.40191
 Alpha  occ. eigenvalues --   -0.38223  -0.36315  -0.34035  -0.33862  -0.30980
 Alpha  occ. eigenvalues --   -0.30446  -0.30238  -0.29196  -0.28336  -0.27869
 Alpha  occ. eigenvalues --   -0.26386  -0.25826  -0.24711  -0.22080  -0.19393
 Alpha  occ. eigenvalues --   -0.18172  -0.17862  -0.14984  -0.13546  -0.11853
 Alpha  occ. eigenvalues --   -0.06909  -0.04328   0.01595
 Alpha virt. eigenvalues --    0.04971   0.07225   0.07920   0.08552   0.09374
 Alpha virt. eigenvalues --    0.10206   0.10482   0.11374   0.12111   0.12594
 Alpha virt. eigenvalues --    0.13058   0.13749   0.13826   0.14449   0.15183

  Beta  occ. eigenvalues --  -88.62167 -19.04495 -14.24688 -10.13817 -10.13115
  Beta  occ. eigenvalues --  -10.09017 -10.08599 -10.07817 -10.07520 -10.06838
  Beta  occ. eigenvalues --  -10.03803 -10.03369 -10.02199 -10.01597 -10.01426
  Beta  occ. eigenvalues --   -7.70968  -5.67306  -5.66747  -5.66544  -0.96370
  Beta  occ. eigenvalues --   -0.84623  -0.75059  -0.69802  -0.65872  -0.64085
  Beta  occ. eigenvalues --   -0.60950  -0.60143  -0.54077  -0.52635  -0.50009
  Beta  occ. eigenvalues --   -0.46888  -0.45075  -0.43725  -0.40993  -0.40089
  Beta  occ. eigenvalues --   -0.38206  -0.36304  -0.33996  -0.33710  -0.30564
  Beta  occ. eigenvalues --   -0.30210  -0.30142  -0.28591  -0.28181  -0.27722
  Beta  occ. eigenvalues --   -0.26200  -0.25718  -0.24524  -0.21929  -0.19144
  Beta  occ. eigenvalues --   -0.17603  -0.16642  -0.14344  -0.12720  -0.11303
  Beta  occ. eigenvalues --   -0.05099  -0.04040
  Beta virt. eigenvalues --    0.04967   0.07157   0.07420   0.08435   0.08977
  Beta virt. eigenvalues --    0.09424   0.10205   0.10478   0.11379   0.12168
  Beta virt. eigenvalues --    0.12801   0.13056   0.13812   0.13838   0.15133

 Mulliken charges and spin densities:
               1          2
     1  C   -0.860103  -0.103871
     2  C   -0.057127   0.228724
     3  C   -0.367807  -0.089718
     4  C    0.184477   0.317132
     5  C   -0.233312  -0.036311
     6  C    1.009469   0.318417
     7  S   -1.095543   0.273298
     8  O   -0.023516   0.001490
     9  C   -0.422677   0.015042
    10  C    0.132778  -0.020549
    11  C   -0.205904   0.007280
    12  C    0.033644   0.006331
    13  C   -0.286947   0.002292
    14  C   -0.153839   0.018582
    15  N   -0.313140   0.001142
    16  H    0.111806   0.039124
    17  H    0.104100   0.067374
    18  H    0.141377  -0.014790
    19  H    0.133529  -0.026697
    20  H    0.129311  -0.001160
    21  H    0.184710  -0.001219
    22  H    0.159867  -0.001905
    23  H    0.104179  -0.000028
    24  H    0.134003  -0.000372
    25  H    0.229703   0.000355
    26  H    0.226964   0.000036
 Sum of Mulliken charges =  -1.00000   1.00000

 Dipole moment (field-independent basis, Debye):
    X=            -15.5192    Y=              1.7418    Z=              1.3868  Tot=             15.6781
 Quadrupole moment (field-independent basis, Debye-Ang):
   XX=           -172.5314   YY=           -105.0027   ZZ=           -106.9715
   XY=              8.0758   XZ=              3.2857   YZ=             -3.1350

 Summary of Natural Population Analysis:

                                       Natural Population
                Natural  -----------------------------------------------
    Atom  No    Charge         Core      Valence    Rydberg      Total
 -----------------------------------------------------------------------
      C    1   -0.23618      0.99957     2.22762    0.00899     3.23618
      C    2   -0.02601      0.99949     2.01847    0.00805     3.02601
      C    3    0.09593      0.99932     1.89199    0.01276     2.90407
      C    4   -0.01660      0.99951     2.00797    0.00911     3.01660
      C    5   -0.12792      0.99949     2.11729    0.01114     3.12792
      C    6    0.01976      0.99959     1.96677    0.01388     2.98024
      S    7   -0.05771      4.99949     3.04103    0.01719     8.05771
      O    8   -0.27367      0.99984     3.26264    0.01119     4.27367
      C    9    0.17357      0.99937     1.81462    0.01244     2.82643
      C   10   -0.14944      0.99951     2.14168    0.00825     3.14944
      C   11   -0.08173      0.99959     2.07306    0.00908     3.08173
      C   12   -0.14737      0.99953     2.13888    0.00896     3.14737
      C   13    0.08671      0.99951     1.90401    0.00977     2.91329
      C   14   -0.14877      0.99947     2.14092    0.00838     3.14877
      N   15   -0.39913      0.99972     2.89039    0.00903     3.89913
      H   16    0.11807      0.00000     0.38052    0.00141     0.38193
      H   17    0.11996      0.00000     0.37784    0.00220     0.38004
      H   18    0.08867      0.00000     0.41016    0.00117     0.41133
      H   19    0.09094      0.00000     0.40772    0.00134     0.40906
      H   20    0.09687      0.00000     0.40075    0.00238     0.40313
      H   21    0.11755      0.00000     0.38121    0.00124     0.38245
      H   22    0.09695      0.00000     0.40209    0.00096     0.40305
      H   23    0.09359      0.00000     0.40532    0.00108     0.40641
      H   24    0.10262      0.00000     0.39576    0.00162     0.39738
      H   25    0.18238      0.00000     0.31624    0.00139     0.31762
      H   26    0.18097      0.00000     0.31760    0.00143     0.31903
 =======================================================================
   * Total *    0.00000     18.99300    37.83256    0.17444    57.00000

 Normal termination of Gaussian 16 at Thu Dec 10 17:01:45 2020.
