 Gaussian 16, Revision A.03,

 ----------------------------------------------------------------------
 # opt=(cartesian,calcfc,maxcycle=500) freq B3LYP/6-31G(d) empiricaldis
 persion=gd3bj scf=xqc
 ----------------------------------------------------------------------

 -----------------------------
 CID_141220835_JID_96_neutraal
 -----------------------------
 Symbolic Z-matrix:
 Charge =  0 Multiplicity = 1

 SCF Done:  E(RB3LYP) =  -458.726346088     A.U. after   14 cycles
 SCF Done:  E(RB3LYP) =  -458.729967968     A.U. after   12 cycles
 SCF Done:  E(RB3LYP) =  -458.730158077     A.U. after   12 cycles
 SCF Done:  E(RB3LYP) =  -458.730196760     A.U. after   11 cycles
 SCF Done:  E(RB3LYP) =  -458.730157854     A.U. after   12 cycles
 SCF Done:  E(RB3LYP) =  -458.730189474     A.U. after   11 cycles
 SCF Done:  E(RB3LYP) =  -458.730210644     A.U. after    8 cycles
 SCF Done:  E(RB3LYP) =  -458.730236573     A.U. after   11 cycles
 SCF Done:  E(RB3LYP) =  -458.730246491     A.U. after   12 cycles
 SCF Done:  E(RB3LYP) =  -458.730276239     A.U. after   11 cycles
 SCF Done:  E(RB3LYP) =  -458.730311704     A.U. after    7 cycles
 SCF Done:  E(RB3LYP) =  -458.730311709     A.U. after    6 cycles
 SCF Done:  E(RB3LYP) =  -458.730311704     A.U. after    7 cycles
 SCF Done:  E(RB3LYP) =  -458.730311709     A.U. after    7 cycles
 SCF Done:  E(RB3LYP) =  -458.730311708     A.U. after    7 cycles
 Optimization completed.
    -- Stationary point found.
 Normal termination of Gaussian 16 at Sat Feb 27 18:29:11 2021.

 --------------------------------------------------------------------
 #N Geom=AllCheck Guess=TCheck SCRF=Check GenChk RB3LYP/6-31G(d) Freq
 --------------------------------------------------------------------

 Structure from the checkpoint file:  "JID_96.chk"
 -----------------------------
 CID_141220835_JID_96_neutraal
 -----------------------------
 Charge =  0 Multiplicity = 1

 SCF Done:  E(RB3LYP) =  -458.730311708     A.U. after    1 cycles

  Exact polarizability:  93.953  -4.572  83.991  -4.771   2.938  72.959
 Approx polarizability: 115.697  -4.301 125.596  -6.828   6.457 123.364

                      1                      2                      3
                      A                      A                      A
 Frequencies --     24.8234                89.8942               149.7476
 Red. masses --      4.4977                 3.9491                 1.4493
 Frc consts  --      0.0016                 0.0188                 0.0191
 IR Inten    --      8.8734                 1.9722               195.6451

                      4                      5                      6
                      A                      A                      A
 Frequencies --    180.9224               203.1542               226.7411
 Red. masses --      2.7073                 2.1521                 2.4433
 Frc consts  --      0.0522                 0.0523                 0.0740
 IR Inten    --     18.1676                 2.5003                 6.9784

                      7                      8                      9
                      A                      A                      A
 Frequencies --    270.5043               322.5102               335.2242
 Red. masses --      5.3165                 3.0379                 2.4343
 Frc consts  --      0.2292                 0.1862                 0.1612
 IR Inten    --      0.5715                 0.8795                 4.8188

                     10                     11                     12
                      A                      A                      A
 Frequencies --    440.2362               496.5357               525.2393
 Red. masses --      2.8013                 1.9495                 3.1021
 Frc consts  --      0.3199                 0.2832                 0.5042
 IR Inten    --      3.8585                 1.2914                 4.7816

                     13                     14                     15
                      A                      A                      A
 Frequencies --    588.7977               635.2244               665.7994
 Red. masses --      1.1809                 3.4160                 2.0381
 Frc consts  --      0.2412                 0.8121                 0.5323
 IR Inten    --     11.9679                12.8892                 8.1067

                     16                     17                     18
                      A                      A                      A
 Frequencies --    755.8731               781.8792               845.8462
 Red. masses --      4.0331                 2.3676                 2.3148
 Frc consts  --      1.3576                 0.8528                 0.9758
 IR Inten    --      7.2659                 1.2209                 0.6637

                     19                     20                     21
                      A                      A                      A
 Frequencies --    876.8633               893.9527               918.2775
 Red. masses --      2.2164                 1.4508                 2.5025
 Frc consts  --      1.0041                 0.6831                 1.2433
 IR Inten    --      2.0520                 8.8386                 2.9513

                     22                     23                     24
                      A                      A                      A
 Frequencies --    945.2295               998.2243              1024.7001
 Red. masses --      2.5656                 2.0587                 1.9839
 Frc consts  --      1.3506                 1.2087                 1.2274
 IR Inten    --      2.2641                 0.0899                10.2689

                     25                     26                     27
                      A                      A                      A
 Frequencies --   1058.4306              1079.1178              1089.3949
 Red. masses --      2.2234                 2.6733                 2.0571
 Frc consts  --      1.4675                 1.8342                 1.4384
 IR Inten    --      3.2445                12.5024                 5.3064

                     28                     29                     30
                      A                      A                      A
 Frequencies --   1122.6407              1142.5265              1188.2677
 Red. masses --      2.0785                 2.7403                 1.2936
 Frc consts  --      1.5434                 2.1076                 1.0762
 IR Inten    --      4.4444                 0.9690                 2.7625

                     31                     32                     33
                      A                      A                      A
 Frequencies --   1226.3847              1285.8116              1292.2232
 Red. masses --      1.2399                 1.4337                 1.2313
 Frc consts  --      1.0987                 1.3965                 1.2115
 IR Inten    --     13.9862                52.2073                17.8912

                     34                     35                     36
                      A                      A                      A
 Frequencies --   1318.8599              1346.9349              1371.2114
 Red. masses --      1.1740                 1.3388                 1.5526
 Frc consts  --      1.2031                 1.4311                 1.7200
 IR Inten    --      3.3365                 1.7304                30.9330

                     37                     38                     39
                      A                      A                      A
 Frequencies --   1383.3428              1392.2237              1407.4296
 Red. masses --      1.3228                 1.4497                 1.4400
 Frc consts  --      1.4914                 1.6556                 1.6806
 IR Inten    --      5.5062                22.9985                10.5431

                     40                     41                     42
                      A                      A                      A
 Frequencies --   1431.2793              1435.8029              1508.3929
 Red. masses --      1.3829                 1.5733                 1.0934
 Frc consts  --      1.6692                 1.9110                 1.4657
 IR Inten    --     33.2486                28.1516                 4.1466

                     43                     44                     45
                      A                      A                      A
 Frequencies --   1511.4635              1524.9017              1536.3792
 Red. masses --      1.0862                 1.0864                 1.0892
 Frc consts  --      1.4620                 1.4884                 1.5148
 IR Inten    --      3.3976                 5.5182                 6.4815

                     46                     47                     48
                      A                      A                      A
 Frequencies --   1643.0012              1757.9274              1801.3896
 Red. masses --      1.2475                 8.4809                 8.7677
 Frc consts  --      1.9842                15.4417                16.7629
 IR Inten    --    113.8065                54.0569               251.9439

                     49                     50                     51
                      A                      A                      A
 Frequencies --   2992.9933              3007.4788              3017.8618
 Red. masses --      1.0723                 1.0823                 1.0687
 Frc consts  --      5.6594                 5.7678                 5.7348
 IR Inten    --     26.3500                36.6172                26.3966

                     52                     53                     54
                      A                      A                      A
 Frequencies --   3043.1119              3051.9373              3083.3917
 Red. masses --      1.0665                 1.0668                 1.0892
 Frc consts  --      5.8187                 5.8546                 6.1012
 IR Inten    --     29.7798                26.2468                15.6073

                     55                     56                     57
                      A                      A                      A
 Frequencies --   3088.5406              3102.2924              3103.4012
 Red. masses --      1.0910                 1.0938                 1.0964
 Frc consts  --      6.1319                 6.2022                 6.2217
 IR Inten    --     69.3501                61.0600                 7.9288

                     58                     59                     60
                      A                      A                      A
 Frequencies --   3111.8410              3591.1297              3720.6261
 Red. masses --      1.0978                 1.0453                 1.1046
 Frc consts  --      6.2631                 7.9424                 9.0091
 IR Inten    --     24.8235                32.7992                26.9694

 - Thermochemistry -
 -------------------
 Temperature   298.150 Kelvin.  Pressure   1.00000 Atm.
 Atom     1 has atomic number  8 and mass  15.99491

 Molecular mass:   140.09496 amu.
 Principal axes and moments of inertia in atomic units:
                           1         2         3
     Eigenvalues --   688.781382123.880582389.65942
           X            0.99983  -0.01595  -0.00920
           Y            0.01599   0.99987   0.00340
           Z            0.00914  -0.00354   0.99995
 This molecule is an asymmetric top.
 Rotational symmetry number  1.
 Warning -- assumption of classical behavior for rotation
           may cause significant error
 Rotational temperatures (Kelvin)      0.12575     0.04078     0.03625
 Rotational constants (GHZ):           2.62019     0.84974     0.75523
 Zero-point vibrational energy     502229.1 (Joules/Mol)
                                  120.03563 (Kcal/Mol)
 Warning -- explicit consideration of  13 degrees of freedom as
           vibrations may cause significant error
 Vibrational temperatures:     35.72   129.34   215.45   260.31   292.29
          (Kelvin)            326.23   389.20   464.02   482.31   633.40
                              714.40   755.70   847.15   913.95   957.94
                             1087.53  1124.95  1216.98  1261.61  1286.20
                             1321.20  1359.97  1436.22  1474.31  1522.85
                             1552.61  1567.40  1615.23  1643.84  1709.65
                             1764.49  1850.00  1859.22  1897.55  1937.94
                             1972.87  1990.32  2003.10  2024.98  2059.29
                             2065.80  2170.24  2174.66  2193.99  2210.51
                             2363.91  2529.27  2591.80  4306.25  4327.09
                             4342.03  4378.36  4391.06  4436.31  4443.72
                             4463.51  4465.10  4477.25  5166.83  5353.15

 Zero-point correction=                           0.191289 (Hartree/Particle)
 Thermal correction to Energy=                    0.201237
 Thermal correction to Enthalpy=                  0.202181
 Thermal correction to Gibbs Free Energy=         0.155292
 Sum of electronic and zero-point Energies=           -458.539023
 Sum of electronic and thermal Energies=              -458.529075
 Sum of electronic and thermal Enthalpies=            -458.528131
 Sum of electronic and thermal Free Energies=         -458.575020

                     E (Thermal)             CV                S
                      KCal/Mol        Cal/Mol-Kelvin    Cal/Mol-Kelvin
 Total                  126.278             37.082             98.687
 Electronic               0.000              0.000              0.000
 Translational            0.889              2.981             40.723
 Rotational               0.889              2.981             29.637
 Vibrational            124.501             31.121             28.326
 Vibration     1          0.593              1.985              6.205
 Vibration     2          0.602              1.956              3.662
 Vibration     3          0.618              1.903              2.675
 Vibration     4          0.630              1.866              2.319
 Vibration     5          0.639              1.835              2.104
 Vibration     6          0.650              1.800              1.905
 Vibration     7          0.674              1.728              1.593
 Vibration     8          0.708              1.630              1.297
 Vibration     9          0.716              1.605              1.235
 Vibration    10          0.800              1.382              0.826
 Vibration    11          0.852              1.258              0.667
 Vibration    12          0.880              1.194              0.598
 Vibration    13          0.946              1.056              0.469

 Normal termination of Gaussian 16 at Sat Feb 27 18:32:51 2021.

 ----------------------------------------------------------------------
 # B3LYP/6-311++G(d,p) empiricaldispersion=gd3bj scf=xqc pop=npa geom=c
 heck
 ----------------------------------------------------------------------

 -------------------------------------
 CID_141220835_JID_96_Energie_neutraal
 -------------------------------------
 Structure from the checkpoint file:  "JID_96.chk"
 Charge =  0 Multiplicity = 1

 SCF Done:  E(RB3LYP) =  -458.868946160     A.U. after   13 cycles
 Normal termination of Gaussian 16 at Sat Feb 27 18:34:00 2021.

 ----------------------------------------------------------------------
 # B3LYP/6-311++G(d,p) empiricaldispersion=gd3bj scf=xqc pop=npa geom=c
 heck
 ----------------------------------------------------------------------

 -----------------------------------
 CID_141220835_JID_96_Energie_kation
 -----------------------------------
 Structure from the checkpoint file:  "JID_96.chk"
 Charge =  1 Multiplicity = 2

 SCF Done:  E(UB3LYP) =  -458.549667815     A.U. after   27 cycles
 Normal termination of Gaussian 16 at Sat Feb 27 18:37:01 2021.
 Gaussian 16:  ES64L-G16RevA.03 25-Dec-2016

 ----------------------------------------------------------------------
 # B3LYP/6-311++G(d,p) empiricaldispersion=gd3bj scf=xqc pop=npa geom=c
 heck
 ----------------------------------------------------------------------

 ----------------------------------
 CID_141220835_JID_96_Energie_anion
 ----------------------------------
 Structure from the checkpoint file:  "JID_96.chk"
 Charge = -1 Multiplicity = 2

                         Standard orientation:
 ---------------------------------------------------------------------
 Center     Atomic      Atomic             Coordinates (Angstroms)
 Number     Number       Type             X           Y           Z
 ---------------------------------------------------------------------
      1          8           0       -2.273924   -0.365487   -1.309985
      2          7           0        2.543002    0.702834   -0.419216
      3          7           0       -3.001860    0.245769    0.751329
      4          6           0       -0.590165   -0.001277    0.379515
      5          6           0        0.118399   -1.324467    0.050793
      6          6           0        0.088964    1.245948   -0.220615
      7          6           0        1.574488   -1.398201    0.545743
      8          6           0        1.524055    1.498227    0.268175
      9          6           0       -2.022961   -0.064545   -0.151250
     10          6           0        2.536750   -0.559990   -0.270441
     11          1           0       -0.608322    0.116524    1.473718
     12          1           0        0.074703   -1.483959   -1.031324
     13          1           0       -0.449206   -2.143252    0.510381
     14          1           0       -0.520206    2.123462    0.033155
     15          1           0        0.086075    1.165673   -1.313172
     16          1           0        1.910122   -2.440368    0.522585
     17          1           0        1.618091   -1.078537    1.598425
     18          1           0        1.770885    2.550933    0.097344
     19          1           0        1.576050    1.334755    1.357289
     20          1           0        3.317333   -1.109073   -0.807910
     21          1           0       -3.955670    0.299564    0.421584
     22          1           0       -2.793644    0.573790    1.681500
 ---------------------------------------------------------------------

 SCF Done:  E(UB3LYP) =  -458.860018039     A.U. after   33 cycles
 SCF Done:  E(UB3LYP) =  -458.860018039     a.u. after    1 cycles

 The electronic state is 2-A.
 Alpha  occ. eigenvalues --  -18.97770 -14.21679 -14.20450 -10.16151 -10.11234
 Alpha  occ. eigenvalues --  -10.09152 -10.07752 -10.07552 -10.07043 -10.06847
 Alpha  occ. eigenvalues --   -0.92781  -0.82354  -0.79023  -0.70730  -0.67285
 Alpha  occ. eigenvalues --   -0.59505  -0.55755  -0.50485  -0.45586  -0.43893
 Alpha  occ. eigenvalues --   -0.42214  -0.39362  -0.38140  -0.35703  -0.34096
 Alpha  occ. eigenvalues --   -0.31622  -0.31191  -0.31061  -0.29492  -0.28098
 Alpha  occ. eigenvalues --   -0.26109  -0.25102  -0.22923  -0.22112  -0.19141
 Alpha  occ. eigenvalues --   -0.16208  -0.15062  -0.14397   0.04588
 Alpha virt. eigenvalues --    0.06922   0.07531   0.08471   0.08770   0.09887
 Alpha virt. eigenvalues --    0.10624   0.11336   0.12115   0.12265   0.12842
 Alpha virt. eigenvalues --    0.13181   0.14118   0.15307   0.16026   0.17046

  Beta  occ. eigenvalues --  -18.97764 -14.21584 -14.20450 -10.16146 -10.11230
  Beta  occ. eigenvalues --  -10.09132 -10.07726 -10.07519 -10.07033 -10.06835
  Beta  occ. eigenvalues --   -0.92761  -0.82343  -0.78896  -0.70685  -0.67251
  Beta  occ. eigenvalues --   -0.59451  -0.55721  -0.50385  -0.45462  -0.43852
  Beta  occ. eigenvalues --   -0.42133  -0.39319  -0.38079  -0.35664  -0.34067
  Beta  occ. eigenvalues --   -0.31590  -0.31157  -0.31018  -0.29462  -0.28068
  Beta  occ. eigenvalues --   -0.26066  -0.25071  -0.22866  -0.22073  -0.19117
  Beta  occ. eigenvalues --   -0.16140  -0.15043  -0.14379
  Beta virt. eigenvalues --    0.07146   0.07572   0.08344   0.09073   0.09388
  Beta virt. eigenvalues --    0.10333   0.11676   0.11854   0.12291   0.12565
  Beta virt. eigenvalues --    0.12962   0.13689   0.14975   0.15405   0.16209

 Mulliken charges and spin densities:
               1          2
     1  O   -0.362397  -0.003102
     2  N   -0.108025   0.099781
     3  N   -0.286056  -0.030028
     4  C    2.187097  -1.942229
     5  C   -0.910674   0.509041
     6  C   -0.890469   0.628332
     7  C    0.745011  -1.007379
     8  C    0.454866  -1.103507
     9  C   -0.341497   0.302768
    10  C   -0.012150  -0.184063
    11  H   -0.003446   0.189589
    12  H    0.175582  -0.004787
    13  H   -0.175025   0.348472
    14  H   -0.058081   0.198731
    15  H    0.171581   0.015612
    16  H   -0.130669   0.285507
    17  H   -0.287724   0.455395
    18  H    0.132456   0.052754
    19  H   -0.379127   0.536339
    20  H    0.045827   0.113447
    21  H   -0.339784   0.639069
    22  H   -0.627295   0.900256
 Sum of Mulliken charges =  -1.00000   1.00000

 Dipole moment (field-independent basis, Debye):
    X=              5.1807    Y=             -1.1878    Z=             -4.2539  Tot=              6.8078
 Quadrupole moment (field-independent basis, Debye-Ang):
   XX=           -120.7980   YY=            -89.2438   ZZ=           -101.0482
   XY=              1.5120   XZ=              7.6116   YZ=             -2.8119

 Summary of Natural Population Analysis:

                                       Natural Population
                Natural  -----------------------------------------------
    Atom  No    Charge         Core      Valence    Rydberg      Total
 -----------------------------------------------------------------------
      O    1   -0.33210      0.99987     3.32638    0.00584     4.33210
      N    2   -0.22900      0.99970     2.71821    0.01109     3.72900
      N    3   -0.39657      0.99970     2.88815    0.00872     3.89657
      C    4   -0.14800      0.99954     2.13433    0.01413     3.14800
      C    5   -0.18381      0.99960     2.17434    0.00987     3.18381
      C    6   -0.19252      0.99960     2.18352    0.00940     3.19252
      C    7   -0.23252      0.99961     2.22431    0.00860     3.23252
      C    8   -0.10882      0.99959     2.09623    0.01299     3.10882
      C    9    0.34408      0.99966     1.63158    0.02468     2.65592
      C   10    0.07620      0.99962     1.90764    0.01655     2.92380
      H   11    0.10385      0.00000     0.39080    0.00534     0.39615
      H   12    0.10458      0.00000     0.39415    0.00127     0.39542
      H   13    0.10377      0.00000     0.39519    0.00104     0.39623
      H   14    0.10523      0.00000     0.39362    0.00116     0.39477
      H   15    0.10361      0.00000     0.39519    0.00121     0.39639
      H   16    0.10415      0.00000     0.39461    0.00124     0.39585
      H   17    0.10960      0.00000     0.38881    0.00158     0.39040
      H   18    0.09412      0.00000     0.40455    0.00133     0.40588
      H   19    0.09463      0.00000     0.40377    0.00161     0.40537
      H   20    0.07869      0.00000     0.42008    0.00123     0.42131
      H   21    0.19583      0.00000     0.30048    0.00368     0.30417
      H   22    0.20501      0.00000     0.26693    0.02806     0.29499
 =======================================================================
   * Total *    0.00000      9.99651    27.83285    0.17065    38.00000

 Normal termination of Gaussian 16 at Sat Feb 27 18:40:43 2021.
