 Gaussian 16, Revision A.03,

 -----------------------------------------------------------
 # opt freq B3LYP/6-31G(d) empiricaldispersion=gd3bj scf=xqc
 -----------------------------------------------------------

 -------------------------------
 CID_131206204_JID_3040_neutraal
 -------------------------------
 Symbolic Z-matrix:
 Charge =  0 Multiplicity = 1

 SCF Done:  E(RB3LYP) =  -613.787158251     A.U. after   14 cycles
 SCF Done:  E(RB3LYP) =  -613.791887470     A.U. after   12 cycles
 SCF Done:  E(RB3LYP) =  -613.790086614     A.U. after   13 cycles
 SCF Done:  E(RB3LYP) =  -613.791318429     A.U. after   12 cycles
 SCF Done:  E(RB3LYP) =  -613.793271081     A.U. after    9 cycles
 SCF Done:  E(RB3LYP) =  -613.793958119     A.U. after   12 cycles
 SCF Done:  E(RB3LYP) =  -613.793899675     A.U. after   11 cycles
 SCF Done:  E(RB3LYP) =  -613.794038467     A.U. after   11 cycles
 SCF Done:  E(RB3LYP) =  -613.794113721     A.U. after   11 cycles
 SCF Done:  E(RB3LYP) =  -613.794128871     A.U. after   10 cycles
 SCF Done:  E(RB3LYP) =  -613.794140444     A.U. after    9 cycles
 SCF Done:  E(RB3LYP) =  -613.794151121     A.U. after    9 cycles
 SCF Done:  E(RB3LYP) =  -613.794162759     A.U. after   10 cycles
 SCF Done:  E(RB3LYP) =  -613.794166004     A.U. after    8 cycles
 SCF Done:  E(RB3LYP) =  -613.794166370     A.U. after    7 cycles
 Optimization completed.
    -- Stationary point found.
 Normal termination of Gaussian 16 at Wed Dec  9 22:25:30 2020.

 --------------------------------------------------------------------
 #N Geom=AllCheck Guess=TCheck SCRF=Check GenChk RB3LYP/6-31G(d) Freq
 --------------------------------------------------------------------

 Structure from the checkpoint file:  "JID_3040.chk"
 -------------------------------
 CID_131206204_JID_3040_neutraal
 -------------------------------
 Charge =  0 Multiplicity = 1

 SCF Done:  E(RB3LYP) =  -613.794166370     A.U. after    1 cycles

  Exact polarizability: 126.273   2.086 109.656  -5.728  -1.925  97.534
 Approx polarizability: 159.624   6.449 168.903  -7.401  -7.198 141.978

                      1                      2                      3
                      A                      A                      A
 Frequencies --     57.4952                74.2613                81.0886
 Red. masses --      4.9251                 3.1876                 4.7057
 Frc consts  --      0.0096                 0.0104                 0.0182
 IR Inten    --      1.8229                 0.4315                 1.3549

                      4                      5                      6
                      A                      A                      A
 Frequencies --     86.5316                96.4992               172.5841
 Red. masses --      3.6760                 3.1202                 2.8951
 Frc consts  --      0.0162                 0.0171                 0.0508
 IR Inten    --      4.8959                 1.6585                 3.2861

                      7                      8                      9
                      A                      A                      A
 Frequencies --    201.8475               223.5941               240.0858
 Red. masses --      3.2542                 1.9437                 1.7687
 Frc consts  --      0.0781                 0.0573                 0.0601
 IR Inten    --      5.2787                 3.0665                 0.3527

                     10                     11                     12
                      A                      A                      A
 Frequencies --    246.3576               283.7985               297.6626
 Red. masses --      1.4805                 1.6030                 1.6278
 Frc consts  --      0.0529                 0.0761                 0.0850
 IR Inten    --      2.1511                 5.2164                 0.8292

                     13                     14                     15
                      A                      A                      A
 Frequencies --    334.8223               351.3311               415.3262
 Red. masses --      2.9538                 2.7967                 5.1917
 Frc consts  --      0.1951                 0.2034                 0.5276
 IR Inten    --      1.1032                 8.4677                10.1987

                     16                     17                     18
                      A                      A                      A
 Frequencies --    441.7244               476.8025               509.6185
 Red. masses --      2.6770                 1.2848                 3.0088
 Frc consts  --      0.3078                 0.1721                 0.4604
 IR Inten    --      2.7204               136.1162                 7.1079

                     19                     20                     21
                      A                      A                      A
 Frequencies --    562.2211               583.1301               650.2276
 Red. masses --      2.5007                 2.9264                 2.0052
 Frc consts  --      0.4657                 0.5863                 0.4995
 IR Inten    --      7.3566                58.6716                45.3096

                     22                     23                     24
                      A                      A                      A
 Frequencies --    658.0028               674.4804               749.5033
 Red. masses --      2.4839                 2.2591                 3.3309
 Frc consts  --      0.6336                 0.6055                 1.1024
 IR Inten    --     20.9427                19.4191                58.1479

                     25                     26                     27
                      A                      A                      A
 Frequencies --    800.2645               811.6095               852.6697
 Red. masses --      2.0550                 2.3824                 1.8479
 Frc consts  --      0.7754                 0.9246                 0.7916
 IR Inten    --      6.9306                 1.2192               102.8116

                     28                     29                     30
                      A                      A                      A
 Frequencies --    869.4241               922.3746               934.9667
 Red. masses --      1.6673                 2.1218                 2.1016
 Frc consts  --      0.7425                 1.0636                 1.0824
 IR Inten    --     49.4704                12.8800                 6.4288

                     31                     32                     33
                      A                      A                      A
 Frequencies --    944.7544               948.3350               986.5754
 Red. masses --      2.0892                 2.6052                 1.8150
 Frc consts  --      1.0987                 1.3804                 1.0409
 IR Inten    --     26.5006                 0.3084                 2.4531

                     34                     35                     36
                      A                      A                      A
 Frequencies --   1034.4306              1038.6586              1042.1025
 Red. masses --      1.7675                 1.8961                 1.5428
 Frc consts  --      1.1143                 1.2052                 0.9872
 IR Inten    --     11.6034                17.5148                24.2487

                     37                     38                     39
                      A                      A                      A
 Frequencies --   1063.6047              1075.0118              1103.0669
 Red. masses --      3.3221                 1.4741                 2.8090
 Frc consts  --      2.2143                 1.0037                 2.0137
 IR Inten    --      9.0993                 4.8448                19.4792

                     40                     41                     42
                      A                      A                      A
 Frequencies --   1115.0142              1121.1196              1169.4417
 Red. masses --      4.2867                 1.7480                 2.3928
 Frc consts  --      3.1400                 1.2945                 1.9280
 IR Inten    --      9.6303                69.3589                19.8388

                     43                     44                     45
                      A                      A                      A
 Frequencies --   1200.1421              1214.4356              1251.7143
 Red. masses --      1.4395                 2.2157                 1.2447
 Frc consts  --      1.2216                 1.9253                 1.1490
 IR Inten    --     15.5709                14.2029                15.1214

                     46                     47                     48
                      A                      A                      A
 Frequencies --   1301.2671              1307.6156              1315.0908
 Red. masses --      1.4441                 1.3580                 1.3196
 Frc consts  --      1.4407                 1.3681                 1.3446
 IR Inten    --      8.1815                 1.5319                 1.3456

                     49                     50                     51
                      A                      A                      A
 Frequencies --   1339.8364              1343.4872              1352.6626
 Red. masses --      1.2739                 1.3847                 1.3575
 Frc consts  --      1.3473                 1.4725                 1.4635
 IR Inten    --      1.6847                 1.4750                27.3924

                     52                     53                     54
                      A                      A                      A
 Frequencies --   1360.5895              1365.5267              1373.9478
 Red. masses --      1.3466                 1.4228                 1.7044
 Frc consts  --      1.4688                 1.5631                 1.8957
 IR Inten    --     36.6697                64.6004                97.2475

                     55                     56                     57
                      A                      A                      A
 Frequencies --   1393.6474              1400.7206              1436.3067
 Red. masses --      1.3732                 1.5132                 1.2604
 Frc consts  --      1.5714                 1.7492                 1.5320
 IR Inten    --      1.9310                15.8031                14.7460

                     58                     59                     60
                      A                      A                      A
 Frequencies --   1438.6741              1448.0913              1487.7620
 Red. masses --      1.2700                 1.2492                 1.1534
 Frc consts  --      1.5487                 1.5433                 1.5042
 IR Inten    --      1.5471                61.7282                 8.0868

                     61                     62                     63
                      A                      A                      A
 Frequencies --   1498.1431              1520.2645              1523.0984
 Red. masses --      1.4132                 1.0594                 1.0733
 Frc consts  --      1.8688                 1.4426                 1.4671
 IR Inten    --     51.2068                 2.6349                 1.1615

                     64                     65                     66
                      A                      A                      A
 Frequencies --   1526.9298              1529.7163              1535.8559
 Red. masses --      1.0877                 1.0534                 1.0839
 Frc consts  --      1.4942                 1.4524                 1.5064
 IR Inten    --      2.6094                 4.5085                 0.3669

                     67                     68                     69
                      A                      A                      A
 Frequencies --   1538.0270              1553.6483              1774.3916
 Red. masses --      1.0734                 1.0903                 7.5681
 Frc consts  --      1.4960                 1.5506                14.0390
 IR Inten    --     10.8306                 9.0488               353.9162

                     70                     71                     72
                      A                      A                      A
 Frequencies --   3042.2690              3049.8455              3054.6865
 Red. masses --      1.0702                 1.0399                 1.0365
 Frc consts  --      5.8361                 5.6989                 5.6985
 IR Inten    --     39.2366                 8.8796                14.9766

                     73                     74                     75
                      A                      A                      A
 Frequencies --   3071.6419              3073.0646              3079.5380
 Red. masses --      1.0651                 1.0848                 1.0700
 Frc consts  --      5.9210                 6.0359                 5.9788
 IR Inten    --     47.4631                20.3025                 9.9632

                     76                     77                     78
                      A                      A                      A
 Frequencies --   3104.0163              3117.5566              3118.7502
 Red. masses --      1.0841                 1.0993                 1.0947
 Frc consts  --      6.1544                 6.2950                 6.2732
 IR Inten    --     12.2336                44.0257                42.1324

                     79                     80                     81
                      A                      A                      A
 Frequencies --   3121.1915              3130.1708              3131.9314
 Red. masses --      1.1003                 1.1018                 1.1012
 Frc consts  --      6.3156                 6.3602                 6.3642
 IR Inten    --      4.3369                57.0103                 8.4669

                     82                     83                     84
                      A                      A                      A
 Frequencies --   3142.1284              3144.3343              3165.6200
 Red. masses --      1.1016                 1.1000                 1.0850
 Frc consts  --      6.4077                 6.4075                 6.4060
 IR Inten    --     15.1836                11.1444                12.0434

                     85                     86                     87
                      A                      A                      A
 Frequencies --   3469.3496              3558.5414              3680.2780
 Red. masses --      1.0743                 1.0743                 1.0648
 Frc consts  --      7.6189                 8.0156                 8.4973
 IR Inten    --      1.4276                10.1981                23.3472

 - Thermochemistry -
 -------------------
 Temperature   298.150 Kelvin.  Pressure   1.00000 Atm.
 Atom     1 has atomic number  6 and mass  12.00000

 Molecular mass:   186.13683 amu.
 Principal axes and moments of inertia in atomic units:
                           1         2         3
     Eigenvalues --  1657.233503333.706833701.03792
           X            0.99980  -0.01075  -0.01715
           Y            0.01140   0.99922   0.03782
           Z            0.01673  -0.03800   0.99914
 This molecule is an asymmetric top.
 Rotational symmetry number  1.
 Warning -- assumption of classical behavior for rotation
           may cause significant error
 Rotational temperatures (Kelvin)      0.05226     0.02598     0.02340
 Rotational constants (GHZ):           1.08901     0.54136     0.48763
 Zero-point vibrational energy     729057.7 (Joules/Mol)
                                  174.24897 (Kcal/Mol)
 Warning -- explicit consideration of  20 degrees of freedom as
           vibrations may cause significant error
 Vibrational temperatures:     82.72   106.85   116.67   124.50   138.84
          (Kelvin)            248.31   290.41   321.70   345.43   354.45
                              408.32   428.27   481.73   505.49   597.56
                              635.54   686.01   733.23   808.91   838.99
                              935.53   946.72   970.43  1078.37  1151.40
                             1167.73  1226.80  1250.91  1327.09  1345.21
                             1359.29  1364.44  1419.46  1488.31  1494.40
                             1499.35  1530.29  1546.70  1587.07  1604.26
                             1613.04  1682.57  1726.74  1747.30  1800.94
                             1872.23  1881.37  1892.12  1927.73  1932.98
                             1946.18  1957.58  1964.69  1976.80  2005.15
                             2015.32  2066.52  2069.93  2083.48  2140.56
                             2155.49  2187.32  2191.40  2196.91  2200.92
                             2209.75  2212.88  2235.35  2552.95  4377.15
                             4388.05  4395.01  4419.41  4421.45  4430.77
                             4465.99  4485.47  4487.19  4490.70  4503.62
                             4506.15  4520.82  4524.00  4554.62  4991.62
                             5119.95  5295.10

 Zero-point correction=                           0.277683 (Hartree/Particle)
 Thermal correction to Energy=                    0.291488
 Thermal correction to Enthalpy=                  0.292433
 Thermal correction to Gibbs Free Energy=         0.237394
 Sum of electronic and zero-point Energies=           -613.516483
 Sum of electronic and thermal Energies=              -613.502678
 Sum of electronic and thermal Enthalpies=            -613.501734
 Sum of electronic and thermal Free Energies=         -613.556773

                     E (Thermal)             CV                S
                      KCal/Mol        Cal/Mol-Kelvin    Cal/Mol-Kelvin
 Total                  182.912             52.516            115.839
 Electronic               0.000              0.000              0.000
 Translational            0.889              2.981             41.570
 Rotational               0.889              2.981             31.392
 Vibrational            181.134             46.554             42.877
 Vibration     1          0.596              1.975              4.541
 Vibration     2          0.599              1.966              4.037
 Vibration     3          0.600              1.962              3.864
 Vibration     4          0.601              1.959              3.737
 Vibration     5          0.603              1.952              3.524
 Vibration     6          0.626              1.876              2.407
 Vibration     7          0.639              1.837              2.116
 Vibration     8          0.649              1.805              1.930
 Vibration     9          0.657              1.779              1.802
 Vibration    10          0.661              1.769              1.756
 Vibration    11          0.682              1.704              1.511
 Vibration    12          0.691              1.678              1.430
 Vibration    13          0.716              1.606              1.237
 Vibration    14          0.728              1.573              1.160
 Vibration    15          0.779              1.437              0.908
 Vibration    16          0.801              1.379              0.821
 Vibration    17          0.833              1.302              0.719
 Vibration    18          0.865              1.229              0.635
 Vibration    19          0.918              1.113              0.519
 Vibration    20          0.940              1.068              0.480

 Optimization completed.
    -- Stationary point found.
 Normal termination of Gaussian 16 at Wed Dec  9 22:33:52 2020.

 ----------------------------------------------------------------------
 # B3LYP/6-311++G(d,p) empiricaldispersion=gd3bj scf=xqc pop=npa geom=c
 heck
 ----------------------------------------------------------------------

 ---------------------------------------
 CID_131206204_JID_3040_Energie_neutraal
 ---------------------------------------
 Structure from the checkpoint file:  "JID_3040.chk"
 Charge =  0 Multiplicity = 1

 SCF Done:  E(RB3LYP) =  -613.985895246     A.U. after   14 cycles
 Normal termination of Gaussian 16 at Wed Dec  9 22:37:05 2020.

 ----------------------------------------------------------------------
 # B3LYP/6-311++G(d,p) empiricaldispersion=gd3bj scf=xqc pop=npa geom=c
 heck
 ----------------------------------------------------------------------

 -------------------------------------
 CID_131206204_JID_3040_Energie_kation
 -------------------------------------
 Structure from the checkpoint file:  "JID_3040.chk"
 Charge =  1 Multiplicity = 2

 SCF Done:  E(UB3LYP) =  -613.667387699     A.U. after   33 cycles
 SCF Done:  E(UB3LYP) =  -613.668518217     a.u. after    9 cycles
 Normal termination of Gaussian 16 at Wed Dec  9 23:39:25 2020.
 Gaussian 16:  ES64L-G16RevA.03 25-Dec-2016

 ----------------------------------------------------------------------
 # B3LYP/6-311++G(d,p) empiricaldispersion=gd3bj scf=xqc pop=npa geom=c
 heck
 ----------------------------------------------------------------------

 ------------------------------------
 CID_131206204_JID_3040_Energie_anion
 ------------------------------------
 Structure from the checkpoint file:  "JID_3040.chk"
 Charge = -1 Multiplicity = 2

                         Standard orientation:
 ---------------------------------------------------------------------
 Center     Atomic      Atomic             Coordinates (Angstroms)
 Number     Number       Type             X           Y           Z
 ---------------------------------------------------------------------
      1          6           0       -1.466220    0.044077    2.117646
      2          6           0       -1.120079   -0.206137    0.647585
      3          6           0       -2.242035   -0.931730   -0.132627
      4          6           0       -3.594661   -0.217745   -0.100029
      5          8           0       -1.822672   -1.147786   -1.476548
      6          7           0       -0.777672    1.038603   -0.042719
      7          6           0        0.454281    1.549971   -0.414821
      8          8           0        0.537505    2.734205   -0.718668
      9          6           0        1.686279    0.654879   -0.449175
     10          6           0        1.600565   -0.715849   -1.186099
     11          6           0        2.238693   -1.724839   -0.190615
     12          7           0        3.022890   -0.951026    0.784122
     13          6           0        2.257986    0.285636    0.958536
     14          1           0       -2.275639    0.775258    2.217496
     15          1           0       -0.596783    0.433176    2.656326
     16          1           0       -1.786344   -0.883719    2.605378
     17          1           0       -0.247936   -0.856206    0.597371
     18          1           0       -2.354163   -1.932049    0.300823
     19          1           0       -3.516751    0.799408   -0.504294
     20          1           0       -4.305805   -0.766653   -0.723313
     21          1           0       -4.001782   -0.153818    0.914437
     22          1           0       -1.545651   -0.272817   -1.803193
     23          1           0       -1.455103    1.789651    0.044465
     24          1           0        2.427720    1.281551   -0.949594
     25          1           0        2.179225   -0.665456   -2.113572
     26          1           0        0.582687   -1.003677   -1.457063
     27          1           0        1.454459   -2.266319    0.354612
     28          1           0        2.867099   -2.475410   -0.677716
     29          1           0        3.918790   -0.713511    0.358260
     30          1           0        2.882167    1.080184    1.375146
     31          1           0        1.449771    0.096436    1.673940
 ---------------------------------------------------------------------

 SCF Done:  E(UB3LYP) =  -613.974815114     A.U. after   31 cycles

 The electronic state is 2-A.
 Alpha  occ. eigenvalues --  -19.03159 -18.99650 -14.24500 -14.20546 -10.18303
 Alpha  occ. eigenvalues --  -10.13364 -10.12636 -10.10329 -10.09685 -10.08832
 Alpha  occ. eigenvalues --  -10.07559 -10.07361 -10.06973  -0.94902  -0.93731
 Alpha  occ. eigenvalues --   -0.83321  -0.82649  -0.69564  -0.67667  -0.63756
 Alpha  occ. eigenvalues --   -0.63427  -0.56837  -0.53583  -0.51465  -0.50809
 Alpha  occ. eigenvalues --   -0.47956  -0.42140  -0.41785  -0.39816  -0.37826
 Alpha  occ. eigenvalues --   -0.36624  -0.35564  -0.34551  -0.34444  -0.33857
 Alpha  occ. eigenvalues --   -0.32361  -0.31082  -0.30587  -0.29704  -0.28901
 Alpha  occ. eigenvalues --   -0.28280  -0.27469  -0.26417  -0.25785  -0.24813
 Alpha  occ. eigenvalues --   -0.23899  -0.23254  -0.19159  -0.17260  -0.16250
 Alpha  occ. eigenvalues --   -0.14314   0.04139
 Alpha virt. eigenvalues --    0.05690   0.07301   0.07685   0.08566   0.08959
 Alpha virt. eigenvalues --    0.09190   0.09994   0.10390   0.10739   0.11402
 Alpha virt. eigenvalues --    0.11614   0.12077   0.12382   0.13503   0.14275

  Beta  occ. eigenvalues --  -19.03152 -18.99647 -14.24485 -14.20521 -10.18301
  Beta  occ. eigenvalues --  -10.13350 -10.12629 -10.10311 -10.09664 -10.08823
  Beta  occ. eigenvalues --  -10.07515 -10.07348 -10.06931  -0.94895  -0.93714
  Beta  occ. eigenvalues --   -0.83294  -0.82612  -0.69528  -0.67627  -0.63701
  Beta  occ. eigenvalues --   -0.63383  -0.56761  -0.53541  -0.51402  -0.50752
  Beta  occ. eigenvalues --   -0.47919  -0.42118  -0.41719  -0.39778  -0.37795
  Beta  occ. eigenvalues --   -0.36587  -0.35526  -0.34510  -0.34407  -0.33817
  Beta  occ. eigenvalues --   -0.32325  -0.31041  -0.30561  -0.29665  -0.28862
  Beta  occ. eigenvalues --   -0.28239  -0.27428  -0.26378  -0.25752  -0.24780
  Beta  occ. eigenvalues --   -0.23870  -0.23222  -0.19138  -0.17247  -0.16235
  Beta  occ. eigenvalues --   -0.14285
  Beta virt. eigenvalues --    0.06471   0.06988   0.07886   0.08202   0.09108
  Beta virt. eigenvalues --    0.09372   0.09645   0.10220   0.10754   0.11090
  Beta virt. eigenvalues --    0.11797   0.12030   0.12538   0.12703   0.13745

 Mulliken charges and spin densities:
               1          2
     1  C    1.930452  -2.562589
     2  C   -1.152946   1.125673
     3  C   -1.447307   1.193245
     4  C    1.092536  -1.617149
     5  O   -0.092284  -0.013385
     6  N   -0.178500  -0.042838
     7  C   -0.535304   0.360722
     8  O   -0.309868   0.000037
     9  C    0.502912  -0.213520
    10  C   -0.346384   0.060511
    11  C    0.271785  -0.784324
    12  N   -0.032314   0.045717
    13  C    0.402838  -1.038911
    14  H   -0.328613   0.483682
    15  H    0.087257   0.053698
    16  H   -0.437986   0.608168
    17  H    0.901534  -0.749793
    18  H   -0.239739   0.447760
    19  H   -0.195070   0.343001
    20  H   -0.192595   0.348867
    21  H   -0.304264   0.474686
    22  H    0.249054  -0.033827
    23  H    0.224169   0.078697
    24  H    0.080589   0.187028
    25  H   -0.397427   0.590390
    26  H    0.128859  -0.022238
    27  H   -0.185115   0.372559
    28  H   -0.369737   0.540835
    29  H   -0.085126   0.336813
    30  H   -0.051836   0.224386
    31  H    0.010428   0.202100
 Sum of Mulliken charges =  -1.00000   1.00000

 Dipole moment (field-independent basis, Debye):
    X=              0.0483    Y=              1.1190    Z=             -1.4938  Tot=              1.8670
 Quadrupole moment (field-independent basis, Debye-Ang):
   XX=           -158.2623   YY=           -127.3898   ZZ=           -121.5648
   XY=              0.6732   XZ=              9.6344   YZ=              2.8518

 Summary of Natural Population Analysis:

                                       Natural Population
                Natural  -----------------------------------------------
    Atom  No    Charge         Core      Valence    Rydberg      Total
 -----------------------------------------------------------------------
      C    1   -0.28945      0.99964     2.28403    0.00579     3.28945
      C    2   -0.02893      0.99956     2.01676    0.01261     3.02893
      C    3    0.06265      0.99955     1.92289    0.01490     2.93735
      C    4   -0.30177      0.99964     2.29584    0.00629     3.30177
      O    5   -0.37099      0.99990     3.36477    0.00632     4.37099
      N    6   -0.33611      0.99966     2.82530    0.01115     3.83611
      C    7    0.35225      0.99963     1.62587    0.02225     2.64775
      O    8   -0.32254      0.99988     3.31695    0.00571     4.32254
      C    9   -0.16303      0.99955     2.15163    0.01185     3.16303
      C   10   -0.20909      0.99962     2.20080    0.00866     3.20909
      C   11   -0.09101      0.99964     2.08055    0.01081     3.09101
      N   12   -0.33100      0.99976     2.81846    0.01278     3.83100
      C   13   -0.08475      0.99961     2.07431    0.01083     3.08475
      H   14    0.10200      0.00000     0.39646    0.00154     0.39800
      H   15    0.10252      0.00000     0.39642    0.00106     0.39748
      H   16    0.10665      0.00000     0.39171    0.00163     0.39335
      H   17    0.10546      0.00000     0.39064    0.00390     0.39454
      H   18    0.09064      0.00000     0.40803    0.00133     0.40936
      H   19    0.09432      0.00000     0.40429    0.00138     0.40568
      H   20    0.10676      0.00000     0.39219    0.00105     0.39324
      H   21    0.10583      0.00000     0.39237    0.00179     0.39417
      H   22    0.22936      0.00000     0.26762    0.00302     0.27064
      H   23    0.19464      0.00000     0.30292    0.00244     0.30536
      H   24    0.11340      0.00000     0.38510    0.00150     0.38660
      H   25    0.10209      0.00000     0.39655    0.00136     0.39791
      H   26    0.11023      0.00000     0.38789    0.00188     0.38977
      H   27    0.08772      0.00000     0.41047    0.00180     0.41228
      H   28    0.09986      0.00000     0.39869    0.00145     0.40014
      H   29    0.17252      0.00000     0.32377    0.00371     0.32748
      H   30    0.10034      0.00000     0.39870    0.00096     0.39966
      H   31    0.08941      0.00000     0.40860    0.00198     0.41059
 =======================================================================
   * Total *    0.00000     12.99566    37.83062    0.17372    51.00000

 Normal termination of Gaussian 16 at Wed Dec  9 23:48:43 2020.
