 Gaussian 16, Revision A.03,

 -----------------------------------------------------------
 # opt freq B3LYP/6-31G(d) empiricaldispersion=gd3bj scf=xqc
 -----------------------------------------------------------

 ------------------------------
 CID_151304239_JID_125_neutraal
 ------------------------------
 Symbolic Z-matrix:
 Charge =  0 Multiplicity = 1

 SCF Done:  E(RB3LYP) =  -543.957476612     A.U. after   16 cycles
 SCF Done:  E(RB3LYP) =  -543.959600694     A.U. after   15 cycles
 SCF Done:  E(RB3LYP) =  -543.961577801     A.U. after   14 cycles
 SCF Done:  E(RB3LYP) =  -543.961767082     A.U. after   12 cycles
 SCF Done:  E(RB3LYP) =  -543.961825749     A.U. after   12 cycles
 SCF Done:  E(RB3LYP) =  -543.961836500     A.U. after   11 cycles
 SCF Done:  E(RB3LYP) =  -543.961844388     A.U. after   11 cycles
 SCF Done:  E(RB3LYP) =  -543.961849871     A.U. after   11 cycles
 SCF Done:  E(RB3LYP) =  -543.961856372     A.U. after   12 cycles
 SCF Done:  E(RB3LYP) =  -543.961868052     A.U. after   12 cycles
 SCF Done:  E(RB3LYP) =  -543.961876354     A.U. after   13 cycles
 SCF Done:  E(RB3LYP) =  -543.961882551     A.U. after   12 cycles
 SCF Done:  E(RB3LYP) =  -543.961883954     A.U. after   11 cycles
 SCF Done:  E(RB3LYP) =  -543.961884083     A.U. after    8 cycles
 SCF Done:  E(RB3LYP) =  -543.961884124     A.U. after    9 cycles
 SCF Done:  E(RB3LYP) =  -543.961884133     A.U. after    8 cycles
 Optimization completed.
    -- Stationary point found.
 Normal termination of Gaussian 16 at Tue Dec  8 10:16:58 2020.

 --------------------------------------------------------------------
 #N Geom=AllCheck Guess=TCheck SCRF=Check GenChk RB3LYP/6-31G(d) Freq
 --------------------------------------------------------------------

 Structure from the checkpoint file:  "JID_125.chk"
 ------------------------------
 CID_151304239_JID_125_neutraal
 ------------------------------
 Charge =  0 Multiplicity = 1

 SCF Done:  E(RB3LYP) =  -543.961884133     A.U. after    1 cycles

  Exact polarizability:  94.766 -14.233  87.216  -1.355  -1.050  29.631
 Approx polarizability: 148.210 -53.408 182.512  -1.236  -0.691  44.637

                      1                      2                      3
                      A                      A                      A
 Frequencies --     29.8695                74.3286               102.2966
 Red. masses --      6.3001                 7.1255                10.2914
 Frc consts  --      0.0033                 0.0232                 0.0635
 IR Inten    --      5.1601                 0.8182                 1.0724

                      4                      5                      6
                      A                      A                      A
 Frequencies --    194.1714               220.3639               236.8803
 Red. masses --      2.1829                 2.2478                 4.5654
 Frc consts  --      0.0485                 0.0643                 0.1509
 IR Inten    --     61.7992                36.1777                45.3977

                      7                      8                      9
                      A                      A                      A
 Frequencies --    361.3489               395.2799               481.8527
 Red. masses --     11.0304                 7.7291                 9.6682
 Frc consts  --      0.8486                 0.7115                 1.3226
 IR Inten    --      0.7816                 0.5363                 1.6828

                     10                     11                     12
                      A                      A                      A
 Frequencies --    521.2712               547.4694               605.6401
 Red. masses --     13.4060                 8.2883                 1.9320
 Frc consts  --      2.1462                 1.4636                 0.4175
 IR Inten    --      7.4425                 0.7396                19.3773

                     13                     14                     15
                      A                      A                      A
 Frequencies --    662.5851               675.8315               696.3338
 Red. masses --      3.4089                 2.4209                10.4679
 Frc consts  --      0.8817                 0.6515                 2.9905
 IR Inten    --      1.9540                 7.1008                 5.5339

                     16                     17                     18
                      A                      A                      A
 Frequencies --    761.1845               780.8162               971.2283
 Red. masses --      1.3931                 6.9948                 8.9126
 Frc consts  --      0.4756                 2.5126                 4.9533
 IR Inten    --     53.9050                19.8908                10.8120

                     19                     20                     21
                      A                      A                      A
 Frequencies --    980.8735              1018.8700              1142.4500
 Red. masses --      3.1191                 6.0600                 5.7372
 Frc consts  --      1.7681                 3.7064                 4.4119
 IR Inten    --     23.5632                 5.4237                58.1630

                     22                     23                     24
                      A                      A                      A
 Frequencies --   1161.3783              1230.9536              1285.3262
 Red. masses --      2.2881                 1.4435                 8.8021
 Frc consts  --      1.8183                 1.2887                 8.5677
 IR Inten    --     15.6324                 3.0708                27.6103

                     25                     26                     27
                      A                      A                      A
 Frequencies --   1388.0873              1425.2983              1444.8566
 Red. masses --      5.5023                 1.1549                 6.1515
 Frc consts  --      6.2463                 1.3823                 7.5662
 IR Inten    --     73.5252                55.9751               127.4389

                     28                     29                     30
                      A                      A                      A
 Frequencies --   1626.1901              1673.1860              2273.8465
 Red. masses --      7.1150                 8.0841                13.9910
 Frc consts  --     11.0857                13.3343                42.6208
 IR Inten    --     36.8292               243.5107               679.3366

                     31                     32                     33
                      A                      A                      A
 Frequencies --   3312.4316              3332.2818              3689.5513
 Red. masses --      1.0975                 1.0994                 1.0688
 Frc consts  --      7.0949                 7.1927                 8.5721
 IR Inten    --      2.6604                 3.2008                51.7954

 - Thermochemistry -
 -------------------
 Temperature   298.150 Kelvin.  Pressure   1.00000 Atm.
 Atom     1 has atomic number  6 and mass  12.00000

 Molecular mass:   141.01744 amu.
 Principal axes and moments of inertia in atomic units:
                           1         2         3
     Eigenvalues --   660.792132204.292042859.21468
           X            0.99988   0.01537  -0.00369
           Y           -0.01540   0.99985  -0.00816
           Z            0.00356   0.00822   0.99996
 This molecule is an asymmetric top.
 Rotational symmetry number  1.
 Warning -- assumption of classical behavior for rotation
           may cause significant error
 Rotational temperatures (Kelvin)      0.13108     0.03929     0.03029
 Rotational constants (GHZ):           2.73118     0.81874     0.63120
 Zero-point vibrational energy     211166.8 (Joules/Mol)
                                   50.47008 (Kcal/Mol)
 Warning -- explicit consideration of  12 degrees of freedom as
           vibrations may cause significant error
 Vibrational temperatures:     42.98   106.94   147.18   279.37   317.05
          (Kelvin)            340.82   519.90   568.72   693.28   749.99
                              787.69   871.38   953.31   972.37  1001.87
                             1095.17  1123.42  1397.38  1411.26  1465.93
                             1643.73  1670.96  1771.07  1849.30  1997.15
                             2050.69  2078.83  2339.72  2407.34  3271.56
                             4765.85  4794.41  5308.44

 Zero-point correction=                           0.080429 (Hartree/Particle)
 Thermal correction to Energy=                    0.089466
 Thermal correction to Enthalpy=                  0.090410
 Thermal correction to Gibbs Free Energy=         0.044706
 Sum of electronic and zero-point Energies=           -543.881455
 Sum of electronic and thermal Energies=              -543.872419
 Sum of electronic and thermal Enthalpies=            -543.871474
 Sum of electronic and thermal Free Energies=         -543.917178

                     E (Thermal)             CV                S
                      KCal/Mol        Cal/Mol-Kelvin    Cal/Mol-Kelvin
 Total                   56.141             31.380             96.192
 Electronic               0.000              0.000              0.000
 Translational            0.889              2.981             40.743
 Rotational               0.889              2.981             29.811
 Vibrational             54.363             25.418             25.638
 Vibration     1          0.594              1.984              5.838
 Vibration     2          0.599              1.966              4.035
 Vibration     3          0.604              1.947              3.410
 Vibration     4          0.635              1.848              2.188
 Vibration     5          0.647              1.810              1.956
 Vibration     6          0.656              1.784              1.826
 Vibration     7          0.736              1.552              1.116
 Vibration     8          0.762              1.480              0.980
 Vibration     9          0.838              1.290              0.705
 Vibration    10          0.876              1.203              0.607
 Vibration    11          0.903              1.145              0.549
 Vibration    12          0.964              1.020              0.440

 Optimization completed.
    -- Stationary point found.
 Normal termination of Gaussian 16 at Tue Dec  8 10:18:35 2020.

 ----------------------------------------------------------------------
 # B3LYP/6-311++G(d,p) empiricaldispersion=gd3bj scf=xqc pop=npa geom=c
 heck
 ----------------------------------------------------------------------

 --------------------------------------
 CID_151304239_JID_125_Energie_neutraal
 --------------------------------------
 Structure from the checkpoint file:  "JID_125.chk"
 Charge =  0 Multiplicity = 1

 SCF Done:  E(RB3LYP) =  -544.122696440     A.U. after   16 cycles
 Normal termination of Gaussian 16 at Tue Dec  8 10:19:04 2020.

 ----------------------------------------------------------------------
 # B3LYP/6-311++G(d,p) empiricaldispersion=gd3bj scf=xqc pop=npa geom=c
 heck
 ----------------------------------------------------------------------

 ------------------------------------
 CID_151304239_JID_125_Energie_kation
 ------------------------------------
 Structure from the checkpoint file:  "JID_125.chk"
 Charge =  1 Multiplicity = 2

 SCF Done:  E(UB3LYP) =  -543.822442240     A.U. after   20 cycles
 Normal termination of Gaussian 16 at Tue Dec  8 10:19:58 2020.
 Gaussian 16:  ES64L-G16RevA.03 25-Dec-2016

 ----------------------------------------------------------------------
 # B3LYP/6-311++G(d,p) empiricaldispersion=gd3bj scf=xqc pop=npa geom=c
 heck
 ----------------------------------------------------------------------

 -----------------------------------
 CID_151304239_JID_125_Energie_anion
 -----------------------------------
 Structure from the checkpoint file:  "JID_125.chk"
 Charge = -1 Multiplicity = 2

                         Standard orientation:
 ---------------------------------------------------------------------
 Center     Atomic      Atomic             Coordinates (Angstroms)
 Number     Number       Type             X           Y           Z
 ---------------------------------------------------------------------
      1          6           0       -0.135190   -0.434851    0.011665
      2          6           0       -1.346913    0.180178    0.009985
      3          8           0       -1.252920    1.522620   -0.003267
      4          6           0        0.098123    1.820690   -0.004948
      5          6           0        0.809244    0.659328    0.000001
      6          7           0        2.213531    0.610631   -0.004782
      7          7           0        2.738436   -0.510190    0.001107
      8          7           0        3.350140   -1.474039    0.006267
      9          8           0       -2.639661   -0.240507    0.024717
     10          8           0       -2.623706   -1.678260   -0.129053
     11          1           0        0.065066   -1.493422    0.002644
     12          1           0        0.359448    2.864662   -0.009194
     13          1           0       -2.960546   -1.938953    0.749011
 ---------------------------------------------------------------------

 SCF Done:  E(UB3LYP) =  -544.121646372     A.U. after   30 cycles

 The electronic state is 2-A.
 Alpha  occ. eigenvalues --  -19.08393 -19.07828 -19.05697 -14.32714 -14.23785
 Alpha  occ. eigenvalues --  -14.23539 -10.16834 -10.10085 -10.09765 -10.05225
 Alpha  occ. eigenvalues --   -1.04075  -1.00429  -0.99768  -0.85355  -0.81393
 Alpha  occ. eigenvalues --   -0.69744  -0.62459  -0.54473  -0.47189  -0.45335
 Alpha  occ. eigenvalues --   -0.41766  -0.38399  -0.37676  -0.37139  -0.36174
 Alpha  occ. eigenvalues --   -0.34658  -0.32217  -0.30832  -0.30196  -0.27263
 Alpha  occ. eigenvalues --   -0.23376  -0.21073  -0.18797  -0.18564  -0.12597
 Alpha  occ. eigenvalues --   -0.08496   0.05156
 Alpha virt. eigenvalues --    0.07007   0.09214   0.10876   0.11122   0.11753
 Alpha virt. eigenvalues --    0.14077   0.14209   0.15287   0.15869   0.17560
 Alpha virt. eigenvalues --    0.18313   0.19168   0.19511   0.20206   0.20519

  Beta  occ. eigenvalues --  -19.08178 -19.07814 -19.05391 -14.32312 -14.23567
  Beta  occ. eigenvalues --  -14.23396 -10.16834 -10.10002 -10.09770 -10.05220
  Beta  occ. eigenvalues --   -1.03651  -0.99791  -0.99446  -0.85063  -0.80850
  Beta  occ. eigenvalues --   -0.69638  -0.62371  -0.54206  -0.46953  -0.45176
  Beta  occ. eigenvalues --   -0.41410  -0.38093  -0.37309  -0.36512  -0.35437
  Beta  occ. eigenvalues --   -0.34487  -0.31431  -0.30333  -0.30013  -0.27012
  Beta  occ. eigenvalues --   -0.23083  -0.20951  -0.18359  -0.17825  -0.12523
  Beta  occ. eigenvalues --   -0.08437
  Beta virt. eigenvalues --    0.08849   0.09672   0.10862   0.11208   0.11834
  Beta virt. eigenvalues --    0.12256   0.14201   0.14633   0.15593   0.16035
  Beta virt. eigenvalues --    0.17570   0.18283   0.19231   0.19331   0.20206

 Mulliken charges and spin densities:
               1          2
     1  C    1.040510  -0.055147
     2  C   -0.068278  -0.507547
     3  O   -0.122422   0.003737
     4  C    0.339901  -0.070042
     5  C   -1.184109   0.001415
     6  N    0.129456  -0.105052
     7  N    0.105411   0.143172
     8  N   -0.403945   0.307572
     9  O   -0.251018   0.082817
    10  O   -0.033634  -0.067460
    11  H   -0.158039   0.400495
    12  H    0.111490   0.069734
    13  H   -0.505324   0.796307
 Sum of Mulliken charges =  -1.00000   1.00000

 Dipole moment (field-independent basis, Debye):
    X=              2.4166    Y=              6.0968    Z=             -1.0869  Tot=              6.6478
 Quadrupole moment (field-independent basis, Debye-Ang):
   XX=           -109.7979   YY=            -85.3641   ZZ=            -66.9978
   XY=             -9.1451   XZ=              3.5861   YZ=              3.6359

 Summary of Natural Population Analysis:

                                       Natural Population
                Natural  -----------------------------------------------
    Atom  No    Charge         Core      Valence    Rydberg      Total
 -----------------------------------------------------------------------
      C    1   -0.21022      0.99944     2.20201    0.00876     3.21022
      C    2    0.31584      0.99940     1.66391    0.02085     2.68416
      O    3   -0.24004      0.99985     3.23366    0.00653     4.24004
      C    4    0.01016      0.99945     1.97483    0.01556     2.98984
      C    5    0.04286      0.99944     1.94496    0.01274     2.95714
      N    6   -0.19713      0.99964     2.68408    0.01341     3.69713
      N    7    0.15191      0.99971     2.33294    0.01545     3.34809
      N    8   -0.00306      0.99982     2.49047    0.01277     3.50306
      O    9   -0.13093      0.99985     3.12045    0.01062     4.13093
      O   10   -0.19499      0.99991     3.18825    0.00683     4.19499
      H   11    0.12330      0.00000     0.37553    0.00116     0.37670
      H   12    0.09369      0.00000     0.40528    0.00102     0.40631
      H   13    0.23860      0.00000     0.21273    0.04868     0.26140
 =======================================================================
   * Total *   -0.00000      9.99651    25.82910    0.17438    36.00000

 Normal termination of Gaussian 16 at Tue Dec  8 10:21:13 2020.
