 Gaussian 16, Revision A.03,

 -----------------------------------------------------------
 # opt freq B3LYP/6-31G(d) empiricaldispersion=gd3bj scf=xqc
 -----------------------------------------------------------

 ------------------------------
 CID_61043595_JID_5241_neutraal
 ------------------------------
 Symbolic Z-matrix:
 Charge =  0 Multiplicity = 1

 SCF Done:  E(RB3LYP) =  -978.281264599     A.U. after   15 cycles
 SCF Done:  E(RB3LYP) =  -978.285184315     A.U. after   12 cycles
 SCF Done:  E(RB3LYP) =  -978.285850305     A.U. after   12 cycles
 SCF Done:  E(RB3LYP) =  -978.286104526     A.U. after   12 cycles
 SCF Done:  E(RB3LYP) =  -978.286287276     A.U. after   10 cycles
 SCF Done:  E(RB3LYP) =  -978.286493270     A.U. after   11 cycles
 SCF Done:  E(RB3LYP) =  -978.286618638     A.U. after   11 cycles
 SCF Done:  E(RB3LYP) =  -978.286719355     A.U. after   11 cycles
 SCF Done:  E(RB3LYP) =  -978.286776803     A.U. after   11 cycles
 SCF Done:  E(RB3LYP) =  -978.286785435     A.U. after    9 cycles
 SCF Done:  E(RB3LYP) =  -978.286788408     A.U. after   10 cycles
 SCF Done:  E(RB3LYP) =  -978.286789480     A.U. after    9 cycles
 SCF Done:  E(RB3LYP) =  -978.286790640     A.U. after   10 cycles
 SCF Done:  E(RB3LYP) =  -978.286791192     A.U. after    8 cycles
 SCF Done:  E(RB3LYP) =  -978.286791253     A.U. after    7 cycles
 Optimization completed.
    -- Stationary point found.
 Normal termination of Gaussian 16 at Thu Dec 10 14:56:34 2020.

 --------------------------------------------------------------------
 #N Geom=AllCheck Guess=TCheck SCRF=Check GenChk RB3LYP/6-31G(d) Freq
 --------------------------------------------------------------------

 Structure from the checkpoint file:  "JID_5241.chk"
 ------------------------------
 CID_61043595_JID_5241_neutraal
 ------------------------------
 Charge =  0 Multiplicity = 1

 SCF Done:  E(RB3LYP) =  -978.286791253     A.U. after    1 cycles

  Exact polarizability: 186.910  -5.269 149.328 -11.072  -7.033 122.924
 Approx polarizability: 230.864  -2.234 244.674 -24.267 -25.489 197.207

                      1                      2                      3
                      A                      A                      A
 Frequencies --     20.0293                31.7311                37.5065
 Red. masses --      4.1683                 3.8611                 4.2310
 Frc consts  --      0.0010                 0.0023                 0.0035
 IR Inten    --      0.0722                 0.0159                 0.1903

                      4                      5                      6
                      A                      A                      A
 Frequencies --     53.7022                77.7765                93.7611
 Red. masses --      3.8313                 2.9552                 2.2478
 Frc consts  --      0.0065                 0.0105                 0.0116
 IR Inten    --      0.0549                 0.1339                 0.1303

                      7                      8                      9
                      A                      A                      A
 Frequencies --    131.4303               146.4688               168.2730
 Red. masses --      1.1003                 2.6846                 3.2979
 Frc consts  --      0.0112                 0.0339                 0.0550
 IR Inten    --      0.0821                 0.2060                 1.6108

                     10                     11                     12
                      A                      A                      A
 Frequencies --    203.8659               210.9996               227.5061
 Red. masses --      1.4330                 3.1363                 2.8272
 Frc consts  --      0.0351                 0.0823                 0.0862
 IR Inten    --      0.2477                 3.2958                 2.4805

                     13                     14                     15
                      A                      A                      A
 Frequencies --    263.4348               267.7259               277.4304
 Red. masses --      3.8191                 1.2733                 2.0006
 Frc consts  --      0.1562                 0.0538                 0.0907
 IR Inten    --      0.3425                 0.2112                 4.6143

                     16                     17                     18
                      A                      A                      A
 Frequencies --    308.8964               342.0858               351.5853
 Red. masses --      1.7220                 2.0242                 3.0328
 Frc consts  --      0.0968                 0.1396                 0.2209
 IR Inten    --      5.0611                 0.1342                 3.3850

                     19                     20                     21
                      A                      A                      A
 Frequencies --    378.8790               436.1093               459.6507
 Red. masses --      2.1060                 1.9539                 2.0904
 Frc consts  --      0.1781                 0.2190                 0.2602
 IR Inten    --      0.3988                 2.8188                 3.3979

                     22                     23                     24
                      A                      A                      A
 Frequencies --    501.1293               524.1137               544.6254
 Red. masses --      3.6867                 3.4461                 2.6170
 Frc consts  --      0.5455                 0.5577                 0.4574
 IR Inten    --      4.0702                 0.9471                 2.9720

                     25                     26                     27
                      A                      A                      A
 Frequencies --    556.4208               609.6161               648.4930
 Red. masses --      7.8499                 4.2368                 5.0199
 Frc consts  --      1.4319                 0.9277                 1.2438
 IR Inten    --      2.7081                 4.8346                 1.7117

                     28                     29                     30
                      A                      A                      A
 Frequencies --    723.4534               735.5436               746.9204
 Red. masses --      1.4580                 1.4109                 1.7980
 Frc consts  --      0.4496                 0.4497                 0.5910
 IR Inten    --     16.6654                30.1475                10.7190

                     31                     32                     33
                      A                      A                      A
 Frequencies --    774.8043               799.5928               836.0439
 Red. masses --      1.7080                 2.9789                 2.0410
 Frc consts  --      0.6041                 1.1221                 0.8405
 IR Inten    --      6.5487                51.7656                33.4411

                     34                     35                     36
                      A                      A                      A
 Frequencies --    858.4210               872.8845               889.6313
 Red. masses --      4.0469                 1.5238                 1.7572
 Frc consts  --      1.7570                 0.6840                 0.8194
 IR Inten    --      6.6132                32.9076                 4.3716

                     37                     38                     39
                      A                      A                      A
 Frequencies --    919.9542               958.8684               960.8069
 Red. masses --      1.6600                 1.5051                 1.9244
 Frc consts  --      0.8277                 0.8153                 1.0467
 IR Inten    --      0.6778                 0.4096                 2.5959

                     40                     41                     42
                      A                      A                      A
 Frequencies --    983.8658              1004.7709              1028.8596
 Red. masses --      2.5115                 2.3730                 1.4756
 Frc consts  --      1.4324                 1.4115                 0.9203
 IR Inten    --      7.7321                 5.0513                 5.1801

                     43                     44                     45
                      A                      A                      A
 Frequencies --   1037.4845              1057.9102              1079.3625
 Red. masses --      1.7980                 1.6114                 1.5035
 Frc consts  --      1.1403                 1.0625                 1.0320
 IR Inten    --      1.1623                 2.4406                 2.8480

                     46                     47                     48
                      A                      A                      A
 Frequencies --   1081.8680              1099.7320              1121.4344
 Red. masses --      1.4719                 3.0001                 2.3745
 Frc consts  --      1.0151                 2.1378                 1.7595
 IR Inten    --      5.2525                36.9416                14.3957

                     49                     50                     51
                      A                      A                      A
 Frequencies --   1155.7186              1155.9695              1179.4790
 Red. masses --      2.7156                 2.2091                 1.6657
 Frc consts  --      2.1371                 1.7392                 1.3653
 IR Inten    --     21.2339                15.1420                59.4960

                     52                     53                     54
                      A                      A                      A
 Frequencies --   1182.1765              1193.3105              1240.1608
 Red. masses --      1.8574                 2.2247                 1.3352
 Frc consts  --      1.5294                 1.8665                 1.2099
 IR Inten    --     29.5593                17.3513                 6.2085

                     55                     56                     57
                      A                      A                      A
 Frequencies --   1251.7620              1293.1205              1317.4095
 Red. masses --      1.4007                 1.3000                 1.2593
 Frc consts  --      1.2931                 1.2808                 1.2877
 IR Inten    --      3.0302                 0.4930                 0.6617

                     58                     59                     60
                      A                      A                      A
 Frequencies --   1340.8956              1351.1203              1359.5759
 Red. masses --      1.2598                 3.0229                 1.2474
 Frc consts  --      1.3345                 3.2514                 1.3585
 IR Inten    --      1.9988                19.4098                14.7673

                     61                     62                     63
                      A                      A                      A
 Frequencies --   1374.1862              1385.8425              1394.8365
 Red. masses --      1.3161                 1.4879                 1.3486
 Frc consts  --      1.4642                 1.6837                 1.5458
 IR Inten    --      1.2041                11.0407                 3.3215

                     64                     65                     66
                      A                      A                      A
 Frequencies --   1408.2721              1417.9760              1424.5691
 Red. masses --      1.3555                 1.3996                 1.4135
 Frc consts  --      1.5839                 1.6580                 1.6901
 IR Inten    --      5.7564                 4.3682                 0.4150

                     67                     68                     69
                      A                      A                      A
 Frequencies --   1439.0521              1441.9716              1443.3230
 Red. masses --      1.2716                 1.2733                 1.2711
 Frc consts  --      1.5515                 1.5599                 1.5601
 IR Inten    --      7.3291                 2.1452                 6.5942

                     70                     71                     72
                      A                      A                      A
 Frequencies --   1496.9305              1505.7776              1508.2719
 Red. masses --      1.1262                 1.0444                 1.0729
 Frc consts  --      1.4868                 1.3952                 1.4380
 IR Inten    --      8.6055                 5.9733                 1.1814

                     73                     74                     75
                      A                      A                      A
 Frequencies --   1512.2303              1514.0620              1521.5069
 Red. masses --      1.1917                 1.0860                 1.0694
 Frc consts  --      1.6057                 1.4668                 1.4586
 IR Inten    --      4.2454                17.0434                 1.4042

                     76                     77                     78
                      A                      A                      A
 Frequencies --   1524.7233              1528.4144              1531.8547
 Red. masses --      1.0720                 1.1258                 1.0705
 Frc consts  --      1.4683                 1.5495                 1.4800
 IR Inten    --      6.2050                 8.6324                 3.9742

                     79                     80                     81
                      A                      A                      A
 Frequencies --   1536.7266              1541.0513              1547.0985
 Red. masses --      1.0941                 1.0884                 1.0882
 Frc consts  --      1.5222                 1.5229                 1.5346
 IR Inten    --     13.6716                16.9881                 6.4382

                     82                     83                     84
                      A                      A                      A
 Frequencies --   1554.4987              1598.2206              3017.3103
 Red. masses --      4.6740                 4.9186                 1.0724
 Frc consts  --      6.6546                 7.4023                 5.7526
 IR Inten    --     10.3734                32.0021                10.0954

                     85                     86                     87
                      A                      A                      A
 Frequencies --   3021.4248              3026.1200              3032.7985
 Red. masses --      1.0693                 1.0636                 1.0775
 Frc consts  --      5.7513                 5.7386                 5.8393
 IR Inten    --     36.9310                13.9121                55.6835

                     88                     89                     90
                      A                      A                      A
 Frequencies --   3036.5962              3043.4238              3047.7056
 Red. masses --      1.0640                 1.0422                 1.0537
 Frc consts  --      5.7804                 5.6874                 5.7666
 IR Inten    --     25.5992                16.5962                12.7307

                     91                     92                     93
                      A                      A                      A
 Frequencies --   3052.9412              3053.0535              3059.2924
 Red. masses --      1.0443                 1.0370                 1.0930
 Frc consts  --      5.7347                 5.6949                 6.0273
 IR Inten    --      8.7920                28.0840                33.8268

                     94                     95                     96
                      A                      A                      A
 Frequencies --   3067.9056              3077.0705              3089.5308
 Red. masses --      1.0996                 1.1004                 1.0936
 Frc consts  --      6.0978                 6.1389                 6.1501
 IR Inten    --     26.8186                82.6892                14.1248

                     97                     98                     99
                      A                      A                      A
 Frequencies --   3090.9472              3108.3713              3108.9549
 Red. masses --      1.0954                 1.1013                 1.1013
 Frc consts  --      6.1663                 6.2692                 6.2719
 IR Inten    --     70.4924                14.8597                51.1610

                    100                    101                    102
                      A                      A                      A
 Frequencies --   3116.9687              3119.4922              3128.3925
 Red. masses --      1.1019                 1.1019                 1.1008
 Frc consts  --      6.3078                 6.3176                 6.3477
 IR Inten    --     46.9373                50.3580                28.1565

                    103                    104                    105
                      A                      A                      A
 Frequencies --   3139.7298              3274.2120              3488.4951
 Red. masses --      1.1018                 1.0947                 1.0729
 Frc consts  --      6.3996                 6.9146                 7.6928
 IR Inten    --     16.3153                 1.7165                 1.7124

 - Thermochemistry -
 -------------------
 Temperature   298.150 Kelvin.  Pressure   1.00000 Atm.
 Atom     1 has atomic number  6 and mass  12.00000

 Molecular mass:   226.15037 amu.
 Principal axes and moments of inertia in atomic units:
                           1         2         3
     Eigenvalues --  1453.311459166.886259645.38781
           X            0.99993  -0.01194   0.00014
           Y            0.01193   0.99957   0.02666
           Z           -0.00046  -0.02665   0.99964
 This molecule is an asymmetric top.
 Rotational symmetry number  1.
 Warning -- assumption of classical behavior for rotation
           may cause significant error
 Rotational temperatures (Kelvin)      0.05960     0.00945     0.00898
 Rotational constants (GHZ):           1.24181     0.19688     0.18711
 Zero-point vibrational energy     866205.7 (Joules/Mol)
                                  207.02814 (Kcal/Mol)
 Warning -- explicit consideration of  26 degrees of freedom as
           vibrations may cause significant error
 Vibrational temperatures:     28.82    45.65    53.96    77.27   111.90
          (Kelvin)            134.90   189.10   210.74   242.11   293.32
                              303.58   327.33   379.02   385.20   399.16
                              444.43   492.19   505.85   545.12   627.46
                              661.33   721.01   754.08   783.59   800.57
                              877.10   933.04  1040.89  1058.28  1074.65
                             1114.77  1150.44  1202.88  1235.08  1255.89
                             1279.98  1323.61  1379.60  1382.39  1415.56
                             1445.64  1480.30  1492.71  1522.10  1552.96
                             1556.57  1582.27  1613.49  1662.82  1663.18
                             1697.01  1700.89  1716.91  1784.31  1801.01
                             1860.51  1895.46  1929.25  1943.96  1956.13
                             1977.15  1993.92  2006.86  2026.19  2040.15
                             2049.64  2070.47  2074.68  2076.62  2153.75
                             2166.48  2170.07  2175.76  2178.40  2189.11
                             2193.74  2199.05  2204.00  2211.01  2217.23
                             2225.93  2236.58  2299.48  4341.24  4347.16
                             4353.91  4363.52  4368.98  4378.81  4384.97
                             4392.50  4392.66  4401.64  4414.03  4427.22
                             4445.15  4447.18  4472.25  4473.09  4484.62
                             4488.25  4501.06  4517.37  4710.86  5019.17

 Zero-point correction=                           0.329920 (Hartree/Particle)
 Thermal correction to Energy=                    0.347185
 Thermal correction to Enthalpy=                  0.348129
 Thermal correction to Gibbs Free Energy=         0.282847
 Sum of electronic and zero-point Energies=           -977.956871
 Sum of electronic and thermal Energies=              -977.939606
 Sum of electronic and thermal Enthalpies=            -977.938662
 Sum of electronic and thermal Free Energies=         -978.003944

                     E (Thermal)             CV                S
                      KCal/Mol        Cal/Mol-Kelvin    Cal/Mol-Kelvin
 Total                  217.862             63.952            137.398
 Electronic               0.000              0.000              0.000
 Translational            0.889              2.981             42.150
 Rotational               0.889              2.981             33.218
 Vibrational            216.085             57.990             62.029
 Vibration     1          0.593              1.986              6.631
 Vibration     2          0.594              1.983              5.718
 Vibration     3          0.594              1.982              5.387
 Vibration     4          0.596              1.976              4.676
 Vibration     5          0.599              1.964              3.946
 Vibration     6          0.603              1.954              3.580
 Vibration     7          0.612              1.922              2.925
 Vibration     8          0.617              1.906              2.718
 Vibration     9          0.625              1.882              2.455
 Vibration    10          0.640              1.834              2.098
 Vibration    11          0.643              1.824              2.035
 Vibration    12          0.651              1.799              1.899
 Vibration    13          0.670              1.740              1.639
 Vibration    14          0.673              1.732              1.611
 Vibration    15          0.678              1.715              1.549
 Vibration    16          0.698              1.657              1.368
 Vibration    17          0.721              1.591              1.202
 Vibration    18          0.728              1.572              1.159
 Vibration    19          0.749              1.515              1.044
 Vibration    20          0.797              1.391              0.839
 Vibration    21          0.818              1.340              0.767
 Vibration    22          0.857              1.248              0.655
 Vibration    23          0.879              1.197              0.600
 Vibration    24          0.900              1.151              0.555
 Vibration    25          0.912              1.126              0.531
 Vibration    26          0.969              1.011              0.433

 Optimization completed.
    -- Stationary point found.
 Normal termination of Gaussian 16 at Thu Dec 10 15:09:00 2020.

 ----------------------------------------------------------------------
 # B3LYP/6-311++G(d,p) empiricaldispersion=gd3bj scf=xqc pop=npa geom=c
 heck
 ----------------------------------------------------------------------

 --------------------------------------
 CID_61043595_JID_5241_Energie_neutraal
 --------------------------------------
 Structure from the checkpoint file:  "JID_5241.chk"
 Charge =  0 Multiplicity = 1

 SCF Done:  E(RB3LYP) =  -978.474719916     A.U. after   15 cycles
 Normal termination of Gaussian 16 at Thu Dec 10 15:16:06 2020.

 ----------------------------------------------------------------------
 # B3LYP/6-311++G(d,p) empiricaldispersion=gd3bj scf=xqc pop=npa geom=c
 heck
 ----------------------------------------------------------------------

 ------------------------------------
 CID_61043595_JID_5241_Energie_kation
 ------------------------------------
 Structure from the checkpoint file:  "JID_5241.chk"
 Charge =  1 Multiplicity = 2

 SCF Done:  E(UB3LYP) =  -978.176732191     A.U. after   29 cycles
 Normal termination of Gaussian 16 at Thu Dec 10 15:36:08 2020.
 Gaussian 16:  ES64L-G16RevA.03 25-Dec-2016

 ----------------------------------------------------------------------
 # B3LYP/6-311++G(d,p) empiricaldispersion=gd3bj scf=xqc pop=npa geom=c
 heck
 ----------------------------------------------------------------------

 -----------------------------------
 CID_61043595_JID_5241_Energie_anion
 -----------------------------------
 Structure from the checkpoint file:  "JID_5241.chk"
 Charge = -1 Multiplicity = 2

                         Standard orientation:
 ---------------------------------------------------------------------
 Center     Atomic      Atomic             Coordinates (Angstroms)
 Number     Number       Type             X           Y           Z
 ---------------------------------------------------------------------
      1          6           0        5.725404   -0.220503   -0.740579
      2          6           0        4.656660   -0.888276    0.129687
      3          6           0        4.012928    0.055098    1.157312
      4          6           0        3.305596    1.283262    0.561332
      5          6           0        2.225139    0.965680   -0.482412
      6          6           0        1.100800    0.026241   -0.018747
      7          6           0        0.331614    0.595688    1.184399
      8          7           0        0.284986   -0.282612   -1.203282
      9          6           0       -0.782877   -1.250359   -1.014108
     10          6           0       -2.068661   -0.678109   -0.453467
     11          7           0       -2.475307    0.531362   -0.702094
     12          6           0       -3.693987    0.804443   -0.103173
     13          6           0       -4.223121   -0.231569    0.612552
     14         16           0       -3.168841   -1.612857    0.552973
     15          6           0       -4.304633    2.161316   -0.279450
     16          1           0        5.299354    0.568431   -1.370144
     17          1           0        6.205534   -0.947822   -1.404626
     18          1           0        6.508401    0.235957   -0.122108
     19          1           0        3.880302   -1.319824   -0.515432
     20          1           0        5.106087   -1.733295    0.667786
     21          1           0        3.300386   -0.517655    1.765769
     22          1           0        4.788550    0.405348    1.852733
     23          1           0        2.871573    1.869577    1.380934
     24          1           0        4.049734    1.939083    0.092022
     25          1           0        1.770031    1.910592   -0.815094
     26          1           0        2.680536    0.516853   -1.372405
     27          1           0        1.551794   -0.928224    0.286874
     28          1           0       -0.157201    1.540112    0.918922
     29          1           0       -0.444937   -0.093957    1.528960
     30          1           0        1.004636    0.780424    2.028889
     31          1           0       -0.125165    0.576934   -1.567332
     32          1           0       -1.020849   -1.706050   -1.986361
     33          1           0       -0.421938   -2.062093   -0.372652
     34          1           0       -5.152930   -0.257994    1.163235
     35          1           0       -3.634925    2.939224    0.105087
     36          1           0       -4.473766    2.375054   -1.341069
     37          1           0       -5.260669    2.236303    0.245998
 ---------------------------------------------------------------------

 SCF Done:  E(UB3LYP) =  -978.461405443     A.U. after   33 cycles
 SCF Done:  E(UB3LYP) =  -978.461405455     a.u. after    2 cycles

 The electronic state is 2-A.
 Alpha  occ. eigenvalues --  -88.77884 -14.20913 -14.20284 -10.13196 -10.11596
 Alpha  occ. eigenvalues --  -10.11001 -10.10573 -10.09425 -10.07528 -10.07426
 Alpha  occ. eigenvalues --  -10.07395 -10.07394 -10.07038 -10.06857 -10.06096
 Alpha  occ. eigenvalues --   -7.86520  -5.82788  -5.82447  -5.82138  -0.86642
 Alpha  occ. eigenvalues --   -0.81609  -0.72070  -0.69583  -0.69027  -0.67098
 Alpha  occ. eigenvalues --   -0.63597  -0.60867  -0.58964  -0.56116  -0.53634
 Alpha  occ. eigenvalues --   -0.49750  -0.48694  -0.45780  -0.43807  -0.39890
 Alpha  occ. eigenvalues --   -0.39318  -0.38405  -0.36778  -0.35545  -0.34489
 Alpha  occ. eigenvalues --   -0.33506  -0.33127  -0.32511  -0.31509  -0.31285
 Alpha  occ. eigenvalues --   -0.30658  -0.30190  -0.28946  -0.28679  -0.28335
 Alpha  occ. eigenvalues --   -0.26597  -0.26284  -0.25965  -0.25181  -0.24872
 Alpha  occ. eigenvalues --   -0.22977  -0.22562  -0.22030  -0.18517  -0.17972
 Alpha  occ. eigenvalues --   -0.13976  -0.13637   0.04157
 Alpha virt. eigenvalues --    0.05311   0.06200   0.07025   0.07217   0.07608
 Alpha virt. eigenvalues --    0.07887   0.08652   0.09149   0.09584   0.10020
 Alpha virt. eigenvalues --    0.10175   0.10616   0.10922   0.11471   0.11711

  Beta  occ. eigenvalues --  -88.77869 -14.20888 -14.20279 -10.13065 -10.11604
  Beta  occ. eigenvalues --  -10.11001 -10.10572 -10.09341 -10.07516 -10.07414
  Beta  occ. eigenvalues --  -10.07384 -10.07364 -10.07030 -10.06827 -10.06084
  Beta  occ. eigenvalues --   -7.86507  -5.82776  -5.82441  -5.82096  -0.86536
  Beta  occ. eigenvalues --   -0.81593  -0.72046  -0.69482  -0.68956  -0.67051
  Beta  occ. eigenvalues --   -0.63567  -0.60801  -0.58922  -0.56041  -0.53588
  Beta  occ. eigenvalues --   -0.49709  -0.48573  -0.45741  -0.43696  -0.39838
  Beta  occ. eigenvalues --   -0.39262  -0.38366  -0.36692  -0.35518  -0.34428
  Beta  occ. eigenvalues --   -0.33437  -0.33067  -0.32455  -0.31473  -0.31244
  Beta  occ. eigenvalues --   -0.30600  -0.30143  -0.28919  -0.28590  -0.28250
  Beta  occ. eigenvalues --   -0.26543  -0.26249  -0.25873  -0.25158  -0.24841
  Beta  occ. eigenvalues --   -0.22952  -0.22538  -0.22007  -0.18270  -0.17917
  Beta  occ. eigenvalues --   -0.13683  -0.13527
  Beta virt. eigenvalues --    0.05975   0.06550   0.06967   0.07118   0.07560
  Beta virt. eigenvalues --    0.07983   0.08314   0.08932   0.09367   0.09746
  Beta virt. eigenvalues --    0.10209   0.10303   0.10752   0.11078   0.11580

 Mulliken charges and spin densities:
               1          2
     1  C    0.658484  -1.291690
     2  C   -0.584843   0.396605
     3  C    0.036415  -0.294843
     4  C   -0.001760  -0.290614
     5  C    0.060384  -0.095855
     6  C   -0.647389  -0.087990
     7  C   -0.279133  -0.310536
     8  N    0.164337   0.070836
     9  C    0.305122  -0.616188
    10  C   -0.350443   0.906244
    11  N    0.007608   0.103390
    12  C   -1.457129   0.651984
    13  C   -0.086644   0.517869
    14  S    0.239457  -0.612447
    15  C    2.107217  -2.770774
    16  H   -0.054345   0.188929
    17  H   -0.194328   0.330368
    18  H   -0.140097   0.276946
    19  H    0.110249   0.038830
    20  H   -0.254660   0.403728
    21  H    0.083873   0.061611
    22  H   -0.188175   0.348259
    23  H    0.001053   0.151480
    24  H    0.023742   0.144848
    25  H    0.091030   0.038993
    26  H    0.088453   0.118046
    27  H    0.168154  -0.009809
    28  H    0.192327  -0.021351
    29  H    0.040597   0.098881
    30  H    0.032019   0.099617
    31  H    0.182190   0.044445
    32  H   -0.028754   0.241224
    33  H    0.163969  -0.033313
    34  H   -1.001965   1.261920
    35  H   -0.082649   0.232557
    36  H   -0.067365   0.219014
    37  H   -0.337002   0.488784
 Sum of Mulliken charges =  -1.00000   1.00000

 Dipole moment (field-independent basis, Debye):
    X=              0.7933    Y=             -1.6514    Z=             -0.7188  Tot=              1.9680
 Quadrupole moment (field-independent basis, Debye-Ang):
   XX=           -244.8276   YY=           -134.5063   ZZ=           -136.6028
   XY=             12.2434   XZ=              8.1794   YZ=             -3.1246

 Summary of Natural Population Analysis:

                                       Natural Population
                Natural  -----------------------------------------------
    Atom  No    Charge         Core      Valence    Rydberg      Total
 -----------------------------------------------------------------------
      C    1   -0.28801      0.99967     2.28310    0.00524     3.28801
      C    2   -0.19431      0.99964     2.18592    0.00875     3.19431
      C    3   -0.19107      0.99963     2.18268    0.00876     3.19107
      C    4   -0.19250      0.99963     2.18440    0.00847     3.19250
      C    5   -0.19254      0.99960     2.18438    0.00856     3.19254
      C    6   -0.00904      0.99960     1.99911    0.01033     3.00904
      C    7   -0.29850      0.99964     2.29370    0.00516     3.29850
      N    8   -0.33795      0.99975     2.82659    0.01162     3.83795
      C    9   -0.10955      0.99956     2.09770    0.01229     3.10955
      C   10    0.05547      0.99961     1.92709    0.01784     2.94453
      N   11   -0.25953      0.99962     2.74798    0.01194     3.75953
      C   12    0.06380      0.99949     1.92264    0.01407     2.93620
      C   13   -0.19910      0.99945     2.18863    0.01102     3.19910
      S   14    0.18048      4.99942     2.80039    0.01971     7.81952
      C   15   -0.29379      0.99962     2.28805    0.00612     3.29379
      H   16    0.09592      0.00000     0.40303    0.00104     0.40408
      H   17    0.09908      0.00000     0.40001    0.00092     0.40092
      H   18    0.09620      0.00000     0.40264    0.00116     0.40380
      H   19    0.09480      0.00000     0.40393    0.00127     0.40520
      H   20    0.09572      0.00000     0.40325    0.00103     0.40428
      H   21    0.09482      0.00000     0.40411    0.00107     0.40518
      H   22    0.09649      0.00000     0.40246    0.00105     0.40351
      H   23    0.09704      0.00000     0.40189    0.00107     0.40296
      H   24    0.09750      0.00000     0.40154    0.00096     0.40250
      H   25    0.09589      0.00000     0.40299    0.00112     0.40411
      H   26    0.10269      0.00000     0.39576    0.00155     0.39731
      H   27    0.08649      0.00000     0.41158    0.00193     0.41351
      H   28    0.10189      0.00000     0.39698    0.00112     0.39811
      H   29    0.10247      0.00000     0.39653    0.00099     0.39753
      H   30    0.09804      0.00000     0.40109    0.00087     0.40196
      H   31    0.17902      0.00000     0.31782    0.00316     0.32098
      H   32    0.10481      0.00000     0.39395    0.00124     0.39519
      H   33    0.09813      0.00000     0.40080    0.00107     0.40187
      H   34    0.11325      0.00000     0.38457    0.00218     0.38675
      H   35    0.10637      0.00000     0.39239    0.00125     0.39363
      H   36    0.10465      0.00000     0.39422    0.00113     0.39535
      H   37    0.10484      0.00000     0.39389    0.00127     0.39516
 =======================================================================
   * Total *   -0.00000     18.99392    42.81778    0.18830    62.00000

 Normal termination of Gaussian 16 at Thu Dec 10 16:18:26 2020.
