 Gaussian 16, Revision A.03,

 -----------------------------------------------------------
 # opt freq B3LYP/6-31G(d) empiricaldispersion=gd3bj scf=xqc
 -----------------------------------------------------------

 -------------------------------
 CID_151193855_JID_7116_neutraal
 -------------------------------
 Symbolic Z-matrix:
 Charge =  0 Multiplicity = 1

 SCF Done:  E(RB3LYP) =  -775.919760321     A.U. after   17 cycles
 SCF Done:  E(RB3LYP) =  -775.925221909     A.U. after   15 cycles
 SCF Done:  E(RB3LYP) =  -775.927603715     A.U. after   14 cycles
 SCF Done:  E(RB3LYP) =  -775.929725425     A.U. after   15 cycles
 SCF Done:  E(RB3LYP) =  -775.931692077     A.U. after   16 cycles
 SCF Done:  E(RB3LYP) =  -775.933225661     A.U. after   14 cycles
 SCF Done:  E(RB3LYP) =  -775.934292211     A.U. after   14 cycles
 SCF Done:  E(RB3LYP) =  -775.934745226     A.U. after   13 cycles
 SCF Done:  E(RB3LYP) =  -775.934945372     A.U. after   13 cycles
 SCF Done:  E(RB3LYP) =  -775.935090585     A.U. after   13 cycles
 SCF Done:  E(RB3LYP) =  -775.935206302     A.U. after   10 cycles
 SCF Done:  E(RB3LYP) =  -775.935206721     A.U. after    9 cycles
 SCF Done:  E(RB3LYP) =  -775.935207019     A.U. after    8 cycles
 SCF Done:  E(RB3LYP) =  -775.935207141     A.U. after    8 cycles
 SCF Done:  E(RB3LYP) =  -775.935207183     A.U. after    7 cycles
 Optimization completed.
    -- Stationary point found.
 Normal termination of Gaussian 16 at Fri Dec 11 11:57:47 2020.

 --------------------------------------------------------------------
 #N Geom=AllCheck Guess=TCheck SCRF=Check GenChk RB3LYP/6-31G(d) Freq
 --------------------------------------------------------------------

 Structure from the checkpoint file:  "JID_7116.chk"
 -------------------------------
 CID_151193855_JID_7116_neutraal
 -------------------------------
 Charge =  0 Multiplicity = 1

 SCF Done:  E(RB3LYP) =  -775.935207183     A.U. after    1 cycles

  Exact polarizability: 211.274  -3.887 157.811   0.888  12.545  92.586
 Approx polarizability: 304.248 -19.437 258.939  -8.408  34.909 166.152

                      1                      2                      3
                      A                      A                      A
 Frequencies --     28.6569                36.4187                48.8470
 Red. masses --      3.5280                 6.4560                 6.2765
 Frc consts  --      0.0017                 0.0050                 0.0088
 IR Inten    --      0.0214                 0.1088                 0.4220

                      4                      5                      6
                      A                      A                      A
 Frequencies --     58.8644                92.2808               106.4495
 Red. masses --      3.6266                 3.9191                 2.2802
 Frc consts  --      0.0074                 0.0197                 0.0152
 IR Inten    --      1.1073                 4.3821                 0.6932

                      7                      8                      9
                      A                      A                      A
 Frequencies --    159.1462               171.2127               198.9838
 Red. masses --      3.3130                 3.1183                 4.9618
 Frc consts  --      0.0494                 0.0539                 0.1158
 IR Inten    --      0.6866                 1.9155                 0.8821

                     10                     11                     12
                      A                      A                      A
 Frequencies --    219.6477               231.8223               266.0360
 Red. masses --      2.0961                 1.8804                 1.8799
 Frc consts  --      0.0596                 0.0595                 0.0784
 IR Inten    --      0.3753                 0.0757                 0.6650

                     13                     14                     15
                      A                      A                      A
 Frequencies --    285.2175               297.2508               312.9900
 Red. masses --      3.1052                 3.1062                 3.7069
 Frc consts  --      0.1488                 0.1617                 0.2140
 IR Inten    --      2.6960                 0.1120                 0.8473

                     16                     17                     18
                      A                      A                      A
 Frequencies --    347.4260               362.3086               425.0442
 Red. masses --      3.4809                 3.6974                 3.1282
 Frc consts  --      0.2476                 0.2860                 0.3330
 IR Inten    --      0.4907                 1.6088                 1.9351

                     19                     20                     21
                      A                      A                      A
 Frequencies --    487.6242               536.3349               552.8850
 Red. masses --      5.5264                 5.7067                12.3773
 Frc consts  --      0.7742                 0.9672                 2.2292
 IR Inten    --      2.6670                 1.7618                 7.0030

                     22                     23                     24
                      A                      A                      A
 Frequencies --    559.8129               589.1539               614.5863
 Red. masses --      4.5108                 4.2682                 5.0050
 Frc consts  --      0.8329                 0.8729                 1.1138
 IR Inten    --      0.6309                 6.4160                 0.6047

                     25                     26                     27
                      A                      A                      A
 Frequencies --    644.4117               667.2209               698.8776
 Red. masses --      5.5232                 5.6580                 3.8362
 Frc consts  --      1.3513                 1.4841                 1.1040
 IR Inten    --      5.0651                 2.5970                 6.0149

                     28                     29                     30
                      A                      A                      A
 Frequencies --    744.7037               771.0629               779.6522
 Red. masses --      1.6651                 3.1154                 3.5281
 Frc consts  --      0.5441                 1.0913                 1.2635
 IR Inten    --     34.7387                16.9821                14.6444

                     31                     32                     33
                      A                      A                      A
 Frequencies --    806.9374               842.5326               855.3499
 Red. masses --      2.3054                 1.4188                 3.4845
 Frc consts  --      0.8844                 0.5934                 1.5020
 IR Inten    --      8.3392                 2.2402                 2.8797

                     34                     35                     36
                      A                      A                      A
 Frequencies --    880.4865               882.2210               920.3705
 Red. masses --      2.7929                 3.6208                 1.6653
 Frc consts  --      1.2757                 1.6604                 0.8311
 IR Inten    --      4.5210                 1.7328                 3.6984

                     37                     38                     39
                      A                      A                      A
 Frequencies --    939.8450              1016.0725              1055.3604
 Red. masses --      1.2376                 4.5335                 2.4785
 Frc consts  --      0.6441                 2.7576                 1.6264
 IR Inten    --      0.3398                 4.3773                 9.7941

                     40                     41                     42
                      A                      A                      A
 Frequencies --   1089.5076              1101.5323              1108.1144
 Red. masses --      2.8606                 2.0854                 2.2167
 Frc consts  --      2.0007                 1.4909                 1.6037
 IR Inten    --     12.4725                10.6968                21.4927

                     43                     44                     45
                      A                      A                      A
 Frequencies --   1119.2578              1150.0473              1186.2205
 Red. masses --      1.8262                 4.7476                 1.2715
 Frc consts  --      1.3479                 3.6996                 1.0541
 IR Inten    --      8.5740               141.1772                 0.8228

                     46                     47                     48
                      A                      A                      A
 Frequencies --   1193.3966              1221.1055              1232.4197
 Red. masses --      1.4695                 1.4231                 2.5583
 Frc consts  --      1.2330                 1.2502                 2.2894
 IR Inten    --      5.3575                 2.9425                27.2823

                     49                     50                     51
                      A                      A                      A
 Frequencies --   1260.2901              1278.6631              1303.7469
 Red. masses --      1.8623                 4.3825                 1.2559
 Frc consts  --      1.7428                 4.2217                 1.2577
 IR Inten    --      4.1013                68.7222                 2.3553

                     52                     53                     54
                      A                      A                      A
 Frequencies --   1316.5322              1353.0777              1373.9492
 Red. masses --      2.2095                 3.1535                 2.3339
 Frc consts  --      2.2563                 3.4017                 2.5958
 IR Inten    --    136.0615               131.5451                33.0556

                     55                     56                     57
                      A                      A                      A
 Frequencies --   1380.5288              1408.1557              1414.9745
 Red. masses --      1.6143                 2.6432                 3.2726
 Frc consts  --      1.8127                 3.0880                 3.8605
 IR Inten    --      4.5628                 2.0974                59.1655

                     58                     59                     60
                      A                      A                      A
 Frequencies --   1450.0892              1463.2803              1498.1882
 Red. masses --      1.2750                 2.9115                 1.2274
 Frc consts  --      1.5796                 3.6730                 1.6232
 IR Inten    --      4.5497                11.9159                20.6707

                     61                     62                     63
                      A                      A                      A
 Frequencies --   1499.1547              1519.2817              1520.7242
 Red. masses --      1.1079                 1.0638                 1.0479
 Frc consts  --      1.4671                 1.4467                 1.4279
 IR Inten    --      7.3497                 0.7432                 5.4197

                     64                     65                     66
                      A                      A                      A
 Frequencies --   1528.7193              1534.7257              1534.9389
 Red. masses --      1.0409                 1.0689                 1.0830
 Frc consts  --      1.4333                 1.4833                 1.5034
 IR Inten    --      6.3430                39.1763                10.4566

                     67                     68                     69
                      A                      A                      A
 Frequencies --   1558.8930              1594.7351              1654.2819
 Red. masses --      2.9102                 7.9760                 6.8669
 Frc consts  --      4.1668                11.9512                11.0721
 IR Inten    --     81.8716                14.7292                79.8905

                     70                     71                     72
                      A                      A                      A
 Frequencies --   1665.5323              2233.2865              3026.4408
 Red. masses --      8.5566                13.9921                 1.0348
 Frc consts  --     13.9848                41.1170                 5.5841
 IR Inten    --     37.3547               354.0015                66.6304

                     73                     74                     75
                      A                      A                      A
 Frequencies --   3044.9401              3054.4541              3062.1226
 Red. masses --      1.0609                 1.0362                 1.0657
 Frc consts  --      5.7955                 5.6956                 5.8876
 IR Inten    --     27.7135                22.2586                13.7568

                     76                     77                     78
                      A                      A                      A
 Frequencies --   3078.5490              3085.4006              3118.7213
 Red. masses --      1.0999                 1.1066                 1.1024
 Frc consts  --      6.1417                 6.2067                 6.3174
 IR Inten    --     34.6364                42.7930                13.9864

                     79                     80                     81
                      A                      A                      A
 Frequencies --   3123.8448              3131.0683              3162.1436
 Red. masses --      1.1004                 1.1022                 1.0998
 Frc consts  --      6.3268                 6.3663                 6.4791
 IR Inten    --     29.1504                42.7131                24.4265

                     82                     83                     84
                      A                      A                      A
 Frequencies --   3195.6808              3221.9189              3232.2266
 Red. masses --      1.0876                 1.0931                 1.0916
 Frc consts  --      6.5438                 6.6854                 6.7193
 IR Inten    --      8.9917                10.5800                13.4000

 - Thermochemistry -
 -------------------
 Temperature   298.150 Kelvin.  Pressure   1.00000 Atm.
 Atom     1 has atomic number  6 and mass  12.00000

 Molecular mass:   231.11201 amu.
 Principal axes and moments of inertia in atomic units:
                           1         2         3
     Eigenvalues --  2440.313725349.142517140.24539
           X            0.99923   0.03920   0.00218
           Y           -0.03917   0.99915  -0.01287
           Z           -0.00268   0.01278   0.99991
 This molecule is an asymmetric top.
 Rotational symmetry number  1.
 Warning -- assumption of classical behavior for rotation
           may cause significant error
 Rotational temperatures (Kelvin)      0.03549     0.01619     0.01213
 Rotational constants (GHZ):           0.73955     0.33739     0.25276
 Zero-point vibrational energy     626717.4 (Joules/Mol)
                                  149.78905 (Kcal/Mol)
 Warning -- explicit consideration of  24 degrees of freedom as
           vibrations may cause significant error
 Vibrational temperatures:     41.23    52.40    70.28    84.69   132.77
          (Kelvin)            153.16   228.98   246.34   286.29   316.02
                              333.54   382.77   410.36   427.68   450.32
                              499.87   521.28   611.54   701.58   771.67
                              795.48   805.45   847.66   884.25   927.16
                              959.98  1005.53  1071.46  1109.39  1121.75
                             1161.00  1212.22  1230.66  1266.82  1269.32
                             1324.21  1352.23  1461.90  1518.43  1567.56
                             1584.86  1594.33  1610.36  1654.66  1706.71
                             1717.03  1756.90  1773.18  1813.28  1839.71
                             1875.80  1894.20  1946.78  1976.81  1986.27
                             2026.02  2035.83  2086.35  2105.33  2155.56
                             2156.95  2185.91  2187.98  2199.49  2208.13
                             2208.43  2242.90  2294.47  2380.14  2396.33
                             3213.20  4354.37  4380.99  4394.68  4405.71
                             4429.35  4439.20  4487.14  4494.52  4504.91
                             4549.62  4597.87  4635.62  4650.45

 Zero-point correction=                           0.238704 (Hartree/Particle)
 Thermal correction to Energy=                    0.254551
 Thermal correction to Enthalpy=                  0.255495
 Thermal correction to Gibbs Free Energy=         0.193812
 Sum of electronic and zero-point Energies=           -775.696503
 Sum of electronic and thermal Energies=              -775.680656
 Sum of electronic and thermal Enthalpies=            -775.679712
 Sum of electronic and thermal Free Energies=         -775.741395

                     E (Thermal)             CV                S
                      KCal/Mol        Cal/Mol-Kelvin    Cal/Mol-Kelvin
 Total                  159.733             58.477            129.823
 Electronic               0.000              0.000              0.000
 Translational            0.889              2.981             42.215
 Rotational               0.889              2.981             32.899
 Vibrational            157.956             52.515             54.709
 Vibration     1          0.593              1.984              5.920
 Vibration     2          0.594              1.982              5.445
 Vibration     3          0.595              1.978              4.864
 Vibration     4          0.596              1.974              4.495
 Vibration     5          0.602              1.955              3.611
 Vibration     6          0.605              1.944              3.333
 Vibration     7          0.621              1.892              2.560
 Vibration     8          0.626              1.878              2.422
 Vibration     9          0.637              1.841              2.142
 Vibration    10          0.647              1.811              1.962
 Vibration    11          0.653              1.792              1.865
 Vibration    12          0.672              1.735              1.622
 Vibration    13          0.683              1.701              1.502
 Vibration    14          0.691              1.679              1.432
 Vibration    15          0.701              1.649              1.346
 Vibration    16          0.725              1.581              1.178
 Vibration    17          0.736              1.550              1.112
 Vibration    18          0.787              1.416              0.875
 Vibration    19          0.844              1.277              0.690
 Vibration    20          0.891              1.170              0.573
 Vibration    21          0.908              1.133              0.538
 Vibration    22          0.915              1.118              0.524
 Vibration    23          0.946              1.055              0.469
 Vibration    24          0.974              1.001              0.425

 Optimization completed.
    -- Stationary point found.
 Normal termination of Gaussian 16 at Fri Dec 11 12:08:40 2020.

 ----------------------------------------------------------------------
 # B3LYP/6-311++G(d,p) empiricaldispersion=gd3bj scf=xqc pop=npa geom=c
 heck
 ----------------------------------------------------------------------

 ---------------------------------------
 CID_151193855_JID_7116_Energie_neutraal
 ---------------------------------------
 Structure from the checkpoint file:  "JID_7116.chk"
 Charge =  0 Multiplicity = 1

 SCF Done:  E(RB3LYP) =  -776.139969803     A.U. after   17 cycles
 Normal termination of Gaussian 16 at Fri Dec 11 12:13:58 2020.

 ----------------------------------------------------------------------
 # B3LYP/6-311++G(d,p) empiricaldispersion=gd3bj scf=xqc pop=npa geom=c
 heck
 ----------------------------------------------------------------------

 -------------------------------------
 CID_151193855_JID_7116_Energie_kation
 -------------------------------------
 Structure from the checkpoint file:  "JID_7116.chk"
 Charge =  1 Multiplicity = 2

 SCF Done:  E(UB3LYP) =  -775.859673037     A.U. after   27 cycles
 Normal termination of Gaussian 16 at Fri Dec 11 12:23:45 2020.
 Gaussian 16:  ES64L-G16RevA.03 25-Dec-2016

 ----------------------------------------------------------------------
 # B3LYP/6-311++G(d,p) empiricaldispersion=gd3bj scf=xqc pop=npa geom=c
 heck
 ----------------------------------------------------------------------

 ------------------------------------
 CID_151193855_JID_7116_Energie_anion
 ------------------------------------
 Structure from the checkpoint file:  "JID_7116.chk"
 Charge = -1 Multiplicity = 2

                         Standard orientation:
 ---------------------------------------------------------------------
 Center     Atomic      Atomic             Coordinates (Angstroms)
 Number     Number       Type             X           Y           Z
 ---------------------------------------------------------------------
      1          6           0        2.453021    2.595591   -1.260999
      2          6           0        3.131950    1.730402   -0.197987
      3          6           0        2.241923    1.482722    1.040530
      4          6           0        0.980456    0.752493    0.724244
      5          7           0       -0.209661    1.273403    0.557412
      6          6           0       -1.053258    0.211161    0.247757
      7          6           0       -0.345447   -1.005860    0.223717
      8          7           0        0.963466   -0.624841    0.496370
      9          7           0        2.007700   -1.513815    0.812164
     10          7           0        2.676221   -1.827844   -0.212809
     11          7           0        3.386953   -2.222643   -1.005522
     12          6           0       -0.929831   -2.245362   -0.038299
     13          6           0       -2.295643   -2.220851   -0.293206
     14          6           0       -3.041689   -1.024939   -0.291386
     15          6           0       -2.436943    0.205664   -0.022153
     16          8           0       -3.069443    1.405552    0.004129
     17          6           0       -4.462889    1.421768   -0.257225
     18          1           0        1.525462    2.135346   -1.616128
     19          1           0        3.112748    2.748007   -2.121957
     20          1           0        2.191482    3.579375   -0.854824
     21          1           0        3.430016    0.768762   -0.635920
     22          1           0        4.058234    2.210308    0.141280
     23          1           0        2.808297    0.921945    1.793758
     24          1           0        1.952607    2.440735    1.482433
     25          1           0       -0.357812   -3.166463   -0.033622
     26          1           0       -2.813828   -3.152158   -0.502126
     27          1           0       -4.102951   -1.075506   -0.501967
     28          1           0       -4.686949    1.044485   -1.263677
     29          1           0       -5.016639    0.827367    0.481293
     30          1           0       -4.767777    2.466843   -0.184842
 ---------------------------------------------------------------------

 SCF Done:  E(UB3LYP) =  -776.152349169     A.U. after   33 cycles
 SCF Done:  E(UB3LYP) =  -776.152349169     a.u. after    1 cycles

 The electronic state is 2-A.
 Alpha  occ. eigenvalues --  -19.05346 -14.27227 -14.26087 -14.22581 -14.19511
 Alpha  occ. eigenvalues --  -14.17951 -10.12960 -10.12855 -10.12082 -10.09248
 Alpha  occ. eigenvalues --  -10.07977 -10.07301 -10.07050 -10.06999 -10.06323
 Alpha  occ. eigenvalues --  -10.06319 -10.05988  -0.97434  -0.97095  -0.90718
 Alpha  occ. eigenvalues --   -0.82666  -0.74037  -0.72640  -0.69575  -0.65082
 Alpha  occ. eigenvalues --   -0.63611  -0.60399  -0.58551  -0.52195  -0.51398
 Alpha  occ. eigenvalues --   -0.49846  -0.47603  -0.44925  -0.40526  -0.38723
 Alpha  occ. eigenvalues --   -0.38360  -0.37555  -0.37039  -0.35967  -0.34631
 Alpha  occ. eigenvalues --   -0.34359  -0.33103  -0.32019  -0.31222  -0.30251
 Alpha  occ. eigenvalues --   -0.29305  -0.28730  -0.27952  -0.27392  -0.26265
 Alpha  occ. eigenvalues --   -0.24582  -0.24489  -0.23546  -0.23306  -0.21512
 Alpha  occ. eigenvalues --   -0.20830  -0.16583  -0.15549  -0.11640  -0.11048
 Alpha  occ. eigenvalues --   -0.10098   0.04603
 Alpha virt. eigenvalues --    0.05725   0.07563   0.08064   0.09102   0.09579
 Alpha virt. eigenvalues --    0.09596   0.10037   0.10542   0.11222   0.11888
 Alpha virt. eigenvalues --    0.12095   0.12238   0.13307   0.13473   0.14037

  Beta  occ. eigenvalues --  -19.05341 -14.26585 -14.25884 -14.22620 -14.18636
  Beta  occ. eigenvalues --  -14.17950 -10.12937 -10.12854 -10.12080 -10.09249
  Beta  occ. eigenvalues --  -10.07973 -10.07295 -10.07047 -10.06996 -10.06321
  Beta  occ. eigenvalues --  -10.06315 -10.05986  -0.97104  -0.96355  -0.90320
  Beta  occ. eigenvalues --   -0.82265  -0.74016  -0.72260  -0.69565  -0.65039
  Beta  occ. eigenvalues --   -0.63565  -0.60375  -0.58515  -0.51743  -0.51368
  Beta  occ. eigenvalues --   -0.49752  -0.47532  -0.44847  -0.40490  -0.38685
  Beta  occ. eigenvalues --   -0.38227  -0.37506  -0.36592  -0.35514  -0.34585
  Beta  occ. eigenvalues --   -0.33477  -0.32672  -0.31665  -0.30523  -0.29959
  Beta  occ. eigenvalues --   -0.29259  -0.27935  -0.27421  -0.26954  -0.25961
  Beta  occ. eigenvalues --   -0.24550  -0.24299  -0.23491  -0.23277  -0.21463
  Beta  occ. eigenvalues --   -0.19436  -0.16519  -0.15102  -0.11557  -0.10823
  Beta  occ. eigenvalues --   -0.10017
  Beta virt. eigenvalues --    0.06249   0.07457   0.08117   0.09068   0.09628
  Beta virt. eigenvalues --    0.09717   0.10132   0.10427   0.11048   0.11869
  Beta virt. eigenvalues --    0.12091   0.12208   0.13019   0.13455   0.13821

 Mulliken charges and spin densities:
               1          2
     1  C   -0.553800  -0.079675
     2  C   -0.058544   0.039888
     3  C   -0.599351   0.029638
     4  C    0.092830  -0.104561
     5  N   -0.021792   0.014275
     6  C   -0.266602  -0.019183
     7  C    0.358727   0.023950
     8  N    0.398836  -0.005329
     9  N   -0.987485   0.045836
    10  N    0.543720   0.202642
    11  N   -0.254069   0.484690
    12  C   -0.211634  -0.095808
    13  C   -0.157195  -0.177318
    14  C    0.246602  -0.104205
    15  C   -0.431764   0.141012
    16  O   -0.178431   0.027925
    17  C    0.330818  -0.611890
    18  H    0.165935   0.013431
    19  H    0.115658   0.002077
    20  H    0.102589   0.010367
    21  H    0.153539  -0.001532
    22  H    0.073346   0.065514
    23  H    0.040382   0.136886
    24  H    0.160148   0.009375
    25  H    0.083269   0.063592
    26  H    0.102378   0.040852
    27  H   -0.006887   0.156297
    28  H   -0.073060   0.214728
    29  H   -0.070207   0.210148
    30  H   -0.097956   0.266379
 Sum of Mulliken charges =  -1.00000   1.00000

 Dipole moment (field-independent basis, Debye):
    X=             -2.3748    Y=              2.6357    Z=              0.2217  Tot=              3.5547
 Quadrupole moment (field-independent basis, Debye-Ang):
   XX=           -156.4018   YY=           -130.0190   ZZ=           -117.7668
   XY=             22.3537   XZ=              4.3692   YZ=             -2.0343

 Summary of Natural Population Analysis:

                                       Natural Population
                Natural  -----------------------------------------------
    Atom  No    Charge         Core      Valence    Rydberg      Total
 -----------------------------------------------------------------------
      C    1   -0.28791      0.99967     2.28357    0.00466     3.28791
      C    2   -0.18757      0.99964     2.18064    0.00729     3.18757
      C    3   -0.21401      0.99959     2.20596    0.00847     3.21401
      C    4    0.21439      0.99958     1.76804    0.01798     2.78561
      N    5   -0.26107      0.99967     2.75133    0.01008     3.76107
      C    6    0.03668      0.99942     1.95126    0.01265     2.96332
      C    7    0.07392      0.99944     1.91600    0.01064     2.92608
      N    8   -0.11065      0.99953     2.60028    0.01083     3.61065
      N    9   -0.16625      0.99972     2.65007    0.01646     3.66625
      N   10    0.15660      0.99970     2.32888    0.01482     3.34340
      N   11    0.07794      0.99981     2.40798    0.01426     3.42206
      C   12   -0.12914      0.99953     2.12007    0.00955     3.12914
      C   13   -0.10151      0.99960     2.09188    0.01004     3.10151
      C   14   -0.16671      0.99954     2.15883    0.00834     3.16671
      C   15    0.16286      0.99935     1.82559    0.01221     2.83714
      O   16   -0.26385      0.99985     3.25443    0.00957     4.26385
      C   17   -0.10247      0.99960     2.09331    0.00956     3.10247
      H   18    0.10521      0.00000     0.39363    0.00117     0.39479
      H   19    0.09399      0.00000     0.40514    0.00087     0.40601
      H   20    0.09313      0.00000     0.40571    0.00116     0.40687
      H   21    0.10471      0.00000     0.39391    0.00139     0.39529
      H   22    0.08996      0.00000     0.40869    0.00135     0.41004
      H   23    0.11337      0.00000     0.38515    0.00147     0.38663
      H   24    0.10486      0.00000     0.39361    0.00153     0.39514
      H   25    0.10892      0.00000     0.39005    0.00103     0.39108
      H   26    0.09571      0.00000     0.40349    0.00079     0.40429
      H   27    0.10089      0.00000     0.39792    0.00119     0.39911
      H   28    0.08316      0.00000     0.41525    0.00158     0.41684
      H   29    0.08286      0.00000     0.41556    0.00157     0.41714
      H   30    0.09197      0.00000     0.40706    0.00097     0.40803
 =======================================================================
   * Total *    0.00000     16.99324    43.80329    0.20347    61.00000

 Normal termination of Gaussian 16 at Fri Dec 11 12:36:55 2020.
