 Gaussian 16, Revision A.03,

 -----------------------------------------------------------
 # opt freq B3LYP/6-31G(d) empiricaldispersion=gd3bj scf=xqc
 -----------------------------------------------------------

 ------------------------------
 CID_91139940_JID_8800_neutraal
 ------------------------------
 Symbolic Z-matrix:
 Charge =  0 Multiplicity = 1

 SCF Done:  E(RB3LYP) =  -1467.68895693     A.U. after   16 cycles
 SCF Done:  E(RB3LYP) =  -1467.69629683     A.U. after   13 cycles
 SCF Done:  E(RB3LYP) =  -1467.69797944     A.U. after   13 cycles
 SCF Done:  E(RB3LYP) =  -1467.69865722     A.U. after   13 cycles
 SCF Done:  E(RB3LYP) =  -1467.69892081     A.U. after   13 cycles
 SCF Done:  E(RB3LYP) =  -1467.69907600     A.U. after   11 cycles
 SCF Done:  E(RB3LYP) =  -1467.69919047     A.U. after   12 cycles
 SCF Done:  E(RB3LYP) =  -1467.69920805     A.U. after   10 cycles
 SCF Done:  E(RB3LYP) =  -1467.69921846     A.U. after   11 cycles
 SCF Done:  E(RB3LYP) =  -1467.69922672     A.U. after   10 cycles
 SCF Done:  E(RB3LYP) =  -1467.69923262     A.U. after   11 cycles
 SCF Done:  E(RB3LYP) =  -1467.69923539     A.U. after   10 cycles
 SCF Done:  E(RB3LYP) =  -1467.69923637     A.U. after    9 cycles
 Optimization completed.
    -- Stationary point found.
 Normal termination of Gaussian 16 at Fri Dec 11 22:14:48 2020.

 --------------------------------------------------------------------
 #N Geom=AllCheck Guess=TCheck SCRF=Check GenChk RB3LYP/6-31G(d) Freq
 --------------------------------------------------------------------

 Structure from the checkpoint file:  "JID_8800.chk"
 ------------------------------
 CID_91139940_JID_8800_neutraal
 ------------------------------
 Charge =  0 Multiplicity = 1

 SCF Done:  E(RB3LYP) =  -1467.69923637     A.U. after    1 cycles

  Exact polarizability: 280.103   7.282 177.017   1.365  -8.722 117.099
 Approx polarizability: 412.953  16.382 299.503  13.377 -27.157 209.016

                      1                      2                      3
                      A                      A                      A
 Frequencies --     28.1733                37.9043                56.6192
 Red. masses --      6.2644                 4.9766                 4.0644
 Frc consts  --      0.0029                 0.0042                 0.0077
 IR Inten    --      0.4642                 0.0436                 1.3060

                      4                      5                      6
                      A                      A                      A
 Frequencies --     71.6167                90.4416                99.7654
 Red. masses --      5.1091                 4.3296                 3.7518
 Frc consts  --      0.0154                 0.0209                 0.0220
 IR Inten    --      0.4169                 1.5820                 0.2610

                      7                      8                      9
                      A                      A                      A
 Frequencies --    125.3751               145.8674               194.1139
 Red. masses --      5.2642                 4.6914                 5.8228
 Frc consts  --      0.0488                 0.0588                 0.1293
 IR Inten    --      0.6400                 0.3119                 2.9964

                     10                     11                     12
                      A                      A                      A
 Frequencies --    221.7939               242.2130               264.2209
 Red. masses --      1.1689                 4.8247                 4.8678
 Frc consts  --      0.0339                 0.1668                 0.2002
 IR Inten    --      0.6120                 1.3890                 1.1945

                     13                     14                     15
                      A                      A                      A
 Frequencies --    284.3893               309.6926               312.6080
 Red. masses --      3.2336                 1.9036                 1.7675
 Frc consts  --      0.1541                 0.1076                 0.1018
 IR Inten    --      3.8824                19.4979                21.4206

                     16                     17                     18
                      A                      A                      A
 Frequencies --    334.9283               385.5033               394.9209
 Red. masses --      3.0818                 6.5449                 5.5450
 Frc consts  --      0.2037                 0.5731                 0.5095
 IR Inten    --      7.8178                 4.8595                 8.8759

                     19                     20                     21
                      A                      A                      A
 Frequencies --    408.1413               485.1151               510.7323
 Red. masses --      6.2052                 5.7623                 5.9604
 Frc consts  --      0.6090                 0.7990                 0.9160
 IR Inten    --      4.3218                 4.9143                 6.9444

                     22                     23                     24
                      A                      A                      A
 Frequencies --    554.0813               583.4876               595.0185
 Red. masses --      4.7888                 3.6961                 5.2685
 Frc consts  --      0.8662                 0.7414                 1.0990
 IR Inten    --      1.1896                 9.4911                 2.9579

                     25                     26                     27
                      A                      A                      A
 Frequencies --    617.8027               627.0172               654.5307
 Red. masses --      4.2540                 6.9643                 3.5538
 Frc consts  --      0.9566                 1.6132                 0.8970
 IR Inten    --      9.9099                21.1362                58.4721

                     28                     29                     30
                      A                      A                      A
 Frequencies --    668.9229               699.4525               713.9662
 Red. masses --      3.7204                 1.2251                 1.8913
 Frc consts  --      0.9808                 0.3531                 0.5680
 IR Inten    --      6.5713                39.2004                50.1618

                     31                     32                     33
                      A                      A                      A
 Frequencies --    731.0191               744.5458               748.0244
 Red. masses --      2.5710                 1.8343                 3.2553
 Frc consts  --      0.8095                 0.5991                 1.0732
 IR Inten    --     22.6050               141.4249                35.3224

                     34                     35                     36
                      A                      A                      A
 Frequencies --    780.9490               795.8081               812.4882
 Red. masses --      2.2551                 1.4323                 1.8143
 Frc consts  --      0.8103                 0.5345                 0.7057
 IR Inten    --     43.4616                41.5393                 9.5814

                     37                     38                     39
                      A                      A                      A
 Frequencies --    836.7740               852.6697               860.0360
 Red. masses --      1.3470                 1.4196                 3.1372
 Frc consts  --      0.5557                 0.6081                 1.3672
 IR Inten    --     14.0250                 6.6179                 9.2049

                     40                     41                     42
                      A                      A                      A
 Frequencies --    895.1524               906.6534               912.0750
 Red. masses --      5.6553                 1.7480                 2.2061
 Frc consts  --      2.6699                 0.8466                 1.0813
 IR Inten    --     38.8885                 9.0675                 8.0727

                     43                     44                     45
                      A                      A                      A
 Frequencies --    926.8932               983.5598              1034.6942
 Red. masses --      5.3106                 3.0243                 2.8239
 Frc consts  --      2.6881                 1.7238                 1.7813
 IR Inten    --      2.0455                 7.4828                 9.0484

                     46                     47                     48
                      A                      A                      A
 Frequencies --   1061.0302              1078.3924              1098.7947
 Red. masses --      1.7678                 1.8231                 2.0034
 Frc consts  --      1.1726                 1.2492                 1.4251
 IR Inten    --     20.6471                 1.8112                12.3449

                     49                     50                     51
                      A                      A                      A
 Frequencies --   1101.9019              1117.6580              1119.8225
 Red. masses --      2.1010                 1.1746                 1.6367
 Frc consts  --      1.5030                 0.8645                 1.2093
 IR Inten    --     11.0481                 1.1670                 7.3215

                     52                     53                     54
                      A                      A                      A
 Frequencies --   1144.1071              1207.2547              1210.4589
 Red. masses --      2.3116                 3.7909                 3.0042
 Frc consts  --      1.7827                 3.2553                 2.5934
 IR Inten    --      1.0228                 9.1319                56.3963

                     55                     56                     57
                      A                      A                      A
 Frequencies --   1262.9807              1269.2206              1298.6557
 Red. masses --      1.3679                 1.5901                 1.5708
 Frc consts  --      1.2856                 1.5092                 1.5609
 IR Inten    --      2.4582                 3.9082                 2.3098

                     58                     59                     60
                      A                      A                      A
 Frequencies --   1309.1870              1335.0573              1376.6555
 Red. masses --      2.0165                 1.9172                 1.6618
 Frc consts  --      2.0363                 2.0133                 1.8556
 IR Inten    --      1.3390                13.5664                10.8881

                     61                     62                     63
                      A                      A                      A
 Frequencies --   1394.1240              1399.4788              1428.9903
 Red. masses --      3.6182                 2.6971                 2.4390
 Frc consts  --      4.1433                 3.1123                 2.9344
 IR Inten    --     20.1504                10.7551                28.1623

                     64                     65                     66
                      A                      A                      A
 Frequencies --   1438.9019              1490.2503              1522.9670
 Red. masses --      1.5575                 6.4768                 1.1138
 Frc consts  --      1.9000                 8.4748                 1.5221
 IR Inten    --     19.4729                 4.4367                 1.6101

                     67                     68                     69
                      A                      A                      A
 Frequencies --   1526.4559              1530.2989              1540.1111
 Red. masses --      1.1639                 2.8947                 1.0959
 Frc consts  --      1.5978                 3.9939                 1.5315
 IR Inten    --      3.8187                71.1745                10.0364

                     70                     71                     72
                      A                      A                      A
 Frequencies --   1556.5140              1586.1664              1621.6147
 Red. masses --      4.7145                 5.3038                 7.1405
 Frc consts  --      6.7297                 7.8620                11.0630
 IR Inten    --     44.2980                38.0527                22.5513

                     73                     74                     75
                      A                      A                      A
 Frequencies --   1633.1614              1677.5632              3050.8068
 Red. masses --      5.5927                 1.2149                 1.0353
 Frc consts  --      8.7888                 2.0144                 5.6773
 IR Inten    --      7.7501               100.5177                30.1946

                     76                     77                     78
                      A                      A                      A
 Frequencies --   3081.9138              3109.3536              3121.3506
 Red. masses --      1.0617                 1.1018                 1.1011
 Frc consts  --      5.9416                 6.2761                 6.3206
 IR Inten    --     15.1234                 6.7144                40.5834

                     79                     80                     81
                      A                      A                      A
 Frequencies --   3134.5745              3218.4273              3234.7081
 Red. masses --      1.1031                 1.0884                 1.0953
 Frc consts  --      6.3858                 6.6424                 6.7525
 IR Inten    --     37.0000                12.6800                 5.4653

                     82                     83                     84
                      A                      A                      A
 Frequencies --   3269.8482              3279.1691              3296.5315
 Red. masses --      1.0970                 1.0900                 1.0970
 Frc consts  --      6.9103                 6.9059                 7.0240
 IR Inten    --      1.1265                 0.5694                 0.7348

                     85                     86                     87
                      A                      A                      A
 Frequencies --   3304.9958              3496.2206              3604.4726
 Red. masses --      1.1067                 1.0486                 1.0965
 Frc consts  --      7.1226                 7.5516                 8.3934
 IR Inten    --      2.4864                14.1038                17.6417

 - Thermochemistry -
 -------------------
 Temperature   298.150 Kelvin.  Pressure   1.00000 Atm.
 Atom     1 has atomic number  6 and mass  12.00000

 Molecular mass:   275.04386 amu.
 Principal axes and moments of inertia in atomic units:
                           1         2         3
     Eigenvalues --  2369.786488835.75813**********
           X            0.99994   0.00876  -0.00578
           Y           -0.00872   0.99994   0.00659
           Z            0.00583  -0.00654   0.99996
 This molecule is an asymmetric top.
 Rotational symmetry number  1.
 Warning -- assumption of classical behavior for rotation
           may cause significant error
 Rotational temperatures (Kelvin)      0.03655     0.00980     0.00830
 Rotational constants (GHZ):           0.76156     0.20425     0.17300
 Zero-point vibrational energy     628517.4 (Joules/Mol)
                                  150.21927 (Kcal/Mol)
 Warning -- explicit consideration of  25 degrees of freedom as
           vibrations may cause significant error
 Vibrational temperatures:     40.54    54.54    81.46   103.04   130.13
          (Kelvin)            143.54   180.39   209.87   279.29   319.11
                              348.49   380.16   409.17   445.58   449.77
                              481.89   554.65   568.20   587.22   697.97
                              734.83   797.20   839.51   856.10   888.88
                              902.14   941.72   962.43  1006.36  1027.24
                             1051.77  1071.24  1076.24  1123.61  1144.99
                             1168.99  1203.93  1226.80  1237.40  1287.92
                             1304.47  1312.27  1333.59  1415.12  1488.69
                             1526.59  1551.57  1580.92  1585.39  1608.06
                             1611.17  1646.11  1736.97  1741.58  1817.15
                             1826.13  1868.48  1883.63  1920.85  1980.70
                             2005.83  2013.54  2056.00  2070.26  2144.14
                             2191.21  2196.23  2201.76  2215.88  2239.48
                             2282.14  2333.14  2349.75  2413.64  4389.43
                             4434.19  4473.67  4490.93  4509.95  4630.60
                             4654.02  4704.58  4717.99  4742.97  4755.15
                             5030.28  5186.03

 Zero-point correction=                           0.239390 (Hartree/Particle)
 Thermal correction to Energy=                    0.256121
 Thermal correction to Enthalpy=                  0.257065
 Thermal correction to Gibbs Free Energy=         0.193550
 Sum of electronic and zero-point Energies=          -1467.459847
 Sum of electronic and thermal Energies=             -1467.443115
 Sum of electronic and thermal Enthalpies=           -1467.442171
 Sum of electronic and thermal Free Energies=        -1467.505686

                     E (Thermal)             CV                S
                      KCal/Mol        Cal/Mol-Kelvin    Cal/Mol-Kelvin
 Total                  160.719             63.832            133.679
 Electronic               0.000              0.000              0.000
 Translational            0.889              2.981             42.734
 Rotational               0.889              2.981             33.746
 Vibrational            158.941             57.871             57.200
 Vibration     1          0.593              1.984              5.954
 Vibration     2          0.594              1.982              5.366
 Vibration     3          0.596              1.975              4.572
 Vibration     4          0.598              1.968              4.108
 Vibration     5          0.602              1.956              3.650
 Vibration     6          0.604              1.949              3.459
 Vibration     7          0.610              1.928              3.016
 Vibration     8          0.617              1.907              2.725
 Vibration     9          0.635              1.848              2.188
 Vibration    10          0.648              1.808              1.944
 Vibration    11          0.658              1.776              1.787
 Vibration    12          0.671              1.739              1.634
 Vibration    13          0.683              1.703              1.507
 Vibration    14          0.699              1.655              1.364
 Vibration    15          0.701              1.650              1.348
 Vibration    16          0.716              1.606              1.236
 Vibration    17          0.754              1.501              1.017
 Vibration    18          0.762              1.481              0.982
 Vibration    19          0.773              1.453              0.933
 Vibration    20          0.841              1.283              0.696
 Vibration    21          0.866              1.226              0.632
 Vibration    22          0.909              1.131              0.536
 Vibration    23          0.940              1.067              0.479
 Vibration    24          0.953              1.042              0.458
 Vibration    25          0.978              0.994              0.420

                           ! Non-Optimized Parameters !
 Normal termination of Gaussian 16 at Fri Dec 11 22:30:18 2020.

 ----------------------------------------------------------------------
 # B3LYP/6-311++G(d,p) empiricaldispersion=gd3bj scf=xqc pop=npa geom=c
 heck
 ----------------------------------------------------------------------

 --------------------------------------
 CID_91139940_JID_8800_Energie_neutraal
 --------------------------------------
 Structure from the checkpoint file:  "JID_8800.chk"
 Charge =  0 Multiplicity = 1

 SCF Done:  E(RB3LYP) =  -1467.93330503     A.U. after   17 cycles
 Normal termination of Gaussian 16 at Fri Dec 11 22:38:00 2020.

 ----------------------------------------------------------------------
 # B3LYP/6-311++G(d,p) empiricaldispersion=gd3bj scf=xqc pop=npa geom=c
 heck
 ----------------------------------------------------------------------

 ------------------------------------
 CID_91139940_JID_8800_Energie_kation
 ------------------------------------
 Structure from the checkpoint file:  "JID_8800.chk"
 Charge =  1 Multiplicity = 2

 SCF Done:  E(UB3LYP) =  -1467.68352436     A.U. after   22 cycles
 Normal termination of Gaussian 16 at Fri Dec 11 22:51:51 2020.
 Gaussian 16:  ES64L-G16RevA.03 25-Dec-2016

 ----------------------------------------------------------------------
 # B3LYP/6-311++G(d,p) empiricaldispersion=gd3bj scf=xqc pop=npa geom=c
 heck
 ----------------------------------------------------------------------

 -----------------------------------
 CID_91139940_JID_8800_Energie_anion
 -----------------------------------
 Structure from the checkpoint file:  "JID_8800.chk"
 Charge = -1 Multiplicity = 2

                         Standard orientation:
 ---------------------------------------------------------------------
 Center     Atomic      Atomic             Coordinates (Angstroms)
 Number     Number       Type             X           Y           Z
 ---------------------------------------------------------------------
      1          6           0       -0.260694   -2.572412   -0.976898
      2          6           0        0.138897   -1.907322    0.350428
      3          6           0        0.165468   -0.400749    0.250037
      4          6           0       -0.969596    0.374804    0.211251
      5         16           0       -0.569098    2.084825    0.009248
      6          6           0        1.134271    1.719335   -0.045196
      7          6           0        1.380057    0.366316    0.104586
      8          6           0        2.740254   -0.184118    0.080204
      9          6           0        3.842805    0.320892    0.720535
     10          8           0        4.952591   -0.425146    0.446969
     11          6           0        4.555843   -1.430370   -0.385723
     12          6           0        3.225919   -1.336699   -0.646946
     13          7           0        2.065727    2.746207   -0.160443
     14          6           0       -2.362423   -0.028460    0.305553
     15          6           0       -2.972175   -0.833482    1.240219
     16          6           0       -4.361962   -1.039979    0.997450
     17          6           0       -4.812295   -0.381569   -0.113737
     18         16           0       -3.534154    0.486544   -0.902620
     19          1           0       -1.273421   -2.273330   -1.264584
     20          1           0       -0.235672   -3.664585   -0.890745
     21          1           0        0.413839   -2.276513   -1.788194
     22          1           0       -0.566573   -2.219089    1.125345
     23          1           0        1.123354   -2.264583    0.667597
     24          1           0        3.980534    1.140637    1.408729
     25          1           0        5.331942   -2.110641   -0.701002
     26          1           0        2.647662   -1.984226   -1.289086
     27          1           0        1.766924    3.515435   -0.750580
     28          1           0        2.976882    2.397278   -0.447445
     29          1           0       -2.440473   -1.237598    2.093606
     30          1           0       -5.001966   -1.638139    1.636775
     31          1           0       -5.818032   -0.345946   -0.509688
 ---------------------------------------------------------------------

 SCF Done:  E(UB3LYP) =  -1467.92831817     A.U. after   33 cycles
 SCF Done:  E(UB3LYP) =  -1467.92831817     a.u. after    1 cycles

 The electronic state is 2-A.
 Alpha  occ. eigenvalues --  -88.74961 -88.74925 -19.09997 -14.21399 -10.13328
 Alpha  occ. eigenvalues --  -10.12522 -10.11597 -10.08940 -10.08149 -10.07988
 Alpha  occ. eigenvalues --  -10.07333 -10.07200 -10.06310 -10.06264 -10.06036
 Alpha  occ. eigenvalues --  -10.05980 -10.05503 -10.05079  -7.83600  -7.83572
 Alpha  occ. eigenvalues --   -5.79889  -5.79881  -5.79528  -5.79525  -5.79207
 Alpha  occ. eigenvalues --   -5.79115  -1.02279  -0.82026  -0.76491  -0.74352
 Alpha  occ. eigenvalues --   -0.71544  -0.66982  -0.66307  -0.63281  -0.61416
 Alpha  occ. eigenvalues --   -0.60473  -0.57300  -0.51857  -0.50567  -0.48853
 Alpha  occ. eigenvalues --   -0.46960  -0.46503  -0.44121  -0.42216  -0.41191
 Alpha  occ. eigenvalues --   -0.39437  -0.37313  -0.36495  -0.35918  -0.34628
 Alpha  occ. eigenvalues --   -0.33974  -0.32639  -0.31426  -0.29747  -0.29298
 Alpha  occ. eigenvalues --   -0.29015  -0.27997  -0.27690  -0.26743  -0.26491
 Alpha  occ. eigenvalues --   -0.25894  -0.24615  -0.23419  -0.22463  -0.21809
 Alpha  occ. eigenvalues --   -0.19757  -0.19315  -0.15266  -0.13824  -0.13021
 Alpha  occ. eigenvalues --   -0.11982  -0.07477   0.04362
 Alpha virt. eigenvalues --    0.06338   0.06887   0.07618   0.08182   0.08370
 Alpha virt. eigenvalues --    0.09029   0.09418   0.10128   0.10480   0.10928
 Alpha virt. eigenvalues --    0.11275   0.11425   0.12108   0.12607   0.13024

  Beta  occ. eigenvalues --  -88.74932 -88.74904 -19.09999 -14.21315 -10.13317
  Beta  occ. eigenvalues --  -10.12526 -10.11464 -10.08932 -10.08146 -10.07829
  Beta  occ. eigenvalues --  -10.07270 -10.06995 -10.06316 -10.06310 -10.06074
  Beta  occ. eigenvalues --  -10.05872 -10.05478 -10.05007  -7.83573  -7.83550
  Beta  occ. eigenvalues --   -5.79878  -5.79853  -5.79517  -5.79512  -5.79104
  Beta  occ. eigenvalues --   -5.79071  -1.02280  -0.81868  -0.76280  -0.74227
  Beta  occ. eigenvalues --   -0.71507  -0.66890  -0.66288  -0.63029  -0.61230
  Beta  occ. eigenvalues --   -0.60376  -0.57113  -0.51754  -0.50529  -0.48809
  Beta  occ. eigenvalues --   -0.46670  -0.46453  -0.43960  -0.42104  -0.41035
  Beta  occ. eigenvalues --   -0.39341  -0.37185  -0.36491  -0.35870  -0.34529
  Beta  occ. eigenvalues --   -0.33932  -0.32570  -0.31348  -0.29684  -0.29225
  Beta  occ. eigenvalues --   -0.28882  -0.27801  -0.27541  -0.26613  -0.26202
  Beta  occ. eigenvalues --   -0.25686  -0.24387  -0.23338  -0.22323  -0.21624
  Beta  occ. eigenvalues --   -0.19659  -0.19112  -0.15229  -0.13349  -0.12283
  Beta  occ. eigenvalues --   -0.11585  -0.06951
  Beta virt. eigenvalues --    0.06467   0.07463   0.07748   0.08021   0.08266
  Beta virt. eigenvalues --    0.08757   0.09092   0.09707   0.10200   0.10856
  Beta virt. eigenvalues --    0.10983   0.11265   0.11703   0.12231   0.12622

 Mulliken charges and spin densities:
               1          2
     1  C   -0.310544  -0.453485
     2  C   -0.382277   0.216090
     3  C    0.720273  -0.492325
     4  C   -0.252652   0.261778
     5  S   -0.566184   0.101382
     6  C   -0.934643   0.378059
     7  C    1.771154  -1.056620
     8  C    0.161813  -0.396152
     9  C   -0.318773  -0.029288
    10  O   -0.019965   0.012424
    11  C   -0.085945  -0.460340
    12  C   -0.285090   0.724022
    13  N   -0.129100  -0.109479
    14  C   -0.002500   0.035382
    15  C    0.516714   0.192083
    16  C   -0.718154  -0.075681
    17  C    0.058652   0.130500
    18  S   -0.411908   0.030296
    19  H    0.071728   0.079706
    20  H   -0.064707   0.184281
    21  H    0.067444   0.061419
    22  H   -0.016688   0.133961
    23  H    0.160482  -0.001712
    24  H    0.124084   0.067337
    25  H   -0.168733   0.345645
    26  H   -0.027019   0.185592
    27  H   -0.381886   0.641084
    28  H   -0.023088   0.283553
    29  H    0.160335  -0.007447
    30  H    0.090687   0.022729
    31  H    0.196492  -0.004795
 Sum of Mulliken charges =  -1.00000   1.00000

 Dipole moment (field-independent basis, Debye):
    X=             -0.1582    Y=             -3.1875    Z=              1.5092  Tot=              3.5303
 Quadrupole moment (field-independent basis, Debye-Ang):
   XX=           -178.6108   YY=           -163.6823   ZZ=           -138.9053
   XY=             -6.7152   XZ=              3.5369   YZ=              2.8715

 Summary of Natural Population Analysis:

                                       Natural Population
                Natural  -----------------------------------------------
    Atom  No    Charge         Core      Valence    Rydberg      Total
 -----------------------------------------------------------------------
      C    1   -0.27847      0.99966     2.27467    0.00414     3.27847
      C    2   -0.20213      0.99961     2.19353    0.00899     3.20213
      C    3    0.00923      0.99942     1.98156    0.00980     2.99077
      C    4   -0.11089      0.99935     2.09830    0.01324     3.11089
      S    5    0.19911      4.99941     2.78212    0.01935     7.80089
      C    6    0.04801      0.99945     1.93699    0.01555     2.95199
      C    7   -0.10814      0.99938     2.09775    0.01101     3.10814
      C    8   -0.05578      0.99952     2.04535    0.01091     3.05578
      C    9    0.05001      0.99946     1.93649    0.01405     2.94999
      O   10   -0.23580      0.99987     3.22794    0.00800     4.23580
      C   11    0.05959      0.99951     1.92745    0.01345     2.94041
      C   12   -0.14643      0.99953     2.13707    0.00984     3.14643
      N   13   -0.40124      0.99970     2.88893    0.01262     3.90124
      C   14   -0.08722      0.99943     2.07278    0.01500     3.08722
      C   15   -0.11682      0.99948     2.10633    0.01101     3.11682
      C   16   -0.14214      0.99954     2.13272    0.00988     3.14214
      C   17   -0.16858      0.99955     2.15843    0.01060     3.16858
      S   18    0.20329      4.99944     2.77671    0.02056     7.79671
      H   19    0.10504      0.00000     0.39367    0.00129     0.39496
      H   20    0.09245      0.00000     0.40636    0.00119     0.40755
      H   21    0.09223      0.00000     0.40663    0.00115     0.40777
      H   22    0.10482      0.00000     0.39397    0.00121     0.39518
      H   23    0.10020      0.00000     0.39868    0.00112     0.39980
      H   24    0.09997      0.00000     0.39898    0.00105     0.40003
      H   25    0.09378      0.00000     0.40522    0.00099     0.40622
      H   26    0.11248      0.00000     0.38662    0.00089     0.38752
      H   27    0.19095      0.00000     0.30197    0.00707     0.30905
      H   28    0.18989      0.00000     0.30751    0.00260     0.31011
      H   29    0.10290      0.00000     0.39610    0.00100     0.39710
      H   30    0.09959      0.00000     0.39936    0.00105     0.40041
      H   31    0.10012      0.00000     0.39900    0.00088     0.39988
 =======================================================================
   * Total *    0.00000     25.99131    45.76922    0.23947    72.00000

 Normal termination of Gaussian 16 at Fri Dec 11 23:12:28 2020.
