 Gaussian 16, Revision A.03,

 -----------------------------------------------------------
 # opt freq B3LYP/6-31G(d) empiricaldispersion=gd3bj scf=xqc
 -----------------------------------------------------------

 ------------------------------
 CID_71273236_JID_5948_neutraal
 ------------------------------
 Symbolic Z-matrix:
 Charge =  0 Multiplicity = 1

 SCF Done:  E(RB3LYP) =  -672.543430235     A.U. after   15 cycles
 SCF Done:  E(RB3LYP) =  -672.548496575     A.U. after   12 cycles
 SCF Done:  E(RB3LYP) =  -672.548960643     A.U. after   12 cycles
 SCF Done:  E(RB3LYP) =  -672.549906438     A.U. after   13 cycles
 SCF Done:  E(RB3LYP) =  -672.550211536     A.U. after   11 cycles
 SCF Done:  E(RB3LYP) =  -672.550411905     A.U. after   13 cycles
 SCF Done:  E(RB3LYP) =  -672.550638007     A.U. after   13 cycles
 SCF Done:  E(RB3LYP) =  -672.550575523     A.U. after   14 cycles
 SCF Done:  E(RB3LYP) =  -672.551047872     A.U. after   13 cycles
 SCF Done:  E(RB3LYP) =  -672.550860167     A.U. after   12 cycles
 SCF Done:  E(RB3LYP) =  -672.551427949     A.U. after   10 cycles
 SCF Done:  E(RB3LYP) =  -672.551432570     A.U. after   10 cycles
 SCF Done:  E(RB3LYP) =  -672.551432568     A.U. after    8 cycles
 SCF Done:  E(RB3LYP) =  -672.551432532     A.U. after    8 cycles
 SCF Done:  E(RB3LYP) =  -672.551432839     A.U. after    8 cycles
 Optimization completed.
    -- Stationary point found.
 Normal termination of Gaussian 16 at Thu Dec 10 18:06:12 2020.

 --------------------------------------------------------------------
 #N Geom=AllCheck Guess=TCheck SCRF=Check GenChk RB3LYP/6-31G(d) Freq
 --------------------------------------------------------------------

 Structure from the checkpoint file:  "JID_5948.chk"
 ------------------------------
 CID_71273236_JID_5948_neutraal
 ------------------------------
 Charge =  0 Multiplicity = 1

 SCF Done:  E(RB3LYP) =  -672.551432839     A.U. after    1 cycles

  Exact polarizability: 159.885   0.803 125.328  -7.369  -1.649 122.939
 Approx polarizability: 192.590   4.934 185.637 -11.500  -0.833 194.939

                      1                      2                      3
                      A                      A                      A
 Frequencies --     25.0294                40.2447                57.2927
 Red. masses --      3.2805                 5.7389                 3.4831
 Frc consts  --      0.0012                 0.0055                 0.0067
 IR Inten    --      0.5612                 4.5423                 0.7671

                      4                      5                      6
                      A                      A                      A
 Frequencies --     62.7439               114.6647               135.0963
 Red. masses --      2.7221                 4.1375                 4.0401
 Frc consts  --      0.0063                 0.0321                 0.0434
 IR Inten    --      0.0948                 2.8137                 0.3964

                      7                      8                      9
                      A                      A                      A
 Frequencies --    166.9020               195.4479               232.9679
 Red. masses --      1.3007                 2.9160                 1.0715
 Frc consts  --      0.0213                 0.0656                 0.0343
 IR Inten    --    184.9882                10.0017                 0.0933

                     10                     11                     12
                      A                      A                      A
 Frequencies --    257.2353               265.7176               274.7294
 Red. masses --      1.7184                 2.4080                 1.1418
 Frc consts  --      0.0670                 0.1002                 0.0508
 IR Inten    --      1.3546                 6.9138                 0.1881

                     13                     14                     15
                      A                      A                      A
 Frequencies --    279.4387               298.4295               321.7106
 Red. masses --      3.2248                 1.4980                 1.8100
 Frc consts  --      0.1484                 0.0786                 0.1104
 IR Inten    --      6.2105                 0.5431                 0.9960

                     16                     17                     18
                      A                      A                      A
 Frequencies --    338.7256               361.0481               363.2630
 Red. masses --      1.6590                 1.9834                 2.3536
 Frc consts  --      0.1121                 0.1523                 0.1830
 IR Inten    --      3.5733                 2.9665                 1.7648

                     19                     20                     21
                      A                      A                      A
 Frequencies --    367.9421               401.6954               412.2666
 Red. masses --      1.5149                 2.2737                 2.8196
 Frc consts  --      0.1208                 0.2162                 0.2824
 IR Inten    --      3.4450                 1.3161                 3.3222

                     22                     23                     24
                      A                      A                      A
 Frequencies --    434.5817               465.6779               478.8744
 Red. masses --      2.4308                 2.4413                 2.4103
 Frc consts  --      0.2705                 0.3119                 0.3257
 IR Inten    --      1.9608                 0.4642                 2.6709

                     25                     26                     27
                      A                      A                      A
 Frequencies --    520.8874               542.1248               578.8431
 Red. masses --      3.0404                 2.7176                 2.6322
 Frc consts  --      0.4860                 0.4706                 0.5196
 IR Inten    --      0.2821                 0.6861                13.3678

                     28                     29                     30
                      A                      A                      A
 Frequencies --    594.4664               601.4517               665.7909
 Red. masses --      1.6683                 1.6411                 2.6121
 Frc consts  --      0.3474                 0.3498                 0.6822
 IR Inten    --     27.8780                 7.5945                 8.8058

                     31                     32                     33
                      A                      A                      A
 Frequencies --    717.5272               767.8824               799.1692
 Red. masses --      2.8203                 4.1700                 2.5074
 Frc consts  --      0.8555                 1.4487                 0.9435
 IR Inten    --      2.7621                 9.1251                 6.7277

                     34                     35                     36
                      A                      A                      A
 Frequencies --    836.5145               867.7339               898.4185
 Red. masses --      1.6663                 2.5508                 2.6277
 Frc consts  --      0.6870                 1.1316                 1.2496
 IR Inten    --      0.2062                 1.6249                 5.4397

                     37                     38                     39
                      A                      A                      A
 Frequencies --    925.0921               929.0543               935.1992
 Red. masses --      2.3417                 1.3225                 1.5971
 Frc consts  --      1.1807                 0.6726                 0.8230
 IR Inten    --      3.6263                 0.4792                 1.1764

                     40                     41                     42
                      A                      A                      A
 Frequencies --    946.0337               957.5236              1025.4573
 Red. masses --      1.3647                 2.2332                 1.9345
 Frc consts  --      0.7196                 1.2064                 1.1985
 IR Inten    --      0.1615                 1.1616                51.3584

                     43                     44                     45
                      A                      A                      A
 Frequencies --   1028.2976              1048.4566              1072.0609
 Red. masses --      1.5284                 2.2424                 1.7937
 Frc consts  --      0.9522                 1.4523                 1.2146
 IR Inten    --     40.3527                 2.6825                 4.6406

                     46                     47                     48
                      A                      A                      A
 Frequencies --   1079.2948              1095.2672              1127.2191
 Red. masses --      1.8215                 1.8889                 2.2042
 Frc consts  --      1.2501                 1.3351                 1.6502
 IR Inten    --      8.7672                 2.7263                28.1577

                     49                     50                     51
                      A                      A                      A
 Frequencies --   1145.2945              1167.8450              1182.0277
 Red. masses --      2.0751                 3.2163                 2.1477
 Frc consts  --      1.6037                 2.5845                 1.7680
 IR Inten    --     20.5647                11.5627                 0.7797

                     52                     53                     54
                      A                      A                      A
 Frequencies --   1201.7315              1209.4827              1229.8084
 Red. masses --      2.7908                 1.9759                 2.1250
 Frc consts  --      2.3746                 1.7030                 1.8936
 IR Inten    --     35.5811                85.7917                72.4392

                     55                     56                     57
                      A                      A                      A
 Frequencies --   1231.3957              1252.3487              1273.8661
 Red. masses --      2.3325                 1.5906                 1.6245
 Frc consts  --      2.0839                 1.4698                 1.5531
 IR Inten    --     17.6410                11.0309                 2.6513

                     58                     59                     60
                      A                      A                      A
 Frequencies --   1309.4107              1356.1759              1360.4230
 Red. masses --      1.5860                 3.3912                 1.3373
 Frc consts  --      1.6021                 3.6748                 1.4582
 IR Inten    --     55.3857                64.6498                 6.5088

                     61                     62                     63
                      A                      A                      A
 Frequencies --   1378.0828              1389.0894              1404.0476
 Red. masses --      1.2704                 1.4057                 1.2703
 Frc consts  --      1.4214                 1.5981                 1.4755
 IR Inten    --      0.7135                 9.2333                21.6437

                     64                     65                     66
                      A                      A                      A
 Frequencies --   1406.1253              1415.1036              1421.0663
 Red. masses --      1.7223                 1.2411                 1.2875
 Frc consts  --      2.0063                 1.4643                 1.5319
 IR Inten    --      2.3216                 8.4563                21.0694

                     67                     68                     69
                      A                      A                      A
 Frequencies --   1424.2936              1427.0751              1438.4207
 Red. masses --      1.2945                 1.2392                 1.3552
 Frc consts  --      1.5473                 1.4869                 1.6521
 IR Inten    --     23.2888                 8.3333                26.6809

                     70                     71                     72
                      A                      A                      A
 Frequencies --   1441.1634              1444.5763              1498.8874
 Red. masses --      1.2741                 1.2704                 1.0834
 Frc consts  --      1.5591                 1.5620                 1.4341
 IR Inten    --     21.5695                12.1286                 0.8870

                     73                     74                     75
                      A                      A                      A
 Frequencies --   1501.9682              1504.2997              1507.7945
 Red. masses --      1.0764                 1.1011                 1.0763
 Frc consts  --      1.4307                 1.4680                 1.4417
 IR Inten    --      3.8665                 7.3400                 0.5342

                     76                     77                     78
                      A                      A                      A
 Frequencies --   1516.0301              1519.6726              1523.5029
 Red. masses --      1.0537                 1.0595                 1.0553
 Frc consts  --      1.4269                 1.4416                 1.4432
 IR Inten    --      2.0594                 0.2996                 0.4680

                     79                     80                     81
                      A                      A                      A
 Frequencies --   1530.5590              1534.6805              1539.6188
 Red. masses --      1.0551                 1.0540                 1.0581
 Frc consts  --      1.4563                 1.4625                 1.4777
 IR Inten    --      4.5894                 3.7633                 0.4197

                     82                     83                     84
                      A                      A                      A
 Frequencies --   1540.1356              1545.8789              1641.5746
 Red. masses --      1.0541                 1.0653                 1.2425
 Frc consts  --      1.4732                 1.4999                 1.9727
 IR Inten    --     10.2854                24.6880               113.2512

                     85                     86                     87
                      A                      A                      A
 Frequencies --   1804.3019              2993.5208              3006.6557
 Red. masses --      9.2144                 1.0704                 1.0715
 Frc consts  --     17.6741                 5.6514                 5.7068
 IR Inten    --    228.0372                33.7444                28.7046

                     88                     89                     90
                      A                      A                      A
 Frequencies --   3011.0957              3031.8701              3037.0453
 Red. masses --      1.0708                 1.0660                 1.0849
 Frc consts  --      5.7200                 5.7735                 5.8958
 IR Inten    --     91.5662                52.1760                16.1407

                     91                     92                     93
                      A                      A                      A
 Frequencies --   3042.6304              3045.6224              3052.2137
 Red. masses --      1.0395                 1.0381                 1.0373
 Frc consts  --      5.6698                 5.6733                 5.6934
 IR Inten    --     32.5305                29.8604                21.2023

                     94                     95                     96
                      A                      A                      A
 Frequencies --   3065.1885              3078.9904              3096.9631
 Red. masses --      1.0366                 1.0944                 1.0922
 Frc consts  --      5.7381                 6.1129                 6.1720
 IR Inten    --     12.3892                57.9628                65.9945

                     97                     98                     99
                      A                      A                      A
 Frequencies --   3101.0993              3106.5427              3110.5130
 Red. masses --      1.0962                 1.1003                 1.0994
 Frc consts  --      6.2109                 6.2565                 6.2674
 IR Inten    --     52.3585                 2.3879                15.9147

                    100                    101                    102
                      A                      A                      A
 Frequencies --   3115.9122              3121.2659              3131.7840
 Red. masses --      1.0999                 1.0991                 1.0954
 Frc consts  --      6.2916                 6.3091                 6.3301
 IR Inten    --     81.1235                45.0294                 9.2028

                    103                    104                    105
                      A                      A                      A
 Frequencies --   3133.7508              3135.8596              3136.2233
 Red. masses --      1.1012                 1.0993                 1.0986
 Frc consts  --      6.3716                 6.3694                 6.3665
 IR Inten    --     30.1571                63.9315                13.1800

                    106                    107                    108
                      A                      A                      A
 Frequencies --   3166.7481              3602.6584              3735.4117
 Red. masses --      1.1025                 1.0461                 1.1031
 Frc consts  --      6.5142                 7.9995                 9.0690
 IR Inten    --      8.8062                28.7295                32.9633

 - Thermochemistry -
 -------------------
 Temperature   298.150 Kelvin.  Pressure   1.00000 Atm.
 Atom     1 has atomic number  6 and mass  12.00000

 Molecular mass:   213.18411 amu.
 Principal axes and moments of inertia in atomic units:
                           1         2         3
     Eigenvalues --  1487.199625464.348135649.36800
           X            0.99976  -0.01768  -0.01308
           Y            0.01657   0.99662  -0.08049
           Z            0.01446   0.08025   0.99667
 This molecule is an asymmetric top.
 Rotational symmetry number  1.
 Warning -- assumption of classical behavior for rotation
           may cause significant error
 Rotational temperatures (Kelvin)      0.05824     0.01585     0.01533
 Rotational constants (GHZ):           1.21352     0.33028     0.31946
 Zero-point vibrational energy     904309.9 (Joules/Mol)
                                  216.13526 (Kcal/Mol)
 Warning -- explicit consideration of  29 degrees of freedom as
           vibrations may cause significant error
 Vibrational temperatures:     36.01    57.90    82.43    90.27   164.98
          (Kelvin)            194.37   240.13   281.21   335.19   370.10
                              382.31   395.27   402.05   429.37   462.87
                              487.35   519.47   522.65   529.39   577.95
                              593.16   625.27   670.01   688.99   749.44
                              780.00   832.83   855.30   865.35   957.92
                             1032.36  1104.81  1149.83  1203.56  1248.48
                             1292.62  1331.00  1336.70  1345.54  1361.13
                             1377.66  1475.40  1479.49  1508.50  1542.46
                             1552.86  1575.85  1621.82  1647.82  1680.27
                             1700.67  1729.02  1740.18  1769.42  1771.70
                             1801.85  1832.81  1883.95  1951.23  1957.35
                             1982.75  1998.59  2020.11  2023.10  2036.02
                             2044.60  2049.24  2053.24  2069.57  2073.51
                             2078.42  2156.56  2161.00  2164.35  2169.38
                             2181.23  2186.47  2191.98  2202.13  2208.06
                             2215.17  2215.91  2224.17  2361.86  2595.99
                             4307.01  4325.91  4332.30  4362.18  4369.63
                             4377.67  4381.97  4391.45  4410.12  4429.98
                             4455.84  4461.79  4469.62  4475.33  4483.10
                             4490.81  4505.94  4508.77  4511.80  4512.33
                             4556.24  5183.42  5374.42

 Zero-point correction=                           0.344433 (Hartree/Particle)
 Thermal correction to Energy=                    0.361373
 Thermal correction to Enthalpy=                  0.362317
 Thermal correction to Gibbs Free Energy=         0.300119
 Sum of electronic and zero-point Energies=           -672.206999
 Sum of electronic and thermal Energies=              -672.190060
 Sum of electronic and thermal Enthalpies=            -672.189115
 Sum of electronic and thermal Free Energies=         -672.251314

                     E (Thermal)             CV                S
                      KCal/Mol        Cal/Mol-Kelvin    Cal/Mol-Kelvin
 Total                  226.765             65.447            130.908
 Electronic               0.000              0.000              0.000
 Translational            0.889              2.981             41.974
 Rotational               0.889              2.981             32.196
 Vibrational            224.988             59.486             56.738
 Vibration     1          0.593              1.985              6.189
 Vibration     2          0.594              1.981              5.247
 Vibration     3          0.596              1.975              4.548
 Vibration     4          0.597              1.972              4.369
 Vibration     5          0.608              1.937              3.188
 Vibration     6          0.613              1.918              2.872
 Vibration     7          0.624              1.883              2.470
 Vibration     8          0.636              1.846              2.176
 Vibration     9          0.654              1.790              1.856
 Vibration    10          0.667              1.751              1.680
 Vibration    11          0.672              1.736              1.624
 Vibration    12          0.677              1.720              1.566
 Vibration    13          0.680              1.712              1.537
 Vibration    14          0.692              1.677              1.426
 Vibration    15          0.707              1.632              1.301
 Vibration    16          0.719              1.598              1.218
 Vibration    17          0.735              1.553              1.118
 Vibration    18          0.737              1.548              1.108
 Vibration    19          0.741              1.538              1.088
 Vibration    20          0.767              1.466              0.956
 Vibration    21          0.776              1.444              0.919
 Vibration    22          0.795              1.395              0.844
 Vibration    23          0.823              1.326              0.750
 Vibration    24          0.835              1.297              0.713
 Vibration    25          0.876              1.204              0.608
 Vibration    26          0.897              1.157              0.561
 Vibration    27          0.935              1.077              0.488
 Vibration    28          0.952              1.044              0.459
 Vibration    29          0.960              1.029              0.447

 Optimization completed.
    -- Stationary point found.
 Normal termination of Gaussian 16 at Thu Dec 10 18:21:08 2020.

 ----------------------------------------------------------------------
 # B3LYP/6-311++G(d,p) empiricaldispersion=gd3bj scf=xqc pop=npa geom=c
 heck
 ----------------------------------------------------------------------

 --------------------------------------
 CID_71273236_JID_5948_Energie_neutraal
 --------------------------------------
 Structure from the checkpoint file:  "JID_5948.chk"
 Charge =  0 Multiplicity = 1

 SCF Done:  E(RB3LYP) =  -672.747938147     A.U. after   15 cycles
 Normal termination of Gaussian 16 at Thu Dec 10 18:28:56 2020.

 ----------------------------------------------------------------------
 # B3LYP/6-311++G(d,p) empiricaldispersion=gd3bj scf=xqc pop=npa geom=c
 heck
 ----------------------------------------------------------------------

 ------------------------------------
 CID_71273236_JID_5948_Energie_kation
 ------------------------------------
 Structure from the checkpoint file:  "JID_5948.chk"
 Charge =  1 Multiplicity = 2

 SCF Done:  E(UB3LYP) =  -672.503390223     A.U. after   21 cycles
 Normal termination of Gaussian 16 at Thu Dec 10 18:44:25 2020.
 Gaussian 16:  ES64L-G16RevA.03 25-Dec-2016

 ----------------------------------------------------------------------
 # B3LYP/6-311++G(d,p) empiricaldispersion=gd3bj scf=xqc pop=npa geom=c
 heck
 ----------------------------------------------------------------------

 -----------------------------------
 CID_71273236_JID_5948_Energie_anion
 -----------------------------------
 Structure from the checkpoint file:  "JID_5948.chk"
 Charge = -1 Multiplicity = 2

                         Standard orientation:
 ---------------------------------------------------------------------
 Center     Atomic      Atomic             Coordinates (Angstroms)
 Number     Number       Type             X           Y           Z
 ---------------------------------------------------------------------
      1          6           0        4.299581   -0.741148    0.767075
      2          6           0        3.339148    0.091984   -0.093570
      3          6           0        3.235517   -0.506716   -1.510585
      4          7           0        2.077683    0.311394    0.621829
      5          6           0        1.338363    1.536724    0.344807
      6          6           0        0.255643    1.389737   -0.741764
      7          7           0       -0.646208    0.270367   -0.509399
      8          6           0        0.085161   -0.964558   -0.246638
      9          6           0        1.183596   -0.823638    0.827753
     10          6           0       -1.950811    0.459145    0.122367
     11          6           0       -1.888547    0.676685    1.653501
     12          6           0       -2.697548    1.651006   -0.511172
     13          6           0       -2.808265   -0.780063   -0.284644
     14          8           0       -2.956531   -1.097601   -1.453165
     15          7           0       -3.434478   -1.457318    0.726345
     16          1           0        3.947617   -1.773101    0.881890
     17          1           0        4.394837   -0.300746    1.763830
     18          1           0        5.290983   -0.786494    0.302405
     19          1           0        3.782947    1.091165   -0.192121
     20          1           0        2.825949   -1.522845   -1.481671
     21          1           0        2.595546    0.097490   -2.160066
     22          1           0        4.228471   -0.565269   -1.972932
     23          1           0        0.855279    1.863294    1.279233
     24          1           0        2.049677    2.321089    0.060481
     25          1           0        0.747317    1.232144   -1.713959
     26          1           0       -0.311933    2.318764   -0.826957
     27          1           0        0.542783   -1.295274   -1.189288
     28          1           0       -0.617839   -1.748737    0.051505
     29          1           0        1.772479   -1.745550    0.871447
     30          1           0        0.707225   -0.706687    1.813101
     31          1           0       -1.293531    1.568139    1.870440
     32          1           0       -2.885031    0.837712    2.083603
     33          1           0       -1.411579   -0.163751    2.168987
     34          1           0       -2.684063    1.556194   -1.598636
     35          1           0       -3.739024    1.654068   -0.173149
     36          1           0       -2.256647    2.608070   -0.216818
     37          1           0       -3.242251   -1.295142    1.700882
     38          1           0       -3.976978   -2.269772    0.468909
 ---------------------------------------------------------------------

 SCF Done:  E(UB3LYP) =  -672.737038254     A.U. after   33 cycles
 SCF Done:  E(UB3LYP) =  -672.737038254     a.u. after    1 cycles

 The electronic state is 2-A.
 Alpha  occ. eigenvalues --  -18.98488 -14.22941 -14.19982 -14.19790 -10.17064
 Alpha  occ. eigenvalues --  -10.12406 -10.11022 -10.09458 -10.09420 -10.09066
 Alpha  occ. eigenvalues --  -10.08974 -10.06772 -10.06697 -10.06571 -10.06348
 Alpha  occ. eigenvalues --   -0.93779  -0.84495  -0.80905  -0.80036  -0.69742
 Alpha  occ. eigenvalues --   -0.67636  -0.66383  -0.59743  -0.59599  -0.58176
 Alpha  occ. eigenvalues --   -0.54967  -0.53246  -0.50641  -0.47173  -0.45360
 Alpha  occ. eigenvalues --   -0.42681  -0.39930  -0.38374  -0.37977  -0.37160
 Alpha  occ. eigenvalues --   -0.36115  -0.34777  -0.33761  -0.32992  -0.32544
 Alpha  occ. eigenvalues --   -0.31268  -0.30894  -0.30816  -0.29927  -0.29804
 Alpha  occ. eigenvalues --   -0.29309  -0.28149  -0.27391  -0.27386  -0.26109
 Alpha  occ. eigenvalues --   -0.25985  -0.25460  -0.24082  -0.23322  -0.22828
 Alpha  occ. eigenvalues --   -0.17242  -0.15385  -0.13103  -0.08466   0.04150
 Alpha virt. eigenvalues --    0.05671   0.06878   0.07773   0.08090   0.08313
 Alpha virt. eigenvalues --    0.08890   0.09897   0.10123   0.10449   0.10637
 Alpha virt. eigenvalues --    0.11118   0.11788   0.12018   0.12596   0.13044

  Beta  occ. eigenvalues --  -18.98480 -14.22876 -14.19981 -14.19783 -10.17061
  Beta  occ. eigenvalues --  -10.12401 -10.11013 -10.09447 -10.09407 -10.09047
  Beta  occ. eigenvalues --  -10.08965 -10.06759 -10.06680 -10.06549 -10.06305
  Beta  occ. eigenvalues --   -0.93763  -0.84482  -0.80882  -0.79958  -0.69718
  Beta  occ. eigenvalues --   -0.67611  -0.66359  -0.59695  -0.59553  -0.58144
  Beta  occ. eigenvalues --   -0.54926  -0.53189  -0.50586  -0.47117  -0.45295
  Beta  occ. eigenvalues --   -0.42640  -0.39896  -0.38343  -0.37930  -0.37135
  Beta  occ. eigenvalues --   -0.36085  -0.34748  -0.33737  -0.32973  -0.32522
  Beta  occ. eigenvalues --   -0.31241  -0.30867  -0.30787  -0.29902  -0.29769
  Beta  occ. eigenvalues --   -0.29285  -0.28120  -0.27367  -0.27357  -0.26081
  Beta  occ. eigenvalues --   -0.25956  -0.25436  -0.24058  -0.23299  -0.22806
  Beta  occ. eigenvalues --   -0.17191  -0.15346  -0.13064  -0.08422
  Beta virt. eigenvalues --    0.06046   0.06978   0.07492   0.07976   0.08524
  Beta virt. eigenvalues --    0.08792   0.09287   0.10126   0.10534   0.10747
  Beta virt. eigenvalues --    0.10875   0.11292   0.11864   0.12408   0.12695

 Mulliken charges and spin densities:
               1          2
     1  C    0.665910  -1.125100
     2  C   -1.012188   0.838074
     3  C   -0.050506  -0.461511
     4  N    0.141145   0.055969
     5  C   -0.467452   0.153736
     6  C    0.491662  -0.678829
     7  N    0.323485   0.043874
     8  C   -0.821889   0.487983
     9  C    0.506499  -0.894092
    10  C   -1.602463   1.464119
    11  C    1.777902  -2.418034
    12  C    0.111801  -0.576535
    13  C    0.545313  -0.678306
    14  O   -0.306472   0.009650
    15  N   -0.374843   0.071902
    16  H    0.005635   0.125962
    17  H   -0.011678   0.166636
    18  H   -0.143919   0.269950
    19  H   -0.165795   0.302306
    20  H    0.039517   0.110078
    21  H    0.069532   0.030497
    22  H   -0.069030   0.204234
    23  H   -0.050091   0.233303
    24  H   -0.084021   0.215989
    25  H    0.190405  -0.010641
    26  H    0.078951   0.039480
    27  H    0.164183   0.027703
    28  H    0.045273   0.155460
    29  H   -0.042843   0.150606
    30  H    0.163861   0.061001
    31  H    0.217072  -0.088307
    32  H   -0.332369   0.494100
    33  H   -0.444807   0.571319
    34  H    0.171229   0.027372
    35  H   -0.031108   0.192871
    36  H   -0.059968   0.203985
    37  H   -0.436347   0.717842
    38  H   -0.201584   0.505355
 Sum of Mulliken charges =  -1.00000   1.00000

 Dipole moment (field-independent basis, Debye):
    X=              3.7092    Y=              2.8611    Z=             -3.0506  Tot=              5.5902
 Quadrupole moment (field-independent basis, Debye-Ang):
   XX=           -181.4061   YY=           -130.9495   ZZ=           -141.1305
   XY=            -10.6513   XZ=              6.7663   YZ=              2.4602

 Summary of Natural Population Analysis:

                                       Natural Population
                Natural  -----------------------------------------------
    Atom  No    Charge         Core      Valence    Rydberg      Total
 -----------------------------------------------------------------------
      C    1   -0.28629      0.99964     2.28144    0.00521     3.28629
      C    2   -0.00164      0.99959     1.98933    0.01271     3.00164
      C    3   -0.29812      0.99964     2.29203    0.00645     3.29812
      N    4   -0.28719      0.99971     2.77292    0.01456     3.78719
      C    5   -0.08685      0.99960     2.07666    0.01059     3.08685
      C    6   -0.08976      0.99960     2.07986    0.01029     3.08976
      N    7   -0.28472      0.99969     2.77214    0.01289     3.78472
      C    8   -0.09128      0.99961     2.08102    0.01065     3.09128
      C    9   -0.09281      0.99960     2.08201    0.01120     3.09281
      C   10    0.04015      0.99952     1.94405    0.01627     2.95985
      C   11   -0.30613      0.99963     2.29796    0.00854     3.30613
      C   12   -0.28734      0.99962     2.28079    0.00693     3.28734
      C   13    0.34207      0.99962     1.63208    0.02623     2.65793
      O   14   -0.32157      0.99987     3.31547    0.00623     4.32157
      N   15   -0.40229      0.99969     2.89337    0.00922     3.90229
      H   16    0.09529      0.00000     0.40364    0.00108     0.40471
      H   17    0.10320      0.00000     0.39535    0.00145     0.39680
      H   18    0.09732      0.00000     0.40175    0.00093     0.40268
      H   19    0.09185      0.00000     0.40676    0.00138     0.40815
      H   20    0.09672      0.00000     0.40235    0.00094     0.40328
      H   21    0.09931      0.00000     0.39956    0.00113     0.40069
      H   22    0.09765      0.00000     0.40136    0.00099     0.40235
      H   23    0.08910      0.00000     0.40937    0.00153     0.41090
      H   24    0.09358      0.00000     0.40505    0.00137     0.40642
      H   25    0.08728      0.00000     0.41144    0.00127     0.41272
      H   26    0.09839      0.00000     0.40049    0.00112     0.40161
      H   27    0.09071      0.00000     0.40799    0.00130     0.40929
      H   28    0.10171      0.00000     0.39692    0.00137     0.39829
      H   29    0.09632      0.00000     0.40257    0.00111     0.40368
      H   30    0.09241      0.00000     0.40591    0.00167     0.40759
      H   31    0.10316      0.00000     0.39542    0.00142     0.39684
      H   32    0.10273      0.00000     0.39562    0.00165     0.39727
      H   33    0.10318      0.00000     0.39452    0.00230     0.39682
      H   34    0.11202      0.00000     0.38698    0.00099     0.38798
      H   35    0.10445      0.00000     0.39475    0.00080     0.39555
      H   36    0.09721      0.00000     0.40191    0.00088     0.40279
      H   37    0.20311      0.00000     0.28597    0.01091     0.29689
      H   38    0.19706      0.00000     0.30006    0.00288     0.30294
 =======================================================================
   * Total *   -0.00000     14.99465    43.79687    0.20847    59.00000

 Normal termination of Gaussian 16 at Thu Dec 10 19:08:27 2020.
