 Gaussian 16, Revision A.03,

 -----------------------------------------------------------
 # opt freq B3LYP/6-31G(d) empiricaldispersion=gd3bj scf=xqc
 -----------------------------------------------------------

 -------------------------------
 CID_151805811_JID_7861_neutraal
 -------------------------------
 Symbolic Z-matrix:
 Charge =  0 Multiplicity = 1

 SCF Done:  E(RB3LYP) =  -979.187007990     A.U. after   16 cycles
 SCF Done:  E(RB3LYP) =  -979.193100042     A.U. after   14 cycles
 SCF Done:  E(RB3LYP) =  -979.191840135     A.U. after   15 cycles
 SCF Done:  E(RB3LYP) =  -979.193769014     A.U. after   13 cycles
 SCF Done:  E(RB3LYP) =  -979.193340172     A.U. after   14 cycles
 SCF Done:  E(RB3LYP) =  -979.193782990     A.U. after   13 cycles
 SCF Done:  E(RB3LYP) =  -979.194151780     A.U. after   13 cycles
 SCF Done:  E(RB3LYP) =  -979.194180157     A.U. after   12 cycles
 SCF Done:  E(RB3LYP) =  -979.194200682     A.U. after   11 cycles
 SCF Done:  E(RB3LYP) =  -979.194213881     A.U. after   10 cycles
 SCF Done:  E(RB3LYP) =  -979.194216233     A.U. after    9 cycles
 SCF Done:  E(RB3LYP) =  -979.194216435     A.U. after    8 cycles
 SCF Done:  E(RB3LYP) =  -979.194216609     A.U. after    7 cycles
 Optimization completed.
    -- Stationary point found.
 Normal termination of Gaussian 16 at Sun Dec 13 20:08:03 2020.

 --------------------------------------------------------------------
 #N Geom=AllCheck Guess=TCheck SCRF=Check GenChk RB3LYP/6-31G(d) Freq
 --------------------------------------------------------------------

 Structure from the checkpoint file:  "JID_7861.chk"
 -------------------------------
 CID_151805811_JID_7861_neutraal
 -------------------------------
 Charge =  0 Multiplicity = 1

 SCF Done:  E(RB3LYP) =  -979.194216609     A.U. after    1 cycles

  Exact polarizability: 105.946   7.801  95.656   4.271  -4.736  86.369
 Approx polarizability: 137.636  21.613 156.970  14.176 -12.795 160.645

                      1                      2                      3
                      A                      A                      A
 Frequencies --     25.3555                29.4863                39.4647
 Red. masses --     12.5023                12.2480                 9.4830
 Frc consts  --      0.0047                 0.0063                 0.0087
 IR Inten    --      1.0499                 2.1598                 0.8544

                      4                      5                      6
                      A                      A                      A
 Frequencies --     53.3968                63.1832                99.8024
 Red. masses --     10.9109                12.3953                13.9419
 Frc consts  --      0.0183                 0.0292                 0.0818
 IR Inten    --      0.5686                 0.5242                 1.7463

                      7                      8                      9
                      A                      A                      A
 Frequencies --    104.3765               113.7699               134.6668
 Red. masses --     13.3156                12.7643                13.4308
 Frc consts  --      0.0855                 0.0973                 0.1435
 IR Inten    --      1.1438                 2.8009                 1.6345

                     10                     11                     12
                      A                      A                      A
 Frequencies --    165.8487               191.3705               228.6765
 Red. masses --     12.6009                12.3205                13.5490
 Frc consts  --      0.2042                 0.2658                 0.4174
 IR Inten    --      1.6789                 1.9754                 2.9733

                     13                     14                     15
                      A                      A                      A
 Frequencies --    274.0442               289.0678               347.1693
 Red. masses --     12.3090                12.4075                10.0412
 Frc consts  --      0.5446                 0.6108                 0.7130
 IR Inten    --      8.1630                30.4659                10.8525

                     16                     17                     18
                      A                      A                      A
 Frequencies --    381.8898               393.9108               440.9940
 Red. masses --     10.0498                 9.0792                 4.8940
 Frc consts  --      0.8635                 0.8300                 0.5608
 IR Inten    --      1.2967                 6.1404                 0.1562

                     19                     20                     21
                      A                      A                      A
 Frequencies --    451.1528               473.9451               520.3514
 Red. masses --      7.0528                 6.0689                12.9259
 Frc consts  --      0.8458                 0.8032                 2.0621
 IR Inten    --      0.4985                 1.0236                 2.3604

                     22                     23                     24
                      A                      A                      A
 Frequencies --    527.9628               533.2910               570.9195
 Red. masses --     11.6711                 8.0495                12.3402
 Frc consts  --      1.9168                 1.3488                 2.3698
 IR Inten    --      1.5408                 0.2199                 1.8514

                     25                     26                     27
                      A                      A                      A
 Frequencies --    634.5788               663.4043               664.9882
 Red. masses --      5.9657                 1.5665                 1.3961
 Frc consts  --      1.4154                 0.4062                 0.3637
 IR Inten    --    104.4135                94.3231               180.5406

                     28                     29                     30
                      A                      A                      A
 Frequencies --    668.6867               727.0622               768.5470
 Red. masses --      3.3163                 5.9480                11.6209
 Frc consts  --      0.8737                 1.8525                 4.0442
 IR Inten    --    126.4391                54.8486                 3.5173

                     31                     32                     33
                      A                      A                      A
 Frequencies --    806.9279               808.0084               867.4090
 Red. masses --     11.5618                11.5787                11.1207
 Frc consts  --      4.4355                 4.4539                 4.9298
 IR Inten    --      1.0588                 1.3141                 6.4682

                     34                     35                     36
                      A                      A                      A
 Frequencies --    903.6018              1038.4927              1123.9970
 Red. masses --     11.5427                12.8888                12.3814
 Frc consts  --      5.5528                 8.1897                 9.2162
 IR Inten    --      5.3548               376.2871               260.7342

                     37                     38                     39
                      A                      A                      A
 Frequencies --   1136.8717              1167.5269              1173.3364
 Red. masses --      8.6969                11.8013                 4.8736
 Frc consts  --      6.6227                 9.4779                 3.9532
 IR Inten    --    885.5674                79.5213               321.4425

                     40                     41                     42
                      A                      A                      A
 Frequencies --   1236.7817              1254.6902              1406.7948
 Red. masses --      2.2577                 2.7567                 3.0286
 Frc consts  --      2.0347                 2.5569                 3.5314
 IR Inten    --     12.8071                44.4818                14.5511

                     43                     44                     45
                      A                      A                      A
 Frequencies --   1409.9666              1859.9517              1864.8888
 Red. masses --      3.1611                12.8131                11.8600
 Frc consts  --      3.7026                26.1160                24.3020
 IR Inten    --     11.6605               404.3963               319.7176

                     46                     47                     48
                      A                      A                      A
 Frequencies --   1867.8839              1879.2563              2382.5683
 Red. masses --     11.7756                12.8009                12.7093
 Frc consts  --     24.2065                26.6356                42.5073
 IR Inten    --      5.6091                88.9660                13.1657

                     49                     50                     51
                      A                      A                      A
 Frequencies --   2392.2780              3688.5811              3688.8049
 Red. masses --     12.7024                 1.0643                 1.0643
 Frc consts  --     42.8312                 8.5317                 8.5330
 IR Inten    --     12.6794               127.6241                66.3834

 - Thermochemistry -
 -------------------
 Temperature   298.150 Kelvin.  Pressure   1.00000 Atm.
 Atom     1 has atomic number  6 and mass  12.00000

 Molecular mass:   241.98112 amu.
 Principal axes and moments of inertia in atomic units:
                           1         2         3
     Eigenvalues --  2554.436015781.775196698.17171
           X            1.00000  -0.00165  -0.00038
           Y            0.00165   1.00000   0.00108
           Z            0.00038  -0.00109   1.00000
 This molecule is an asymmetric top.
 Rotational symmetry number  1.
 Warning -- assumption of classical behavior for rotation
           may cause significant error
 Rotational temperatures (Kelvin)      0.03391     0.01498     0.01293
 Rotational constants (GHZ):           0.70651     0.31214     0.26944
 Zero-point vibrational energy     266408.3 (Joules/Mol)
                                   63.67310 (Kcal/Mol)
 Warning -- explicit consideration of  24 degrees of freedom as
           vibrations may cause significant error
 Vibrational temperatures:     36.48    42.42    56.78    76.83    90.91
          (Kelvin)            143.59   150.17   163.69   193.76   238.62
                              275.34   329.01   394.29   415.90   499.50
                              549.45   566.75   634.49   649.11   681.90
                              748.67   759.62   767.29   821.43   913.02
                              954.49   956.77   962.09  1046.08  1105.77
                             1160.99  1162.54  1248.01  1300.08  1494.16
                             1617.18  1635.70  1679.81  1688.17  1779.45
                             1805.22  2024.06  2028.63  2676.06  2683.16
                             2687.47  2703.83  3427.98  3441.95  5307.05
                             5307.37

 Zero-point correction=                           0.101470 (Hartree/Particle)
 Thermal correction to Energy=                    0.117714
 Thermal correction to Enthalpy=                  0.118658
 Thermal correction to Gibbs Free Energy=         0.054476
 Sum of electronic and zero-point Energies=           -979.092747
 Sum of electronic and thermal Energies=              -979.076503
 Sum of electronic and thermal Enthalpies=            -979.075558
 Sum of electronic and thermal Free Energies=         -979.139741

                     E (Thermal)             CV                S
                      KCal/Mol        Cal/Mol-Kelvin    Cal/Mol-Kelvin
 Total                   73.867             55.233            135.083
 Electronic               0.000              0.000              0.000
 Translational            0.889              2.981             42.352
 Rotational               0.889              2.981             32.959
 Vibrational             72.089             49.271             59.772
 Vibration     1          0.593              1.985              6.163
 Vibration     2          0.593              1.984              5.864
 Vibration     3          0.594              1.981              5.286
 Vibration     4          0.596              1.976              4.687
 Vibration     5          0.597              1.972              4.355
 Vibration     6          0.604              1.949              3.458
 Vibration     7          0.605              1.946              3.371
 Vibration     8          0.607              1.938              3.204
 Vibration     9          0.613              1.919              2.878
 Vibration    10          0.624              1.884              2.482
 Vibration    11          0.634              1.852              2.215
 Vibration    12          0.651              1.797              1.889
 Vibration    13          0.676              1.721              1.571
 Vibration    14          0.686              1.694              1.479
 Vibration    15          0.725              1.581              1.179
 Vibration    16          0.751              1.509              1.032
 Vibration    17          0.761              1.483              0.985
 Vibration    18          0.801              1.381              0.823
 Vibration    19          0.810              1.358              0.792
 Vibration    20          0.831              1.308              0.727
 Vibration    21          0.875              1.205              0.609
 Vibration    22          0.883              1.188              0.592
 Vibration    23          0.888              1.176              0.580
 Vibration    24          0.927              1.094              0.502

 Optimization completed.
    -- Stationary point found.
 Normal termination of Gaussian 16 at Sun Dec 13 20:14:09 2020.

 ----------------------------------------------------------------------
 # B3LYP/6-311++G(d,p) empiricaldispersion=gd3bj scf=xqc pop=npa geom=c
 heck
 ----------------------------------------------------------------------

 ---------------------------------------
 CID_151805811_JID_7861_Energie_neutraal
 ---------------------------------------
 Structure from the checkpoint file:  "JID_7861.chk"
 Charge =  0 Multiplicity = 1

 SCF Done:  E(RB3LYP) =  -979.498989863     A.U. after   15 cycles
 Normal termination of Gaussian 16 at Sun Dec 13 20:16:26 2020.

 ----------------------------------------------------------------------
 # B3LYP/6-311++G(d,p) empiricaldispersion=gd3bj scf=xqc pop=npa geom=c
 heck
 ----------------------------------------------------------------------

 -------------------------------------
 CID_151805811_JID_7861_Energie_kation
 -------------------------------------
 Structure from the checkpoint file:  "JID_7861.chk"
 Charge =  1 Multiplicity = 2

 SCF Done:  E(UB3LYP) =  -979.111087150     A.U. after   23 cycles
 Normal termination of Gaussian 16 at Sun Dec 13 20:21:29 2020.
 Gaussian 16:  ES64L-G16RevA.03 25-Dec-2016

 ----------------------------------------------------------------------
 # B3LYP/6-311++G(d,p) empiricaldispersion=gd3bj scf=xqc pop=npa geom=c
 heck
 ----------------------------------------------------------------------

 ------------------------------------
 CID_151805811_JID_7861_Energie_anion
 ------------------------------------
 Structure from the checkpoint file:  "JID_7861.chk"
 Charge = -1 Multiplicity = 2

                         Standard orientation:
 ---------------------------------------------------------------------
 Center     Atomic      Atomic             Coordinates (Angstroms)
 Number     Number       Type             X           Y           Z
 ---------------------------------------------------------------------
      1          6           0        0.038666    1.428394    1.332499
      2          7           0        0.044873    1.869270    2.403588
      3          6           0       -0.012385    0.947383   -0.070254
      4          6           0        0.374350    2.045104   -0.984833
      5          7           0        0.671127    2.896172   -1.711665
      6          8           0        0.801397   -0.203039   -0.281297
      7          6           0        2.128402   -0.081678    0.005258
      8          8           0        2.656436    0.921074    0.396727
      9          6           0        2.820104   -1.425985   -0.268526
     10          8           0        2.261495   -2.387411   -0.730514
     11          8           0        4.109107   -1.346046    0.077712
     12          8           0       -1.318047    0.578088   -0.457371
     13          6           0       -1.939737   -0.381467    0.303465
     14          8           0       -1.480018   -0.893745    1.281325
     15          6           0       -3.318546   -0.671977   -0.310970
     16          8           0       -3.751101   -0.120193   -1.289303
     17          8           0       -3.937000   -1.615204    0.408188
     18          1           0        4.508976   -2.215896   -0.113967
     19          1           0       -4.804269   -1.769038   -0.013061
 ---------------------------------------------------------------------

 SCF Done:  E(UB3LYP) =  -979.561384118     A.U. after   26 cycles

 The electronic state is 2-A.
 Alpha  occ. eigenvalues --  -19.08690 -19.08436 -19.07520 -19.07155 -19.01119
 Alpha  occ. eigenvalues --  -19.00741 -19.00415 -19.00321 -14.23867 -14.23227
 Alpha  occ. eigenvalues --  -10.28384 -10.19554 -10.19481 -10.19168 -10.18687
 Alpha  occ. eigenvalues --  -10.13463 -10.12906  -1.05359  -1.02100  -1.01178
 Alpha  occ. eigenvalues --   -0.99757  -0.94172  -0.93079  -0.92250  -0.91642
 Alpha  occ. eigenvalues --   -0.83167  -0.82238  -0.71383  -0.60783  -0.59351
 Alpha  occ. eigenvalues --   -0.54688  -0.53868  -0.50844  -0.42996  -0.41320
 Alpha  occ. eigenvalues --   -0.38700  -0.38594  -0.38231  -0.37997  -0.37287
 Alpha  occ. eigenvalues --   -0.36975  -0.33474  -0.32788  -0.32099  -0.31981
 Alpha  occ. eigenvalues --   -0.30172  -0.29430  -0.29313  -0.28536  -0.26899
 Alpha  occ. eigenvalues --   -0.26015  -0.25475  -0.24983  -0.23995  -0.23523
 Alpha  occ. eigenvalues --   -0.22942  -0.22821  -0.22056  -0.21468  -0.16351
 Alpha  occ. eigenvalues --   -0.15800  -0.00133
 Alpha virt. eigenvalues --    0.02200   0.06660   0.07040   0.07382   0.07578
 Alpha virt. eigenvalues --    0.11198   0.12824   0.13339   0.14010   0.14131
 Alpha virt. eigenvalues --    0.14785   0.15069   0.15625   0.15705   0.16028

  Beta  occ. eigenvalues --  -19.08682 -19.08357 -19.07466 -19.07098 -19.00810
  Beta  occ. eigenvalues --  -19.00492 -19.00151 -18.99934 -14.23824 -14.23225
  Beta  occ. eigenvalues --  -10.28380 -10.19390 -10.19279 -10.18999 -10.18457
  Beta  occ. eigenvalues --  -10.13463 -10.12877  -1.05156  -1.01811  -1.00947
  Beta  occ. eigenvalues --   -0.99516  -0.93623  -0.92640  -0.91879  -0.91250
  Beta  occ. eigenvalues --   -0.83105  -0.82216  -0.71177  -0.60128  -0.58797
  Beta  occ. eigenvalues --   -0.54529  -0.53676  -0.50716  -0.42713  -0.41071
  Beta  occ. eigenvalues --   -0.38354  -0.38254  -0.37875  -0.37337  -0.36390
  Beta  occ. eigenvalues --   -0.35811  -0.33247  -0.32269  -0.31779  -0.31278
  Beta  occ. eigenvalues --   -0.29895  -0.29254  -0.29162  -0.28344  -0.26738
  Beta  occ. eigenvalues --   -0.25803  -0.25303  -0.24890  -0.22922  -0.22366
  Beta  occ. eigenvalues --   -0.22084  -0.21904  -0.21643  -0.21178  -0.16023
  Beta  occ. eigenvalues --   -0.15448
  Beta virt. eigenvalues --    0.05388   0.05506   0.07092   0.07234   0.07408
  Beta virt. eigenvalues --    0.07623   0.11217   0.12933   0.13380   0.14046
  Beta virt. eigenvalues --    0.14173   0.14912   0.15100   0.15666   0.15729

 Mulliken charges and spin densities:
               1          2
     1  C    0.171351  -0.021958
     2  N   -0.291139   0.000711
     3  C    0.263988   0.052787
     4  C   -0.129590   0.011674
     5  N   -0.278012   0.020736
     6  O    0.130778  -0.010111
     7  C   -0.159050   0.146704
     8  O   -0.235308   0.103260
     9  C    0.085379   0.113403
    10  O   -0.338214   0.083552
    11  O   -0.171480   0.007832
    12  O    0.116265  -0.011014
    13  C   -0.048261   0.154029
    14  O   -0.222986   0.130956
    15  C    0.098184   0.120483
    16  O   -0.354046   0.090615
    17  O   -0.172627   0.008463
    18  H    0.267842  -0.000996
    19  H    0.266925  -0.001126
 Sum of Mulliken charges =  -1.00000   1.00000

 Dipole moment (field-independent basis, Debye):
    X=             -0.2103    Y=             -2.7741    Z=             -0.4764  Tot=              2.8226
 Quadrupole moment (field-independent basis, Debye-Ang):
   XX=           -112.3142   YY=           -117.0551   ZZ=           -117.4685
   XY=             -5.4167   XZ=             -3.7736   YZ=              1.7450

 Summary of Natural Population Analysis:

                                       Natural Population
                Natural  -----------------------------------------------
    Atom  No    Charge         Core      Valence    Rydberg      Total
 -----------------------------------------------------------------------
      C    1    0.14241      0.99961     1.83754    0.02045     2.85759
      N    2   -0.14470      0.99979     2.63376    0.01116     3.64470
      C    3    0.20479      0.99938     1.77603    0.01980     2.79521
      C    4    0.14730      0.99960     1.83413    0.01896     2.85270
      N    5   -0.13913      0.99979     2.62889    0.01045     3.63913
      O    6   -0.25407      0.99985     3.24580    0.00841     4.25407
      C    7    0.37844      0.99969     1.59636    0.02552     2.62156
      O    8   -0.24401      0.99987     3.23843    0.00570     4.24401
      C    9    0.37547      0.99974     1.59866    0.02614     2.62453
      O   10   -0.26616      0.99987     3.25982    0.00648     4.26616
      O   11   -0.33193      0.99987     3.32472    0.00734     4.33193
      O   12   -0.26495      0.99985     3.25688    0.00822     4.26495
      C   13    0.38157      0.99968     1.59345    0.02530     2.61843
      O   14   -0.22514      0.99987     3.21968    0.00559     4.22514
      C   15    0.37686      0.99974     1.59716    0.02625     2.62314
      O   16   -0.26940      0.99987     3.26308    0.00646     4.26940
      O   17   -0.33141      0.99987     3.32417    0.00737     4.33141
      H   18    0.23244      0.00000     0.26319    0.00437     0.26756
      H   19    0.23164      0.00000     0.26398    0.00438     0.26836
 =======================================================================
   * Total *    0.00000     16.99593    43.75571    0.24836    61.00000

 Normal termination of Gaussian 16 at Sun Dec 13 20:27:06 2020.
