 Gaussian 16, Revision A.03,

 -----------------------------------------------------------
 # opt freq B3LYP/6-31G(d) empiricaldispersion=gd3bj scf=xqc
 -----------------------------------------------------------

 -------------------------------
 CID_144680166_JID_5333_neutraal
 -------------------------------
 Symbolic Z-matrix:
 Charge =  0 Multiplicity = 1

 SCF Done:  E(RB3LYP) =  -584.914556668     A.U. after   14 cycles
 SCF Done:  E(RB3LYP) =  -584.916912281     A.U. after   12 cycles
 SCF Done:  E(RB3LYP) =  -584.917088027     A.U. after   12 cycles
 SCF Done:  E(RB3LYP) =  -584.917783534     A.U. after   12 cycles
 SCF Done:  E(RB3LYP) =  -584.918018539     A.U. after   11 cycles
 SCF Done:  E(RB3LYP) =  -584.918071970     A.U. after   10 cycles
 SCF Done:  E(RB3LYP) =  -584.918091683     A.U. after   10 cycles
 SCF Done:  E(RB3LYP) =  -584.918099850     A.U. after    9 cycles
 SCF Done:  E(RB3LYP) =  -584.918104081     A.U. after    9 cycles
 SCF Done:  E(RB3LYP) =  -584.918105824     A.U. after    8 cycles
 SCF Done:  E(RB3LYP) =  -584.918106181     A.U. after    8 cycles
 Optimization completed.
    -- Stationary point found.
 Normal termination of Gaussian 16 at Thu Dec 10 15:35:31 2020.

 --------------------------------------------------------------------
 #N Geom=AllCheck Guess=TCheck SCRF=Check GenChk RB3LYP/6-31G(d) Freq
 --------------------------------------------------------------------

 Structure from the checkpoint file:  "JID_5333.chk"
 -------------------------------
 CID_144680166_JID_5333_neutraal
 -------------------------------
 Charge =  0 Multiplicity = 1

 SCF Done:  E(RB3LYP) =  -584.918106181     A.U. after    1 cycles

  Exact polarizability: 186.211  -7.908 157.721  17.630  -0.935 118.012
 Approx polarizability: 244.085 -15.223 261.810  34.143   0.453 176.589

                      1                      2                      3
                      A                      A                      A
 Frequencies --     32.1664                43.9439                48.9119
 Red. masses --      2.8253                 3.3180                 3.4618
 Frc consts  --      0.0017                 0.0038                 0.0049
 IR Inten    --      0.0516                 0.1076                 0.1090

                      4                      5                      6
                      A                      A                      A
 Frequencies --     85.3025               137.6984               144.7709
 Red. masses --      3.5197                 1.3878                 1.7578
 Frc consts  --      0.0151                 0.0155                 0.0217
 IR Inten    --      0.2023                 0.1299                 0.6851

                      7                      8                      9
                      A                      A                      A
 Frequencies --    174.5863               213.5717               220.0582
 Red. masses --      1.1742                 2.6879                 1.6975
 Frc consts  --      0.0211                 0.0722                 0.0484
 IR Inten    --      0.2744                 0.6727                 0.2930

                     10                     11                     12
                      A                      A                      A
 Frequencies --    251.7007               261.5870               288.8717
 Red. masses --      2.3370                 1.5754                 1.2601
 Frc consts  --      0.0872                 0.0635                 0.0620
 IR Inten    --      0.1325                 0.1717                 0.7991

                     13                     14                     15
                      A                      A                      A
 Frequencies --    305.1874               316.8980               319.8036
 Red. masses --      2.4423                 1.3406                 1.8426
 Frc consts  --      0.1340                 0.0793                 0.1110
 IR Inten    --      0.1345                 0.2003                 0.3363

                     16                     17                     18
                      A                      A                      A
 Frequencies --    340.6959               370.5045               376.5807
 Red. masses --      2.1657                 2.3879                 2.2655
 Frc consts  --      0.1481                 0.1931                 0.1893
 IR Inten    --      0.0974                 0.0661                 0.1731

                     19                     20                     21
                      A                      A                      A
 Frequencies --    417.2825               442.3420               447.2101
 Red. masses --      2.2483                 2.9308                 2.6905
 Frc consts  --      0.2307                 0.3379                 0.3170
 IR Inten    --      0.3544                 0.3714                 0.5402

                     22                     23                     24
                      A                      A                      A
 Frequencies --    456.3344               488.4894               514.1156
 Red. masses --      2.8869                 2.7735                 2.5243
 Frc consts  --      0.3542                 0.3899                 0.3931
 IR Inten    --      1.3705                 0.8403                 1.2728

                     25                     26                     27
                      A                      A                      A
 Frequencies --    559.7215               572.3147               650.0219
 Red. masses --      4.3440                 3.1375                 4.1995
 Frc consts  --      0.8018                 0.6055                 1.0455
 IR Inten    --      1.1034                 2.9818                 0.8922

                     28                     29                     30
                      A                      A                      A
 Frequencies --    694.7214               728.2442               736.0465
 Red. masses --      3.2358                 2.6391                 1.4898
 Frc consts  --      0.9201                 0.8246                 0.4755
 IR Inten    --      2.5111                 0.8528                 1.9021

                     31                     32                     33
                      A                      A                      A
 Frequencies --    764.0419               788.8150               836.6895
 Red. masses --      4.1083                 2.0468                 1.5214
 Frc consts  --      1.4130                 0.7504                 0.6275
 IR Inten    --      0.1253                 6.2630                19.4502

                     34                     35                     36
                      A                      A                      A
 Frequencies --    865.1484               908.8686               927.6718
 Red. masses --      2.1585                 1.3534                 1.3889
 Frc consts  --      0.9519                 0.6587                 0.7042
 IR Inten    --      0.4893                 6.7550                31.9075

                     37                     38                     39
                      A                      A                      A
 Frequencies --    941.6164               942.4172               950.4261
 Red. masses --      1.7273                 1.6935                 1.5316
 Frc consts  --      0.9023                 0.8862                 0.8151
 IR Inten    --      1.3912                 1.9761                 1.7958

                     40                     41                     42
                      A                      A                      A
 Frequencies --    959.8806               974.1761               975.4678
 Red. masses --      1.9674                 1.5384                 1.6456
 Frc consts  --      1.0680                 0.8602                 0.9226
 IR Inten    --      1.2128                 0.1188                 0.1167

                     43                     44                     45
                      A                      A                      A
 Frequencies --    987.5863              1029.9311              1035.4280
 Red. masses --      1.7141                 1.5441                 1.5352
 Frc consts  --      0.9850                 0.9650                 0.9698
 IR Inten    --      1.4959                 7.4968                 4.5817

                     46                     47                     48
                      A                      A                      A
 Frequencies --   1060.7245              1063.7636              1064.7698
 Red. masses --      1.4303                 1.3781                 1.3792
 Frc consts  --      0.9482                 0.9188                 0.9213
 IR Inten    --      5.7206                 0.5734                 0.6036

                     49                     50                     51
                      A                      A                      A
 Frequencies --   1085.7691              1157.3574              1183.9137
 Red. masses --      1.5952                 2.1393                 1.6316
 Frc consts  --      1.1080                 1.6883                 1.3475
 IR Inten    --      0.0114                 3.0591                 5.9704

                     52                     53                     54
                      A                      A                      A
 Frequencies --   1188.9230              1237.8900              1241.9760
 Red. masses --      1.5219                 1.8822                 2.6467
 Frc consts  --      1.2675                 1.6993                 2.4054
 IR Inten    --      5.1135                 3.5169                 4.9782

                     55                     56                     57
                      A                      A                      A
 Frequencies --   1248.7791              1254.0964              1279.3322
 Red. masses --      1.5621                 2.6623                 3.6104
 Frc consts  --      1.4353                 2.4670                 3.4815
 IR Inten    --      8.1726                 3.2602                 0.8310

                     58                     59                     60
                      A                      A                      A
 Frequencies --   1322.5571              1330.4925              1345.6467
 Red. masses --      1.8389                 1.7930                 2.2331
 Frc consts  --      1.8951                 1.8701                 2.3824
 IR Inten    --      2.3646                 3.5484                 1.2139

                     61                     62                     63
                      A                      A                      A
 Frequencies --   1370.5308              1423.9666              1424.9605
 Red. masses --      2.5921                 1.2185                 1.2248
 Frc consts  --      2.8687                 1.4557                 1.4652
 IR Inten    --      2.1271                 5.2186                 0.8832

                     64                     65                     66
                      A                      A                      A
 Frequencies --   1439.1841              1450.7468              1453.8813
 Red. masses --      1.2585                 1.2322                 1.2253
 Frc consts  --      1.5358                 1.5279                 1.5260
 IR Inten    --      0.1341                 0.8925                 8.0616

                     67                     68                     69
                      A                      A                      A
 Frequencies --   1463.6448              1478.7684              1507.1529
 Red. masses --      2.5450                 1.1875                 1.0454
 Frc consts  --      3.2122                 1.5300                 1.3991
 IR Inten    --      2.4405                 3.5298                 0.0196

                     70                     71                     72
                      A                      A                      A
 Frequencies --   1511.9426              1513.4962              1519.3765
 Red. masses --      1.0507                 1.0798                 1.0571
 Frc consts  --      1.4151                 1.4573                 1.4378
 IR Inten    --      0.0183                 7.7865                 2.7108

                     73                     74                     75
                      A                      A                      A
 Frequencies --   1522.1578              1522.9244              1525.1337
 Red. masses --      1.2027                 1.0443                 1.1351
 Frc consts  --      1.6419                 1.4270                 1.5557
 IR Inten    --     14.4168                13.1838                 2.6661

                     76                     77                     78
                      A                      A                      A
 Frequencies --   1528.3712              1537.0508              1541.0680
 Red. masses --      1.0594                 1.0504                 1.0615
 Frc consts  --      1.4581                 1.4621                 1.4853
 IR Inten    --      2.9018                 4.4048                 3.5594

                     79                     80                     81
                      A                      A                      A
 Frequencies --   1553.7744              1557.9625              1635.1876
 Red. masses --      2.1734                 1.0881                 5.8623
 Frc consts  --      3.0915                 1.5561                 9.2354
 IR Inten    --     22.3389                 5.6446                 3.7858

                     82                     83                     84
                      A                      A                      A
 Frequencies --   1677.2229              1714.9216              3036.1715
 Red. masses --      5.8744                 4.6905                 1.0389
 Frc consts  --      9.7363                 8.1276                 5.6423
 IR Inten    --      4.7729                13.2951                17.2278

                     85                     86                     87
                      A                      A                      A
 Frequencies --   3037.6999              3045.4259              3046.1328
 Red. masses --      1.0382                 1.0405                 1.0398
 Frc consts  --      5.6444                 5.6859                 5.6845
 IR Inten    --     54.2400                12.8049                23.7851

                     88                     89                     90
                      A                      A                      A
 Frequencies --   3048.1463              3054.4550              3082.4772
 Red. masses --      1.0552                 1.0383                 1.1002
 Frc consts  --      5.7763                 5.7076                 6.1590
 IR Inten    --     39.5855                26.7196                36.4448

                     91                     92                     93
                      A                      A                      A
 Frequencies --   3084.5814              3086.8243              3109.7470
 Red. masses --      1.1001                 1.1002                 1.1025
 Frc consts  --      6.1668                 6.1766                 6.2817
 IR Inten    --      6.2370                19.5038                 6.9751

                     94                     95                     96
                      A                      A                      A
 Frequencies --   3110.4011              3118.3791              3123.4707
 Red. masses --      1.1004                 1.1009                 1.1028
 Frc consts  --      6.2723                 6.3074                 6.3388
 IR Inten    --      8.1930                65.9488                32.7488

                     97                     98                     99
                      A                      A                      A
 Frequencies --   3125.5392              3128.3256              3130.7146
 Red. masses --      1.0998                 1.0997                 1.1004
 Frc consts  --      6.3301                 6.3407                 6.3545
 IR Inten    --     28.3645                 9.6715                31.1682

                    100                    101                    102
                      A                      A                      A
 Frequencies --   3159.2124              3168.0411              3170.3902
 Red. masses --      1.0982                 1.0632                 1.0865
 Frc consts  --      6.4577                 6.2872                 6.4346
 IR Inten    --     17.6292                12.7015                16.0368

                    103                    104                    105
                      A                      A                      A
 Frequencies --   3176.8996              3188.3195              3249.7138
 Red. masses --      1.0894                 1.0943                 1.1114
 Frc consts  --      6.4779                 6.5538                 6.9152
 IR Inten    --     13.7680                25.8496                17.6824

 - Thermochemistry -
 -------------------
 Temperature   298.150 Kelvin.  Pressure   1.00000 Atm.
 Atom     1 has atomic number  6 and mass  12.00000

 Molecular mass:   202.17215 amu.
 Principal axes and moments of inertia in atomic units:
                           1         2         3
     Eigenvalues --  1631.305515287.652085607.22063
           X            0.99997   0.00712   0.00214
           Y           -0.00713   0.99996   0.00491
           Z           -0.00211  -0.00493   0.99999
 This molecule is an asymmetric top.
 Rotational symmetry number  1.
 Warning -- assumption of classical behavior for rotation
           may cause significant error
 Rotational temperatures (Kelvin)      0.05309     0.01638     0.01545
 Rotational constants (GHZ):           1.10632     0.34131     0.32186
 Zero-point vibrational energy     872964.9 (Joules/Mol)
                                  208.64362 (Kcal/Mol)
 Warning -- explicit consideration of  26 degrees of freedom as
           vibrations may cause significant error
 Vibrational temperatures:     46.28    63.23    70.37   122.73   198.12
          (Kelvin)            208.29   251.19   307.28   316.61   362.14
                              376.37   415.62   439.10   455.95   460.13
                              490.19   533.07   541.82   600.38   636.43
                              643.44   656.56   702.83   739.70   805.31
                              823.43   935.24   999.55  1047.78  1059.01
                             1099.29  1134.93  1203.81  1244.76  1307.66
                             1334.71  1354.78  1355.93  1367.45  1381.05
                             1401.62  1403.48  1420.92  1481.84  1489.75
                             1526.15  1530.52  1531.97  1562.18  1665.18
                             1703.39  1710.60  1781.05  1786.93  1796.71
                             1804.36  1840.67  1902.86  1914.28  1936.09
                             1971.89  2048.77  2050.20  2070.66  2087.30
                             2091.81  2105.86  2127.62  2168.46  2175.35
                             2177.58  2186.04  2190.05  2191.15  2194.33
                             2198.99  2211.47  2217.25  2235.53  2241.56
                             2352.67  2413.15  2467.39  4368.37  4370.57
                             4381.69  4382.71  4385.60  4394.68  4435.00
                             4438.02  4441.25  4474.23  4475.17  4486.65
                             4493.98  4496.95  4500.96  4504.40  4545.40
                             4558.10  4561.48  4570.85  4587.28  4675.61

 Zero-point correction=                           0.332495 (Hartree/Particle)
 Thermal correction to Energy=                    0.348765
 Thermal correction to Enthalpy=                  0.349709
 Thermal correction to Gibbs Free Energy=         0.289191
 Sum of electronic and zero-point Energies=           -584.585611
 Sum of electronic and thermal Energies=              -584.569341
 Sum of electronic and thermal Enthalpies=            -584.568397
 Sum of electronic and thermal Free Energies=         -584.628915

                     E (Thermal)             CV                S
                      KCal/Mol        Cal/Mol-Kelvin    Cal/Mol-Kelvin
 Total                  218.853             63.463            127.371
 Electronic               0.000              0.000              0.000
 Translational            0.889              2.981             41.816
 Rotational               0.889              2.981             32.248
 Vibrational            217.076             57.501             53.308
 Vibration     1          0.594              1.983              5.691
 Vibration     2          0.595              1.980              5.073
 Vibration     3          0.595              1.978              4.861
 Vibration     4          0.601              1.959              3.765
 Vibration     5          0.614              1.916              2.836
 Vibration     6          0.616              1.908              2.740
 Vibration     7          0.627              1.874              2.386
 Vibration     8          0.644              1.820              2.013
 Vibration     9          0.647              1.811              1.959
 Vibration    10          0.664              1.760              1.719
 Vibration    11          0.669              1.743              1.651
 Vibration    12          0.685              1.694              1.481
 Vibration    13          0.696              1.664              1.388
 Vibration    14          0.704              1.641              1.326
 Vibration    15          0.706              1.636              1.311
 Vibration    16          0.720              1.594              1.209
 Vibration    17          0.743              1.533              1.078
 Vibration    18          0.747              1.520              1.053
 Vibration    19          0.780              1.433              0.901
 Vibration    20          0.802              1.378              0.819
 Vibration    21          0.806              1.367              0.804
 Vibration    22          0.815              1.347              0.777
 Vibration    23          0.844              1.276              0.688
 Vibration    24          0.869              1.219              0.624
 Vibration    25          0.915              1.118              0.524
 Vibration    26          0.929              1.091              0.500

                           ! Non-Optimized Parameters !
 Normal termination of Gaussian 16 at Thu Dec 10 15:48:13 2020.

 ----------------------------------------------------------------------
 # B3LYP/6-311++G(d,p) empiricaldispersion=gd3bj scf=xqc pop=npa geom=c
 heck
 ----------------------------------------------------------------------

 ---------------------------------------
 CID_144680166_JID_5333_Energie_neutraal
 ---------------------------------------
 Structure from the checkpoint file:  "JID_5333.chk"
 Charge =  0 Multiplicity = 1

 SCF Done:  E(RB3LYP) =  -585.071620439     A.U. after   14 cycles
 Normal termination of Gaussian 16 at Thu Dec 10 15:53:24 2020.

 ----------------------------------------------------------------------
 # B3LYP/6-311++G(d,p) empiricaldispersion=gd3bj scf=xqc pop=npa geom=c
 heck
 ----------------------------------------------------------------------

 -------------------------------------
 CID_144680166_JID_5333_Energie_kation
 -------------------------------------
 Structure from the checkpoint file:  "JID_5333.chk"
 Charge =  1 Multiplicity = 2

 SCF Done:  E(UB3LYP) =  -584.777478243     A.U. after   26 cycles
 Normal termination of Gaussian 16 at Thu Dec 10 16:06:29 2020.
 Gaussian 16:  ES64L-G16RevA.03 25-Dec-2016

 ----------------------------------------------------------------------
 # B3LYP/6-311++G(d,p) empiricaldispersion=gd3bj scf=xqc pop=npa geom=c
 heck
 ----------------------------------------------------------------------

 ------------------------------------
 CID_144680166_JID_5333_Energie_anion
 ------------------------------------
 Structure from the checkpoint file:  "JID_5333.chk"
 Charge = -1 Multiplicity = 2

                         Standard orientation:
 ---------------------------------------------------------------------
 Center     Atomic      Atomic             Coordinates (Angstroms)
 Number     Number       Type             X           Y           Z
 ---------------------------------------------------------------------
      1          6           0        4.295483   -0.556438    0.758474
      2          6           0        2.923531   -0.444347    0.142246
      3          6           0        2.285497    0.809411    0.022677
      4          6           0        1.014125    0.874579   -0.546597
      5          6           0        0.344155   -0.265717   -1.004958
      6          6           0        0.986091   -1.498067   -0.889717
      7          6           0        2.258365   -1.580598   -0.321315
      8          6           0       -1.043879   -0.145542   -1.606569
      9          6           0       -2.076090    0.511595   -0.701191
     10          6           0       -2.557670    1.710045   -1.051361
     11          6           0       -2.519052   -0.221385    0.575732
     12          6           0       -2.685785   -1.730651    0.301397
     13          6           0       -1.466810   -0.036187    1.695139
     14          6           0       -3.863717    0.320240    1.095211
     15          6           0        2.964196    2.065244    0.510380
     16          1           0        5.038211    0.033141    0.205543
     17          1           0        4.307733   -0.186081    1.791764
     18          1           0        4.637354   -1.595601    0.772322
     19          1           0        0.514640    1.838188   -0.617926
     20          1           0        0.491423   -2.400090   -1.242190
     21          1           0        2.744075   -2.549798   -0.234528
     22          1           0       -0.980524    0.446869   -2.527475
     23          1           0       -1.385051   -1.141933   -1.908713
     24          1           0       -3.300182    2.243959   -0.469181
     25          1           0       -2.216285    2.206130   -1.956480
     26          1           0       -1.734520   -2.203129    0.039663
     27          1           0       -3.064854   -2.231862    1.199077
     28          1           0       -3.397965   -1.912875   -0.512090
     29          1           0       -1.296330    1.027438    1.892613
     30          1           0       -1.826079   -0.503947    2.620326
     31          1           0       -0.508391   -0.489229    1.435020
     32          1           0       -3.784273    1.362078    1.422334
     33          1           0       -4.643014    0.260928    0.327774
     34          1           0       -4.189325   -0.267983    1.960319
     35          1           0        2.333823    2.943480    0.343571
     36          1           0        3.189177    2.012396    1.583424
     37          1           0        3.919728    2.234827   -0.002462
 ---------------------------------------------------------------------

 SCF Done:  E(UB3LYP) =  -585.055690973     A.U. after   33 cycles
 SCF Done:  E(UB3LYP) =  -585.055690973     a.u. after    1 cycles

 The electronic state is 2-A.
 Alpha  occ. eigenvalues --  -10.09639 -10.09005 -10.08314 -10.08236 -10.08172
 Alpha  occ. eigenvalues --  -10.08169 -10.07330 -10.07242 -10.06890 -10.06822
 Alpha  occ. eigenvalues --  -10.06813 -10.06516 -10.06504 -10.06486 -10.05872
 Alpha  occ. eigenvalues --   -0.76911  -0.74419  -0.69779  -0.67043  -0.66091
 Alpha  occ. eigenvalues --   -0.61679  -0.59737  -0.58873  -0.58673  -0.55526
 Alpha  occ. eigenvalues --   -0.50317  -0.49988  -0.46785  -0.41624  -0.39726
 Alpha  occ. eigenvalues --   -0.39020  -0.37194  -0.36104  -0.34841  -0.34558
 Alpha  occ. eigenvalues --   -0.33647  -0.32411  -0.31923  -0.31489  -0.30737
 Alpha  occ. eigenvalues --   -0.30164  -0.29501  -0.29074  -0.28933  -0.28416
 Alpha  occ. eigenvalues --   -0.27418  -0.26801  -0.25368  -0.24440  -0.23878
 Alpha  occ. eigenvalues --   -0.23595  -0.23218  -0.22231  -0.16339  -0.14991
 Alpha  occ. eigenvalues --   -0.13734   0.04329
 Alpha virt. eigenvalues --    0.06019   0.06669   0.06966   0.07830   0.07972
 Alpha virt. eigenvalues --    0.08021   0.08559   0.09122   0.09576   0.09779
 Alpha virt. eigenvalues --    0.09912   0.10249   0.10749   0.11053   0.12059

  Beta  occ. eigenvalues --  -10.09637 -10.09005 -10.08313 -10.08235 -10.08166
  Beta  occ. eigenvalues --  -10.08164 -10.07319 -10.07233 -10.06881 -10.06786
  Beta  occ. eigenvalues --  -10.06775 -10.06494 -10.06482 -10.06472 -10.05856
  Beta  occ. eigenvalues --   -0.76899  -0.74408  -0.69761  -0.67021  -0.66069
  Beta  occ. eigenvalues --   -0.61647  -0.59693  -0.58837  -0.58628  -0.55481
  Beta  occ. eigenvalues --   -0.50282  -0.49954  -0.46751  -0.41587  -0.39697
  Beta  occ. eigenvalues --   -0.38994  -0.37168  -0.36077  -0.34808  -0.34530
  Beta  occ. eigenvalues --   -0.33608  -0.32391  -0.31896  -0.31468  -0.30703
  Beta  occ. eigenvalues --   -0.30129  -0.29473  -0.29046  -0.28896  -0.28391
  Beta  occ. eigenvalues --   -0.27395  -0.26780  -0.25346  -0.24414  -0.23854
  Beta  occ. eigenvalues --   -0.23571  -0.23196  -0.22212  -0.16326  -0.14974
  Beta  occ. eigenvalues --   -0.13718
  Beta virt. eigenvalues --    0.06191   0.06889   0.07199   0.07292   0.07998
  Beta virt. eigenvalues --    0.08218   0.08468   0.08961   0.09423   0.09729
  Beta virt. eigenvalues --    0.10136   0.10146   0.10636   0.11160   0.11443

 Mulliken charges and spin densities:
               1          2
     1  C    2.548053  -3.173535
     2  C   -1.962204   2.610385
     3  C   -2.284007   2.265280
     4  C   -0.041906  -0.510370
     5  C    1.794555  -0.742482
     6  C   -0.879587   0.279970
     7  C    0.841166  -1.353117
     8  C    0.016854  -1.116337
     9  C    0.510341   0.317388
    10  C    0.973573  -1.590293
    11  C   -2.234896   2.927977
    12  C    0.045781  -0.766153
    13  C    0.090815  -0.777827
    14  C    0.208331  -0.754223
    15  C    1.442431  -1.988299
    16  H   -0.150370   0.301819
    17  H   -0.170088   0.328621
    18  H   -0.390547   0.539283
    19  H    0.162524   0.037191
    20  H   -0.365998   0.496921
    21  H   -0.351495   0.511706
    22  H   -0.086561   0.256265
    23  H    0.229152  -0.045674
    24  H    0.131149   0.002110
    25  H   -0.172425   0.289237
    26  H   -0.026508   0.152056
    27  H   -0.162862   0.304666
    28  H   -0.085414   0.247325
    29  H   -0.080199   0.234256
    30  H    0.007333   0.139325
    31  H    0.367011  -0.214014
    32  H   -0.083227   0.206198
    33  H   -0.111776   0.258955
    34  H   -0.011504   0.151358
    35  H   -0.469967   0.610100
    36  H   -0.130810   0.294724
    37  H   -0.116714   0.269210
 Sum of Mulliken charges =  -1.00000   1.00000

 Dipole moment (field-independent basis, Debye):
    X=             -3.3800    Y=              0.0217    Z=             -1.5726  Tot=              3.7280
 Quadrupole moment (field-independent basis, Debye-Ang):
   XX=           -186.2097   YY=           -142.1138   ZZ=           -131.9990
   XY=             -2.2636   XZ=             -3.2442   YZ=             -1.4002

 Summary of Natural Population Analysis:

                                       Natural Population
                Natural  -----------------------------------------------
    Atom  No    Charge         Core      Valence    Rydberg      Total
 -----------------------------------------------------------------------
      C    1   -0.29439      0.99964     2.28918    0.00556     3.29439
      C    2   -0.01648      0.99947     2.00686    0.01015     3.01648
      C    3   -0.01038      0.99948     2.00087    0.01003     3.01038
      C    4   -0.09748      0.99946     2.08889    0.00913     3.09748
      C    5   -0.01614      0.99950     2.00575    0.01089     3.01614
      C    6   -0.10430      0.99950     2.09543    0.00937     3.10430
      C    7   -0.09486      0.99951     2.08548    0.00986     3.09486
      C    8   -0.21218      0.99955     2.20190    0.01073     3.21218
      C    9    0.01723      0.99948     1.96864    0.01465     2.98277
      C   10   -0.19909      0.99947     2.19221    0.00741     3.19909
      C   11   -0.06193      0.99954     2.05013    0.01227     3.06193
      C   12   -0.28461      0.99963     2.27735    0.00763     3.28461
      C   13   -0.28074      0.99962     2.27358    0.00753     3.28074
      C   14   -0.28232      0.99964     2.27616    0.00653     3.28232
      C   15   -0.29427      0.99964     2.28886    0.00577     3.29427
      H   16    0.10503      0.00000     0.39359    0.00137     0.39497
      H   17    0.10502      0.00000     0.39373    0.00125     0.39498
      H   18    0.10270      0.00000     0.39603    0.00127     0.39730
      H   19    0.10112      0.00000     0.39717    0.00171     0.39888
      H   20    0.09853      0.00000     0.39988    0.00159     0.40147
      H   21    0.09922      0.00000     0.39977    0.00100     0.40078
      H   22    0.10513      0.00000     0.39324    0.00163     0.39487
      H   23    0.10592      0.00000     0.39248    0.00160     0.39408
      H   24    0.09546      0.00000     0.40346    0.00108     0.40454
      H   25    0.09200      0.00000     0.40672    0.00128     0.40800
      H   26    0.10219      0.00000     0.39649    0.00132     0.39781
      H   27    0.10039      0.00000     0.39873    0.00088     0.39961
      H   28    0.09952      0.00000     0.39949    0.00099     0.40048
      H   29    0.10132      0.00000     0.39765    0.00103     0.39868
      H   30    0.09685      0.00000     0.40226    0.00089     0.40315
      H   31    0.10766      0.00000     0.39070    0.00163     0.39234
      H   32    0.09941      0.00000     0.39947    0.00112     0.40059
      H   33    0.10126      0.00000     0.39773    0.00101     0.39874
      H   34    0.09972      0.00000     0.39927    0.00101     0.40028
      H   35    0.10281      0.00000     0.39614    0.00105     0.39719
      H   36    0.10565      0.00000     0.39307    0.00127     0.39435
      H   37    0.10504      0.00000     0.39369    0.00126     0.39496
 =======================================================================
   * Total *    0.00000     14.99312    40.84208    0.16480    56.00000

 Normal termination of Gaussian 16 at Thu Dec 10 16:24:21 2020.
