 Gaussian 16, Revision A.03,

 -----------------------------------------------------------
 # opt freq B3LYP/6-31G(d) empiricaldispersion=gd3bj scf=xqc
 -----------------------------------------------------------

 ------------------------------
 CID_57234631_JID_6231_neutraal
 ------------------------------
 Symbolic Z-matrix:
 Charge =  0 Multiplicity = 1

 SCF Done:  E(RB3LYP) =  -1031.37518635     A.U. after   16 cycles
 SCF Done:  E(RB3LYP) =  -1031.40037097     A.U. after   13 cycles
 SCF Done:  E(RB3LYP) =  -1031.40243584     A.U. after   14 cycles
 SCF Done:  E(RB3LYP) =  -1031.40280756     A.U. after   12 cycles
 SCF Done:  E(RB3LYP) =  -1031.40284627     A.U. after   11 cycles
 SCF Done:  E(RB3LYP) =  -1031.40286145     A.U. after   10 cycles
 SCF Done:  E(RB3LYP) =  -1031.40286974     A.U. after   11 cycles
 SCF Done:  E(RB3LYP) =  -1031.40287350     A.U. after   11 cycles
 SCF Done:  E(RB3LYP) =  -1031.40287467     A.U. after    8 cycles
 SCF Done:  E(RB3LYP) =  -1031.40287495     A.U. after    8 cycles
 SCF Done:  E(RB3LYP) =  -1031.40287506     A.U. after    8 cycles
 SCF Done:  E(RB3LYP) =  -1031.40287515     A.U. after    8 cycles
 SCF Done:  E(RB3LYP) =  -1031.40287519     A.U. after    8 cycles
 Optimization completed.
    -- Stationary point found.
 Normal termination of Gaussian 16 at Thu Dec 10 21:16:34 2020.

 --------------------------------------------------------------------
 #N Geom=AllCheck Guess=TCheck SCRF=Check GenChk RB3LYP/6-31G(d) Freq
 --------------------------------------------------------------------

 Structure from the checkpoint file:  "JID_6231.chk"
 ------------------------------
 CID_57234631_JID_6231_neutraal
 ------------------------------
 Charge =  0 Multiplicity = 1

 SCF Done:  E(RB3LYP) =  -1031.40287519     A.U. after    1 cycles

  Exact polarizability: 208.498  17.075 163.825  16.940  -6.131 103.754
 Approx polarizability: 299.195  32.087 273.024  31.336 -16.594 165.225

                      1                      2                      3
                      A                      A                      A
 Frequencies --     24.3850                33.1958                63.3270
 Red. masses --      6.1170                 6.1220                 4.5091
 Frc consts  --      0.0021                 0.0040                 0.0107
 IR Inten    --      1.1167                 0.8715                 5.6879

                      4                      5                      6
                      A                      A                      A
 Frequencies --     80.3158                97.2899               111.3112
 Red. masses --      3.3499                 5.7086                 3.2986
 Frc consts  --      0.0127                 0.0318                 0.0241
 IR Inten    --      1.9120                 0.8857                 2.4508

                      7                      8                      9
                      A                      A                      A
 Frequencies --    144.7785               196.7060               237.9188
 Red. masses --      5.7196                 3.6054                 3.5261
 Frc consts  --      0.0706                 0.0822                 0.1176
 IR Inten    --      2.6609                 2.1969                 1.1197

                     10                     11                     12
                      A                      A                      A
 Frequencies --    271.7621               299.7454               314.3565
 Red. masses --      4.1543                 3.6230                 2.9043
 Frc consts  --      0.1808                 0.1918                 0.1691
 IR Inten    --      1.0441                 4.7900                 3.8600

                     13                     14                     15
                      A                      A                      A
 Frequencies --    364.0358               380.7186               409.3938
 Red. masses --      3.5245                 6.6016                 3.9498
 Frc consts  --      0.2752                 0.5638                 0.3900
 IR Inten    --      2.1488                 0.4013                 1.8162

                     16                     17                     18
                      A                      A                      A
 Frequencies --    437.6292               440.2645               513.0863
 Red. masses --      3.3728                 2.7587                 4.8798
 Frc consts  --      0.3806                 0.3151                 0.7569
 IR Inten    --      0.1450                 1.6430                 1.1191

                     19                     20                     21
                      A                      A                      A
 Frequencies --    521.3390               532.5147               572.1157
 Red. masses --      4.6626                 5.0741                 5.9372
 Frc consts  --      0.7467                 0.8478                 1.1450
 IR Inten    --      0.8058                 2.1282                 1.3211

                     22                     23                     24
                      A                      A                      A
 Frequencies --    580.3427               605.8795               640.4963
 Red. masses --      5.1032                 2.9021                 3.4240
 Frc consts  --      1.0127                 0.6277                 0.8276
 IR Inten    --      5.7622                 2.6667                 1.1477

                     25                     26                     27
                      A                      A                      A
 Frequencies --    698.6107               732.1692               766.5376
 Red. masses --      5.1524                 3.0265                 4.5290
 Frc consts  --      1.4816                 0.9559                 1.5679
 IR Inten    --      3.1781                 7.6986                 8.1015

                     28                     29                     30
                      A                      A                      A
 Frequencies --    794.7432               838.0949               857.4291
 Red. masses --      1.5035                 1.8863                 1.8765
 Frc consts  --      0.5595                 0.7806                 0.8128
 IR Inten    --     25.1859                 6.1406                24.3662

                     31                     32                     33
                      A                      A                      A
 Frequencies --    893.2202               901.1539               905.3600
 Red. masses --      2.5327                 2.0366                 1.6319
 Frc consts  --      1.1906                 0.9745                 0.7881
 IR Inten    --      7.3748                 9.1702                 0.9279

                     34                     35                     36
                      A                      A                      A
 Frequencies --    963.4370               965.0059               997.7962
 Red. masses --      1.3746                 2.1114                 1.3173
 Frc consts  --      0.7518                 1.1584                 0.7727
 IR Inten    --      0.1807                 3.0360                18.6654

                     37                     38                     39
                      A                      A                      A
 Frequencies --   1006.0909              1031.5886              1052.6196
 Red. masses --      2.3706                 2.0408                 2.0248
 Frc consts  --      1.4138                 1.2795                 1.3218
 IR Inten    --      9.3847                 7.8807                 7.8873

                     40                     41                     42
                      A                      A                      A
 Frequencies --   1059.7823              1077.4400              1111.8138
 Red. masses --      2.0638                 5.1122                 3.6960
 Frc consts  --      1.3657                 3.4966                 2.6918
 IR Inten    --      5.6471                14.4081                48.6588

                     43                     44                     45
                      A                      A                      A
 Frequencies --   1117.2364              1139.3335              1193.9279
 Red. masses --      2.7960                 1.7498                 1.1875
 Frc consts  --      2.0563                 1.3383                 0.9974
 IR Inten    --      8.5674                 2.0116                 3.5362

                     46                     47                     48
                      A                      A                      A
 Frequencies --   1197.8780              1215.5977              1237.3176
 Red. masses --      1.2589                 1.2788                 1.2605
 Frc consts  --      1.0643                 1.1133                 1.1369
 IR Inten    --      4.8583                 1.1669                 1.8983

                     49                     50                     51
                      A                      A                      A
 Frequencies --   1279.2658              1282.3761              1293.5589
 Red. masses --      1.3886                 1.6486                 2.7647
 Frc consts  --      1.3389                 1.5973                 2.7256
 IR Inten    --      1.7065                 1.7313                96.2225

                     52                     53                     54
                      A                      A                      A
 Frequencies --   1334.0713              1341.8647              1344.4265
 Red. masses --      1.3949                 1.3742                 1.8887
 Frc consts  --      1.4627                 1.4579                 2.0113
 IR Inten    --      2.0759                 3.8307                 2.2452

                     55                     56                     57
                      A                      A                      A
 Frequencies --   1355.3009              1369.3145              1395.4327
 Red. masses --      1.5092                 1.5556                 1.4427
 Frc consts  --      1.6333                 1.7185                 1.6551
 IR Inten    --     75.9971                29.7590                23.9903

                     58                     59                     60
                      A                      A                      A
 Frequencies --   1424.9561              1484.0597              1495.0630
 Red. masses --      1.3882                 2.9037                 1.1125
 Frc consts  --      1.6608                 3.7680                 1.4652
 IR Inten    --      3.7591                37.1400                 3.2676

                     61                     62                     63
                      A                      A                      A
 Frequencies --   1505.8917              1510.7708              1523.5740
 Red. masses --      1.8102                 1.2323                 1.1032
 Frc consts  --      2.4186                 1.6572                 1.5088
 IR Inten    --     31.7075                27.1599                 9.8353

                     64                     65                     66
                      A                      A                      A
 Frequencies --   1530.8705              1634.2195              1648.1803
 Red. masses --      1.1821                 6.5343                 5.8884
 Frc consts  --      1.6323                10.2818                 9.4244
 IR Inten    --     10.6659                35.3635                 1.3494

                     67                     68                     69
                      A                      A                      A
 Frequencies --   1713.1480              2346.0148              3042.9956
 Red. masses --      5.7580                12.6132                 1.0612
 Frc consts  --      9.9567                40.9014                 5.7899
 IR Inten    --     18.8597                29.4730                11.7827

                     70                     71                     72
                      A                      A                      A
 Frequencies --   3050.1175              3055.7794              3085.7090
 Red. masses --      1.0651                 1.0617                 1.0586
 Frc consts  --      5.8383                 5.8413                 5.9385
 IR Inten    --     46.5931                16.6200                15.0320

                     73                     74                     75
                      A                      A                      A
 Frequencies --   3089.9426              3103.9571              3121.3246
 Red. masses --      1.1008                 1.1032                 1.1007
 Frc consts  --      6.1925                 6.2621                 6.3182
 IR Inten    --     21.3900                22.6054                33.4400

                     76                     77                     78
                      A                      A                      A
 Frequencies --   3142.0894              3180.5763              3189.6298
 Red. masses --      1.1089                 1.0914                 1.0874
 Frc consts  --      6.4505                 6.5047                 6.5180
 IR Inten    --      7.4325                 1.4069                 9.4814

                     79                     80                     81
                      A                      A                      A
 Frequencies --   3191.8427              3206.5662              3221.4062
 Red. masses --      1.0872                 1.0906                 1.0958
 Frc consts  --      6.5259                 6.6072                 6.7000
 IR Inten    --      4.0270                12.7198                10.5752

 - Thermochemistry -
 -------------------
 Temperature   298.150 Kelvin.  Pressure   1.00000 Atm.
 Atom     1 has atomic number  6 and mass  12.00000

 Molecular mass:   231.07179 amu.
 Principal axes and moments of inertia in atomic units:
                           1         2         3
     Eigenvalues --  2157.989146967.208147951.47614
           X            0.99989  -0.00368   0.01467
           Y            0.00362   0.99999   0.00361
           Z           -0.01468  -0.00356   0.99989
 This molecule is an asymmetric top.
 Rotational symmetry number  1.
 Warning -- assumption of classical behavior for rotation
           may cause significant error
 Rotational temperatures (Kelvin)      0.04014     0.01243     0.01089
 Rotational constants (GHZ):           0.83631     0.25903     0.22697
 Zero-point vibrational energy     610821.5 (Joules/Mol)
                                  145.98985 (Kcal/Mol)
 Warning -- explicit consideration of  23 degrees of freedom as
           vibrations may cause significant error
 Vibrational temperatures:     35.08    47.76    91.11   115.56   139.98
          (Kelvin)            160.15   208.30   283.02   342.31   391.01
                              431.27   452.29   523.77   547.77   589.03
                              629.65   633.44   738.22   750.09   766.17
                              823.15   834.98   871.73   921.53  1005.14
                             1053.43  1102.88  1143.46  1205.83  1233.65
                             1285.14  1296.56  1302.61  1386.17  1388.43
                             1435.61  1447.54  1484.23  1514.48  1524.79
                             1550.20  1599.65  1607.45  1639.25  1717.80
                             1723.48  1748.97  1780.22  1840.58  1845.05
                             1861.14  1919.43  1930.64  1934.33  1949.98
                             1970.14  2007.72  2050.19  2135.23  2151.06
                             2166.64  2173.66  2192.08  2202.58  2351.28
                             2371.36  2464.84  3375.39  4378.19  4388.44
                             4396.59  4439.65  4445.74  4465.90  4490.89
                             4520.77  4576.14  4589.17  4592.35  4613.53
                             4634.88

 Zero-point correction=                           0.232650 (Hartree/Particle)
 Thermal correction to Energy=                    0.247284
 Thermal correction to Enthalpy=                  0.248228
 Thermal correction to Gibbs Free Energy=         0.188943
 Sum of electronic and zero-point Energies=          -1031.170226
 Sum of electronic and thermal Energies=             -1031.155592
 Sum of electronic and thermal Enthalpies=           -1031.154647
 Sum of electronic and thermal Free Energies=        -1031.213932

                     E (Thermal)             CV                S
                      KCal/Mol        Cal/Mol-Kelvin    Cal/Mol-Kelvin
 Total                  155.173             55.279            124.775
 Electronic               0.000              0.000              0.000
 Translational            0.889              2.981             42.215
 Rotational               0.889              2.981             33.147
 Vibrational            153.395             49.318             49.414
 Vibration     1          0.593              1.985              6.241
 Vibration     2          0.594              1.983              5.629
 Vibration     3          0.597              1.972              4.351
 Vibration     4          0.600              1.963              3.883
 Vibration     5          0.603              1.951              3.508
 Vibration     6          0.607              1.940              3.246
 Vibration     7          0.616              1.908              2.740
 Vibration     8          0.636              1.844              2.164
 Vibration     9          0.656              1.783              1.818
 Vibration    10          0.675              1.725              1.585
 Vibration    11          0.692              1.674              1.418
 Vibration    12          0.702              1.646              1.339
 Vibration    13          0.738              1.546              1.105
 Vibration    14          0.750              1.511              1.036
 Vibration    15          0.774              1.450              0.929
 Vibration    16          0.798              1.388              0.834
 Vibration    17          0.800              1.382              0.826
 Vibration    18          0.868              1.221              0.626
 Vibration    19          0.876              1.203              0.607
 Vibration    20          0.887              1.178              0.582
 Vibration    21          0.928              1.092              0.500
 Vibration    22          0.937              1.074              0.485
 Vibration    23          0.965              1.019              0.440

 Optimization completed.
    -- Stationary point found.
 Normal termination of Gaussian 16 at Thu Dec 10 21:26:21 2020.

 ----------------------------------------------------------------------
 # B3LYP/6-311++G(d,p) empiricaldispersion=gd3bj scf=xqc pop=npa geom=c
 heck
 ----------------------------------------------------------------------

 --------------------------------------
 CID_57234631_JID_6231_Energie_neutraal
 --------------------------------------
 Structure from the checkpoint file:  "JID_6231.chk"
 Charge =  0 Multiplicity = 1

 SCF Done:  E(RB3LYP) =  -1031.59683860     A.U. after   16 cycles
 Normal termination of Gaussian 16 at Thu Dec 10 21:31:25 2020.

 ----------------------------------------------------------------------
 # B3LYP/6-311++G(d,p) empiricaldispersion=gd3bj scf=xqc pop=npa geom=c
 heck
 ----------------------------------------------------------------------

 ------------------------------------
 CID_57234631_JID_6231_Energie_kation
 ------------------------------------
 Structure from the checkpoint file:  "JID_6231.chk"
 Charge =  1 Multiplicity = 2

 SCF Done:  E(UB3LYP) =  -1031.30906003     A.U. after   26 cycles
 Normal termination of Gaussian 16 at Thu Dec 10 21:42:56 2020.
 Gaussian 16:  ES64L-G16RevA.03 25-Dec-2016

 ----------------------------------------------------------------------
 # B3LYP/6-311++G(d,p) empiricaldispersion=gd3bj scf=xqc pop=npa geom=c
 heck
 ----------------------------------------------------------------------

 -----------------------------------
 CID_57234631_JID_6231_Energie_anion
 -----------------------------------
 Structure from the checkpoint file:  "JID_6231.chk"
 Charge = -1 Multiplicity = 2

                         Standard orientation:
 ---------------------------------------------------------------------
 Center     Atomic      Atomic             Coordinates (Angstroms)
 Number     Number       Type             X           Y           Z
 ---------------------------------------------------------------------
      1          6           0       -3.460867   -0.192309   -1.415486
      2          6           0       -3.465609   -1.337361   -0.415970
      3         16           0       -1.770492   -1.661099    0.180377
      4          6           0       -1.190615    0.022900    0.349474
      5          6           0        0.034397    0.245019    1.016273
      6          6           0        0.493022    1.552784    1.189046
      7          6           0       -0.240948    2.640448    0.716544
      8          6           0       -1.439686    2.424197    0.050970
      9          6           0       -1.915556    1.124223   -0.141558
     10          8           0       -3.119010    1.040306   -0.795026
     11          6           0        0.873574   -0.910002    1.512439
     12          6           0        1.702263   -1.593583    0.392128
     13          6           0        2.668503   -0.654234   -0.256671
     14          6           0        4.000159   -0.823584   -0.258248
     15          6           0        4.894249    0.103294   -0.875001
     16          7           0        5.635918    0.850805   -1.371007
     17          1           0       -2.770747   -0.406625   -2.241665
     18          1           0       -4.462779   -0.032540   -1.823241
     19          1           0       -4.124590   -1.100644    0.424064
     20          1           0       -3.807807   -2.263913   -0.885171
     21          1           0        1.436053    1.713356    1.703863
     22          1           0        0.124651    3.652332    0.861235
     23          1           0       -2.034574    3.243277   -0.339639
     24          1           0        1.560748   -0.549152    2.284851
     25          1           0        0.237753   -1.671335    1.980030
     26          1           0        2.235355   -2.454527    0.811798
     27          1           0        1.011983   -1.979787   -0.369817
     28          1           0        2.247942    0.226969   -0.736449
     29          1           0        4.457231   -1.688673    0.217746
 ---------------------------------------------------------------------

 SCF Done:  E(UB3LYP) =  -1031.59819629     A.U. after   32 cycles

 The electronic state is 2-A.
 Alpha  occ. eigenvalues --  -88.76155 -19.06191 -14.17498 -10.14318 -10.14206
 Alpha  occ. eigenvalues --  -10.11501 -10.11468 -10.09310 -10.08231 -10.08065
 Alpha  occ. eigenvalues --  -10.07993 -10.07830 -10.07444 -10.07434 -10.06862
 Alpha  occ. eigenvalues --  -10.05670  -7.84782  -5.81163  -5.80797  -5.80166
 Alpha  occ. eigenvalues --   -0.98063  -0.77654  -0.77488  -0.73010  -0.71045
 Alpha  occ. eigenvalues --   -0.67646  -0.67269  -0.62761  -0.58825  -0.56487
 Alpha  occ. eigenvalues --   -0.55347  -0.50031  -0.47768  -0.46744  -0.43414
 Alpha  occ. eigenvalues --   -0.40888  -0.40676  -0.40210  -0.37094  -0.35858
 Alpha  occ. eigenvalues --   -0.35181  -0.33538  -0.32893  -0.32408  -0.30916
 Alpha  occ. eigenvalues --   -0.30391  -0.28793  -0.27856  -0.27553  -0.25898
 Alpha  occ. eigenvalues --   -0.25473  -0.24834  -0.24453  -0.23595  -0.23004
 Alpha  occ. eigenvalues --   -0.21257  -0.20600  -0.19408  -0.15117  -0.13981
 Alpha  occ. eigenvalues --   -0.11793   0.03834
 Alpha virt. eigenvalues --    0.05242   0.07191   0.07432   0.07766   0.08277
 Alpha virt. eigenvalues --    0.08645   0.08834   0.09477   0.09896   0.10598
 Alpha virt. eigenvalues --    0.11166   0.11918   0.12476   0.12704   0.13226

  Beta  occ. eigenvalues --  -88.76151 -19.06192 -14.17317 -10.14265 -10.14175
  Beta  occ. eigenvalues --  -10.11468 -10.11463 -10.09309 -10.08213 -10.08032
  Beta  occ. eigenvalues --  -10.07999 -10.07813 -10.07473 -10.07404 -10.06759
  Beta  occ. eigenvalues --  -10.05275  -7.84777  -5.81157  -5.80789  -5.80164
  Beta  occ. eigenvalues --   -0.98042  -0.77489  -0.77332  -0.72964  -0.70762
  Beta  occ. eigenvalues --   -0.67581  -0.66985  -0.62616  -0.58779  -0.56356
  Beta  occ. eigenvalues --   -0.55163  -0.49815  -0.47690  -0.46379  -0.43377
  Beta  occ. eigenvalues --   -0.40832  -0.40480  -0.40177  -0.37034  -0.35776
  Beta  occ. eigenvalues --   -0.35114  -0.33373  -0.32837  -0.32360  -0.30760
  Beta  occ. eigenvalues --   -0.30296  -0.28634  -0.27754  -0.27458  -0.25794
  Beta  occ. eigenvalues --   -0.25375  -0.24643  -0.23691  -0.23354  -0.22893
  Beta  occ. eigenvalues --   -0.21197  -0.20479  -0.19350  -0.14157  -0.13327
  Beta  occ. eigenvalues --   -0.11686
  Beta virt. eigenvalues --    0.06468   0.07207   0.07474   0.07804   0.08342
  Beta virt. eigenvalues --    0.08727   0.09057   0.09360   0.09554   0.09982
  Beta virt. eigenvalues --    0.10803   0.11303   0.11999   0.12419   0.12819

 Mulliken charges and spin densities:
               1          2
     1  C    0.071801  -0.388509
     2  C    0.195215  -0.515037
     3  S    0.214021  -0.842289
     4  C   -0.113872   1.069713
     5  C    1.013128   0.040146
     6  C   -0.807017   0.157734
     7  C   -0.313669  -0.168421
     8  C    0.659401  -0.754883
     9  C   -0.554139  -0.150694
    10  O   -0.127266   0.053349
    11  C   -0.028369  -0.198569
    12  C   -0.237905   0.022751
    13  C   -0.232187   0.318966
    14  C    0.550872   0.086431
    15  C   -0.877436  -0.007855
    16  N   -0.346386   0.095921
    17  H    0.199058  -0.026806
    18  H   -0.677936   0.878313
    19  H    0.111893   0.107327
    20  H   -0.763295   0.991420
    21  H    0.103301   0.032559
    22  H    0.166468  -0.010161
    23  H    0.122973   0.044118
    24  H    0.176223  -0.026142
    25  H    0.056754   0.101004
    26  H    0.118830   0.003409
    27  H    0.036493   0.109272
    28  H    0.142978  -0.016835
    29  H    0.140072  -0.006232
 Sum of Mulliken charges =  -1.00000   1.00000

 Dipole moment (field-independent basis, Debye):
    X=             -2.5688    Y=              0.8621    Z=              4.7475  Tot=              5.4664
 Quadrupole moment (field-independent basis, Debye-Ang):
   XX=           -221.3044   YY=           -127.3113   ZZ=           -125.1135
   XY=            -21.0133   XZ=              7.8246   YZ=             -2.0383

 Summary of Natural Population Analysis:

                                       Natural Population
                Natural  -----------------------------------------------
    Atom  No    Charge         Core      Valence    Rydberg      Total
 -----------------------------------------------------------------------
      C    1   -0.01373      0.99956     2.00025    0.01393     3.01373
      C    2   -0.26297      0.99960     2.25265    0.01072     3.26297
      S    3    0.12856      4.99957     2.85257    0.01930     7.87144
      C    4   -0.11505      0.99932     2.10546    0.01027     3.11505
      C    5   -0.01908      0.99948     2.00816    0.01144     3.01908
      C    6   -0.09923      0.99946     2.09196    0.00781     3.09923
      C    7   -0.09976      0.99958     2.09043    0.00975     3.09976
      C    8   -0.12128      0.99952     2.11301    0.00875     3.12128
      C    9    0.15319      0.99931     1.83316    0.01433     2.84681
      O   10   -0.27938      0.99986     3.27023    0.00929     4.27938
      C   11   -0.19390      0.99959     2.18537    0.00894     3.19390
      C   12   -0.20863      0.99961     2.19963    0.00939     3.20863
      C   13    0.02719      0.99954     1.96486    0.00840     2.97281
      C   14   -0.17412      0.99943     2.16652    0.00817     3.17412
      C   15    0.14435      0.99966     1.83811    0.01788     2.85565
      N   16   -0.18453      0.99979     2.67388    0.01085     3.68453
      H   17    0.08711      0.00000     0.41156    0.00133     0.41289
      H   18    0.09860      0.00000     0.39901    0.00239     0.40140
      H   19    0.10431      0.00000     0.39403    0.00165     0.39569
      H   20    0.11620      0.00000     0.37997    0.00383     0.38380
      H   21    0.10206      0.00000     0.39706    0.00088     0.39794
      H   22    0.09843      0.00000     0.40079    0.00078     0.40157
      H   23    0.10511      0.00000     0.39395    0.00095     0.39489
      H   24    0.10032      0.00000     0.39864    0.00104     0.39968
      H   25    0.10609      0.00000     0.39247    0.00144     0.39391
      H   26    0.09589      0.00000     0.40308    0.00103     0.40411
      H   27    0.10987      0.00000     0.38862    0.00150     0.39013
      H   28    0.09294      0.00000     0.40556    0.00150     0.40706
      H   29    0.10144      0.00000     0.39747    0.00108     0.39856
 =======================================================================
   * Total *    0.00000     19.99287    40.80848    0.19864    61.00000

 Normal termination of Gaussian 16 at Thu Dec 10 21:57:10 2020.
