 Gaussian 16, Revision A.03,

 -----------------------------------------------------------
 # opt freq B3LYP/6-31G(d) empiricaldispersion=gd3bj scf=xqc
 -----------------------------------------------------------

 ------------------------------
 CID_11252484_JID_4266_neutraal
 ------------------------------
 Symbolic Z-matrix:
 Charge =  0 Multiplicity = 1

 SCF Done:  E(RB3LYP) =  -647.128945912     A.U. after   15 cycles
 SCF Done:  E(RB3LYP) =  -647.137453578     A.U. after   13 cycles
 SCF Done:  E(RB3LYP) =  -647.138118607     A.U. after   12 cycles
 SCF Done:  E(RB3LYP) =  -647.138239767     A.U. after   11 cycles
 SCF Done:  E(RB3LYP) =  -647.138276872     A.U. after   11 cycles
 SCF Done:  E(RB3LYP) =  -647.138308040     A.U. after   10 cycles
 SCF Done:  E(RB3LYP) =  -647.138321547     A.U. after   10 cycles
 SCF Done:  E(RB3LYP) =  -647.138324523     A.U. after    9 cycles
 SCF Done:  E(RB3LYP) =  -647.138326661     A.U. after    8 cycles
 SCF Done:  E(RB3LYP) =  -647.138328498     A.U. after    8 cycles
 SCF Done:  E(RB3LYP) =  -647.138350982     A.U. after   10 cycles
 SCF Done:  E(RB3LYP) =  -647.138361237     A.U. after    9 cycles
 SCF Done:  E(RB3LYP) =  -647.138368296     A.U. after   10 cycles
 SCF Done:  E(RB3LYP) =  -647.138369492     A.U. after    8 cycles
 SCF Done:  E(RB3LYP) =  -647.138370067     A.U. after    8 cycles
 SCF Done:  E(RB3LYP) =  -647.138370122     A.U. after    7 cycles
 Optimization completed.
    -- Stationary point found.
 Normal termination of Gaussian 16 at Thu Dec 10 09:23:27 2020.

 --------------------------------------------------------------------
 #N Geom=AllCheck Guess=TCheck SCRF=Check GenChk RB3LYP/6-31G(d) Freq
 --------------------------------------------------------------------

 Structure from the checkpoint file:  "JID_4266.chk"
 ------------------------------
 CID_11252484_JID_4266_neutraal
 ------------------------------
 Charge =  0 Multiplicity = 1

 SCF Done:  E(RB3LYP) =  -647.138370122     A.U. after    1 cycles

  Exact polarizability: 175.912   3.883 141.766   0.704  -0.137  53.864
 Approx polarizability: 257.032  17.981 270.713   0.905  -1.412  82.933

                      1                      2                      3
                      A                      A                      A
 Frequencies --     57.3738                86.5912               113.3023
 Red. masses --      1.0197                 3.3766                 5.9421
 Frc consts  --      0.0020                 0.0149                 0.0449
 IR Inten    --      0.0077                 1.9702                 0.0810

                      4                      5                      6
                      A                      A                      A
 Frequencies --    148.3699               172.2484               186.1916
 Red. masses --      4.5187                 6.0581                 1.0796
 Frc consts  --      0.0586                 0.1059                 0.0221
 IR Inten    --      6.4890                 0.5696                 3.4101

                      7                      8                      9
                      A                      A                      A
 Frequencies --    194.8992               240.8269               272.8703
 Red. masses --      4.3331                 4.5975                 3.5860
 Frc consts  --      0.0970                 0.1571                 0.1573
 IR Inten    --      0.5638                 1.9781                 3.2537

                     10                     11                     12
                      A                      A                      A
 Frequencies --    300.7372               309.7771               336.9642
 Red. masses --      3.3695                 3.0790                 7.5693
 Frc consts  --      0.1795                 0.1741                 0.5064
 IR Inten    --      4.3084                 4.1295                11.8542

                     13                     14                     15
                      A                      A                      A
 Frequencies --    382.4993               406.9127               446.2975
 Red. masses --      1.2185                 5.3922                 5.1410
 Frc consts  --      0.1050                 0.5260                 0.6033
 IR Inten    --    189.4393                 2.3708                19.2656

                     16                     17                     18
                      A                      A                      A
 Frequencies --    478.1307               546.7847               569.6682
 Red. masses --      4.1888                 4.1262                 3.8068
 Frc consts  --      0.5642                 0.7268                 0.7279
 IR Inten    --     13.6222                17.3426                 9.9856

                     19                     20                     21
                      A                      A                      A
 Frequencies --    590.2384               612.5863               657.1893
 Red. masses --      6.3045                 1.2971                 7.6701
 Frc consts  --      1.2941                 0.2868                 1.9518
 IR Inten    --     16.7979               106.2012                 1.1896

                     22                     23                     24
                      A                      A                      A
 Frequencies --    693.7682               708.7997               747.5557
 Red. masses --      5.8948                 6.9409                 5.5475
 Frc consts  --      1.6717                 2.0545                 1.8266
 IR Inten    --      1.1305                 0.3159                45.2546

                     25                     26                     27
                      A                      A                      A
 Frequencies --    772.7379               787.7430               840.1419
 Red. masses --      8.2680                 5.0116                 1.4094
 Frc consts  --      2.9088                 1.8323                 0.5861
 IR Inten    --      2.3635                 4.9135                11.6614

                     28                     29                     30
                      A                      A                      A
 Frequencies --    884.3815               949.5637               975.0137
 Red. masses --      4.7397                 1.3123                 2.3624
 Frc consts  --      2.1841                 0.6971                 1.3232
 IR Inten    --      2.3708                 0.1266                 0.4054

                     31                     32                     33
                      A                      A                      A
 Frequencies --   1016.7376              1031.2289              1073.5488
 Red. masses --      2.1510                 2.9006                 2.2563
 Frc consts  --      1.3101                 1.8174                 1.5321
 IR Inten    --     37.8372                73.3142                54.4682

                     34                     35                     36
                      A                      A                      A
 Frequencies --   1074.5147              1167.7501              1169.0424
 Red. masses --      1.5399                 1.2916                 1.5506
 Frc consts  --      1.0475                 1.0377                 1.2486
 IR Inten    --      7.0432                 0.3319                 1.3067

                     37                     38                     39
                      A                      A                      A
 Frequencies --   1201.4503              1243.5715              1281.9647
 Red. masses --      2.0042                 4.1003                 2.7170
 Frc consts  --      1.7045                 3.7360                 2.6308
 IR Inten    --      5.4207                57.1801                39.3301

                     40                     41                     42
                      A                      A                      A
 Frequencies --   1305.4521              1349.5081              1416.2178
 Red. masses --      1.9303                 3.1620                 6.7766
 Frc consts  --      1.9382                 3.3928                 8.0080
 IR Inten    --      5.8666                16.4516               212.0858

                     43                     44                     45
                      A                      A                      A
 Frequencies --   1432.7054              1442.9763              1476.3397
 Red. masses --      3.1017                 1.3202                 1.7779
 Frc consts  --      3.7512                 1.6196                 2.2831
 IR Inten    --     90.7306                 8.8760                41.1374

                     46                     47                     48
                      A                      A                      A
 Frequencies --   1488.1265              1512.4876              1517.4289
 Red. masses --      2.5212                 1.0443                 1.0428
 Frc consts  --      3.2895                 1.4075                 1.4147
 IR Inten    --    112.7205                 8.2649                 7.6362

                     49                     50                     51
                      A                      A                      A
 Frequencies --   1530.6135              1537.9054              1538.4461
 Red. masses --      1.3329                 1.9564                 1.2057
 Frc consts  --      1.8398                 2.7263                 1.6813
 IR Inten    --      8.2920                26.2603                32.0170

                     52                     53                     54
                      A                      A                      A
 Frequencies --   1649.1923              1665.3904              1700.3716
 Red. masses --      2.6297                 3.8434                 2.2647
 Frc consts  --      4.2141                 6.2806                 3.8579
 IR Inten    --     78.0087                 2.1885               195.9788

                     55                     56                     57
                      A                      A                      A
 Frequencies --   1782.1981              1841.6620              3024.6507
 Red. masses --      9.9437                12.0200                 1.0439
 Frc consts  --     18.6085                24.0200                 5.6268
 IR Inten    --    486.4430               167.2776                33.0425

                     58                     59                     60
                      A                      A                      A
 Frequencies --   3071.1892              3073.9249              3133.6431
 Red. masses --      1.0330                 1.0962                 1.1060
 Frc consts  --      5.7406                 6.1028                 6.3990
 IR Inten    --     44.4931                19.6009                17.1762

                     61                     62                     63
                      A                      A                      A
 Frequencies --   3137.1196              3176.6794              3187.0619
 Red. masses --      1.0978                 1.1034                 1.0892
 Frc consts  --      6.3653                 6.5603                 6.5184
 IR Inten    --     11.8909                 1.4500                17.7842

                     64                     65                     66
                      A                      A                      A
 Frequencies --   3228.3850              3548.3811              3683.6737
 Red. masses --      1.0932                 1.0506                 1.0981
 Frc consts  --      6.7129                 7.7936                 8.7789
 IR Inten    --      4.0125                50.7930                38.9099

 - Thermochemistry -
 -------------------
 Temperature   298.150 Kelvin.  Pressure   1.00000 Atm.
 Atom     1 has atomic number  6 and mass  12.00000

 Molecular mass:   190.07423 amu.
 Principal axes and moments of inertia in atomic units:
                           1         2         3
     Eigenvalues --  1399.889603189.956324565.81392
           X            0.99993  -0.01173   0.00094
           Y            0.01173   0.99993   0.00184
           Z           -0.00096  -0.00183   1.00000
 This molecule is an asymmetric top.
 Rotational symmetry number  1.
 Warning -- assumption of classical behavior for rotation
           may cause significant error
 Rotational temperatures (Kelvin)      0.06187     0.02715     0.01897
 Rotational constants (GHZ):           1.28920     0.56576     0.39527
 Zero-point vibrational energy     497537.1 (Joules/Mol)
                                  118.91422 (Kcal/Mol)
 Warning -- explicit consideration of  20 degrees of freedom as
           vibrations may cause significant error
 Vibrational temperatures:     82.55   124.59   163.02   213.47   247.83
          (Kelvin)            267.89   280.42   346.50   392.60   432.69
                              445.70   484.82   550.33   585.46   642.12
                              687.92   786.70   819.63   849.22   881.38
                              945.55   998.18  1019.80  1075.57  1111.80
                             1133.39  1208.78  1272.43  1366.21  1402.83
                             1462.86  1483.71  1544.60  1545.99  1680.13
                             1681.99  1728.62  1789.22  1844.46  1878.25
                             1941.64  2037.62  2061.34  2076.12  2124.12
                             2141.08  2176.13  2183.24  2202.21  2212.70
                             2213.48  2372.82  2396.13  2446.46  2564.19
                             2649.74  4351.80  4418.76  4422.69  4508.61
                             4513.62  4570.53  4585.47  4644.93  5105.33
                             5299.98

 Zero-point correction=                           0.189502 (Hartree/Particle)
 Thermal correction to Energy=                    0.202125
 Thermal correction to Enthalpy=                  0.203069
 Thermal correction to Gibbs Free Energy=         0.150897
 Sum of electronic and zero-point Energies=           -646.948868
 Sum of electronic and thermal Energies=              -646.936245
 Sum of electronic and thermal Enthalpies=            -646.935301
 Sum of electronic and thermal Free Energies=         -646.987473

                     E (Thermal)             CV                S
                      KCal/Mol        Cal/Mol-Kelvin    Cal/Mol-Kelvin
 Total                  126.835             47.838            109.804
 Electronic               0.000              0.000              0.000
 Translational            0.889              2.981             41.632
 Rotational               0.889              2.981             31.389
 Vibrational            125.058             41.876             36.782
 Vibration     1          0.596              1.975              4.546
 Vibration     2          0.601              1.959              3.736
 Vibration     3          0.607              1.938              3.212
 Vibration     4          0.618              1.904              2.693
 Vibration     5          0.626              1.877              2.411
 Vibration     6          0.632              1.859              2.265
 Vibration     7          0.636              1.847              2.181
 Vibration     8          0.658              1.778              1.797
 Vibration     9          0.676              1.723              1.578
 Vibration    10          0.693              1.672              1.413
 Vibration    11          0.699              1.655              1.364
 Vibration    12          0.718              1.602              1.226
 Vibration    13          0.752              1.508              1.029
 Vibration    14          0.772              1.455              0.938
 Vibration    15          0.806              1.369              0.807
 Vibration    16          0.835              1.299              0.715
 Vibration    17          0.902              1.147              0.551
 Vibration    18          0.926              1.097              0.505
 Vibration    19          0.948              1.053              0.467
 Vibration    20          0.972              1.005              0.429

 Optimization completed.
    -- Stationary point found.
 Normal termination of Gaussian 16 at Thu Dec 10 09:29:42 2020.

 ----------------------------------------------------------------------
 # B3LYP/6-311++G(d,p) empiricaldispersion=gd3bj scf=xqc pop=npa geom=c
 heck
 ----------------------------------------------------------------------

 --------------------------------------
 CID_11252484_JID_4266_Energie_neutraal
 --------------------------------------
 Structure from the checkpoint file:  "JID_4266.chk"
 Charge =  0 Multiplicity = 1

 SCF Done:  E(RB3LYP) =  -647.320774573     A.U. after   15 cycles
 Normal termination of Gaussian 16 at Thu Dec 10 09:32:20 2020.

 ----------------------------------------------------------------------
 # B3LYP/6-311++G(d,p) empiricaldispersion=gd3bj scf=xqc pop=npa geom=c
 heck
 ----------------------------------------------------------------------

 ------------------------------------
 CID_11252484_JID_4266_Energie_kation
 ------------------------------------
 Structure from the checkpoint file:  "JID_4266.chk"
 Charge =  1 Multiplicity = 2

 SCF Done:  E(UB3LYP) =  -647.021637138     A.U. after   24 cycles
 Normal termination of Gaussian 16 at Thu Dec 10 09:38:20 2020.
 Gaussian 16:  ES64L-G16RevA.03 25-Dec-2016

 ----------------------------------------------------------------------
 # B3LYP/6-311++G(d,p) empiricaldispersion=gd3bj scf=xqc pop=npa geom=c
 heck
 ----------------------------------------------------------------------

 -----------------------------------
 CID_11252484_JID_4266_Energie_anion
 -----------------------------------
 Structure from the checkpoint file:  "JID_4266.chk"
 Charge = -1 Multiplicity = 2

                         Standard orientation:
 ---------------------------------------------------------------------
 Center     Atomic      Atomic             Coordinates (Angstroms)
 Number     Number       Type             X           Y           Z
 ---------------------------------------------------------------------
      1          6           0        3.900371    0.034108    0.011646
      2          6           0        2.441535   -0.337323    0.008939
      3          6           0        1.461173    0.697866   -0.014645
      4          6           0        0.123103    0.297297   -0.021437
      5          6           0       -0.256193   -1.047950   -0.015785
      6          6           0        0.679932   -2.061965    0.003009
      7          6           0        2.031391   -1.670662    0.017236
      8          6           0       -1.748824   -1.096582   -0.009839
      9          8           0       -2.493833   -2.056245   -0.005647
     10          7           0       -2.171375    0.244536   -0.002971
     11          6           0       -1.087998    1.134329   -0.001155
     12          8           0       -1.172045    2.355813    0.024226
     13          6           0       -3.562419    0.647554    0.016541
     14          7           0        1.797384    2.027257   -0.081275
     15          1           0        4.175044    0.601984    0.912500
     16          1           0        4.152041    0.661449   -0.853577
     17          1           0        4.535171   -0.855141   -0.019216
     18          1           0        0.387772   -3.106108    0.009320
     19          1           0        2.801270   -2.438022    0.032637
     20          1           0       -4.078410    0.283900   -0.876915
     21          1           0       -4.064375    0.241739    0.899666
     22          1           0       -3.587641    1.737934    0.041985
     23          1           0        1.032704    2.678691    0.058917
     24          1           0        2.698965    2.314464    0.268705
 ---------------------------------------------------------------------

 SCF Done:  E(UB3LYP) =  -647.345566652     A.U. after   22 cycles

 The electronic state is 2-A.
 Alpha  occ. eigenvalues --  -18.93614 -18.93044 -14.19587 -14.19155 -10.10308
 Alpha  occ. eigenvalues --  -10.09919 -10.07640 -10.07333 -10.05583 -10.03150
 Alpha  occ. eigenvalues --  -10.02772 -10.02306 -10.01130 -10.00942  -0.89614
 Alpha  occ. eigenvalues --   -0.87605  -0.79444  -0.78990  -0.70296  -0.65398
 Alpha  occ. eigenvalues --   -0.60959  -0.58059  -0.54646  -0.49784  -0.46990
 Alpha  occ. eigenvalues --   -0.45162  -0.41198  -0.39127  -0.35842  -0.33512
 Alpha  occ. eigenvalues --   -0.33335  -0.32414  -0.31226  -0.30859  -0.30083
 Alpha  occ. eigenvalues --   -0.27835  -0.27269  -0.26488  -0.26085  -0.25769
 Alpha  occ. eigenvalues --   -0.23634  -0.22760  -0.22133  -0.21813  -0.17802
 Alpha  occ. eigenvalues --   -0.12918  -0.12379  -0.10129  -0.09998  -0.07597
 Alpha  occ. eigenvalues --    0.03707
 Alpha virt. eigenvalues --    0.07722   0.09665   0.09725   0.11103   0.11720
 Alpha virt. eigenvalues --    0.12528   0.12836   0.13382   0.13877   0.14443
 Alpha virt. eigenvalues --    0.14661   0.16426   0.16836   0.17282   0.17893

  Beta  occ. eigenvalues --  -18.93190 -18.92606 -14.19695 -14.19166 -10.10047
  Beta  occ. eigenvalues --  -10.09686 -10.07676 -10.07330 -10.05598 -10.02951
  Beta  occ. eigenvalues --  -10.02650 -10.02337 -10.00897 -10.00786  -0.89002
  Beta  occ. eigenvalues --   -0.86839  -0.79391  -0.78730  -0.70026  -0.65046
  Beta  occ. eigenvalues --   -0.60771  -0.57885  -0.54410  -0.49000  -0.46839
  Beta  occ. eigenvalues --   -0.44930  -0.41056  -0.38960  -0.35595  -0.33367
  Beta  occ. eigenvalues --   -0.32944  -0.32231  -0.30921  -0.30606  -0.29921
  Beta  occ. eigenvalues --   -0.27624  -0.26329  -0.26203  -0.25984  -0.25417
  Beta  occ. eigenvalues --   -0.22699  -0.21967  -0.21634  -0.20995  -0.17141
  Beta  occ. eigenvalues --   -0.11988  -0.11179  -0.09583  -0.09146  -0.06812
  Beta virt. eigenvalues --    0.07678   0.09641   0.09686   0.09970   0.11071
  Beta virt. eigenvalues --    0.11856   0.12780   0.12957   0.13514   0.13869
  Beta virt. eigenvalues --    0.14391   0.14658   0.16656   0.16869   0.17508

 Mulliken charges and spin densities:
               1          2
     1  C   -0.592766  -0.007951
     2  C    0.918515   0.092690
     3  C   -0.742126  -0.037490
     4  C    0.767940   0.136371
     5  C    0.696316   0.157452
     6  C   -0.855494   0.018085
     7  C   -0.729963   0.123947
     8  C   -0.182615   0.129451
     9  O   -0.453556   0.154390
    10  N   -0.008251  -0.067619
    11  C   -0.277598   0.140557
    12  O   -0.478011   0.145212
    13  C   -0.293319   0.001520
    14  N   -0.338062   0.004212
    15  H    0.115356   0.013851
    16  H    0.136907   0.009446
    17  H    0.133448  -0.000128
    18  H    0.134281   0.001356
    19  H    0.065306  -0.008811
    20  H    0.152275  -0.001594
    21  H    0.153838  -0.001686
    22  H    0.165891  -0.001280
    23  H    0.291009  -0.001361
    24  H    0.220679  -0.000619
 Sum of Mulliken charges =  -1.00000   1.00000

 Dipole moment (field-independent basis, Debye):
    X=              3.6140    Y=              2.0080    Z=              0.6214  Tot=              4.1808
 Quadrupole moment (field-independent basis, Debye-Ang):
   XX=           -103.3308   YY=           -108.6138   ZZ=            -89.3478
   XY=             -3.7526   XZ=              1.5384   YZ=              1.7135

 Summary of Natural Population Analysis:

                                       Natural Population
                Natural  -----------------------------------------------
    Atom  No    Charge         Core      Valence    Rydberg      Total
 -----------------------------------------------------------------------
      C    1   -0.29500      0.99965     2.29057    0.00478     3.29500
      C    2   -0.01833      0.99952     2.01018    0.00864     3.01833
      C    3    0.09755      0.99934     1.89177    0.01133     2.90245
      C    4   -0.05634      0.99942     2.04872    0.00820     3.05634
      C    5   -0.00147      0.99944     1.99384    0.00818     3.00147
      C    6   -0.11632      0.99953     2.10708    0.00971     3.11632
      C    7   -0.07412      0.99955     2.06587    0.00870     3.07412
      C    8    0.37356      0.99963     1.60489    0.02192     2.62644
      O    9   -0.27379      0.99987     3.26798    0.00594     4.27379
      N   10   -0.28107      0.99962     2.77214    0.00932     3.78107
      C   11    0.37925      0.99961     1.60005    0.02109     2.62075
      O   12   -0.29662      0.99987     3.29060    0.00615     4.29662
      C   13   -0.17799      0.99966     2.17056    0.00777     3.17799
      N   14   -0.40353      0.99968     2.89440    0.00944     3.90353
      H   15    0.09251      0.00000     0.40603    0.00146     0.40749
      H   16    0.09764      0.00000     0.40088    0.00148     0.40236
      H   17    0.09821      0.00000     0.40091    0.00088     0.40179
      H   18    0.09852      0.00000     0.39959    0.00189     0.40148
      H   19    0.08546      0.00000     0.41351    0.00103     0.41454
      H   20    0.09123      0.00000     0.40754    0.00124     0.40877
      H   21    0.09162      0.00000     0.40713    0.00125     0.40838
      H   22    0.10469      0.00000     0.39409    0.00121     0.39531
      H   23    0.20430      0.00000     0.29391    0.00179     0.29570
      H   24    0.18008      0.00000     0.31840    0.00152     0.31992
 =======================================================================
   * Total *    0.00003     13.99441    35.85063    0.15493    49.99997

 Normal termination of Gaussian 16 at Thu Dec 10 09:43:44 2020.
