 Gaussian 16, Revision A.03,

 -----------------------------------------------------------
 # opt freq B3LYP/6-31G(d) empiricaldispersion=gd3bj scf=xqc
 -----------------------------------------------------------

 ------------------------------
 CID_43090267_JID_1972_neutraal
 ------------------------------
 Symbolic Z-matrix:
 Charge =  0 Multiplicity = 1

 SCF Done:  E(RB3LYP) =  -556.210644133     A.U. after   14 cycles
 SCF Done:  E(RB3LYP) =  -556.214686300     A.U. after   12 cycles
 SCF Done:  E(RB3LYP) =  -556.215467467     A.U. after   13 cycles
 SCF Done:  E(RB3LYP) =  -556.215711308     A.U. after   14 cycles
 SCF Done:  E(RB3LYP) =  -556.216165667     A.U. after   12 cycles
 SCF Done:  E(RB3LYP) =  -556.216481843     A.U. after   11 cycles
 SCF Done:  E(RB3LYP) =  -556.216832107     A.U. after   11 cycles
 SCF Done:  E(RB3LYP) =  -556.217124700     A.U. after   12 cycles
 SCF Done:  E(RB3LYP) =  -556.217323607     A.U. after   12 cycles
 SCF Done:  E(RB3LYP) =  -556.217485704     A.U. after   11 cycles
 SCF Done:  E(RB3LYP) =  -556.217674230     A.U. after   10 cycles
 SCF Done:  E(RB3LYP) =  -556.217681080     A.U. after   11 cycles
 SCF Done:  E(RB3LYP) =  -556.217682294     A.U. after    9 cycles
 SCF Done:  E(RB3LYP) =  -556.217683256     A.U. after    9 cycles
 SCF Done:  E(RB3LYP) =  -556.217683202     A.U. after    8 cycles
 SCF Done:  E(RB3LYP) =  -556.217683420     A.U. after    8 cycles
 Optimization completed.
    -- Stationary point found.
 Normal termination of Gaussian 16 at Tue Dec  8 21:23:27 2020.

 --------------------------------------------------------------------
 #N Geom=AllCheck Guess=TCheck SCRF=Check GenChk RB3LYP/6-31G(d) Freq
 --------------------------------------------------------------------

 Structure from the checkpoint file:  "JID_1972.chk"
 ------------------------------
 CID_43090267_JID_1972_neutraal
 ------------------------------
 Charge =  0 Multiplicity = 1

 SCF Done:  E(RB3LYP) =  -556.217683420     A.U. after    1 cycles

  Exact polarizability: 101.867   2.991  94.181  -4.127   0.884  74.433
 Approx polarizability: 126.693  -1.905 122.472  -9.079   3.508 115.360

                      1                      2                      3
                      A                      A                      A
 Frequencies --     25.4829                43.7403                65.3173
 Red. masses --      5.0742                 2.8754                 5.5366
 Frc consts  --      0.0019                 0.0032                 0.0139
 IR Inten    --      0.5470                 1.4699                 0.5854

                      4                      5                      6
                      A                      A                      A
 Frequencies --     86.7942               105.6917               135.2742
 Red. masses --      3.3701                 2.2338                 1.1608
 Frc consts  --      0.0150                 0.0147                 0.0125
 IR Inten    --      0.5366                 8.7367                 1.4220

                      7                      8                      9
                      A                      A                      A
 Frequencies --    166.1181               183.7077               202.9185
 Red. masses --      2.3862                 3.6120                 1.8692
 Frc consts  --      0.0388                 0.0718                 0.0453
 IR Inten    --      3.6794                 3.8215                 1.9279

                     10                     11                     12
                      A                      A                      A
 Frequencies --    250.6246               262.8333               303.5604
 Red. masses --      1.7103                 2.7291                 2.2837
 Frc consts  --      0.0633                 0.1111                 0.1240
 IR Inten    --      4.3095                 0.4711                20.2695

                     13                     14                     15
                      A                      A                      A
 Frequencies --    333.6141               354.5838               397.8366
 Red. masses --      2.3682                 2.8741                 2.7802
 Frc consts  --      0.1553                 0.2129                 0.2593
 IR Inten    --      9.0765                11.0293                 2.5066

                     16                     17                     18
                      A                      A                      A
 Frequencies --    494.8893               551.5375               578.7734
 Red. masses --      2.7836                 3.2168                 2.9481
 Frc consts  --      0.4017                 0.5765                 0.5818
 IR Inten    --      0.8752                 2.5956                 5.5103

                     19                     20                     21
                      A                      A                      A
 Frequencies --    689.8431               784.2583               803.0995
 Red. masses --      2.8337                 2.1594                 1.5256
 Frc consts  --      0.7945                 0.7825                 0.5797
 IR Inten    --     18.9015                70.1027                26.3300

                     22                     23                     24
                      A                      A                      A
 Frequencies --    889.1787               906.9130               951.6202
 Red. masses --      3.1098                 2.9755                 2.2502
 Frc consts  --      1.4487                 1.4419                 1.2006
 IR Inten    --      2.8720                24.0785                 3.8377

                     25                     26                     27
                      A                      A                      A
 Frequencies --    963.1883              1017.8815              1042.6550
 Red. masses --      2.0125                 4.8546                 1.7990
 Frc consts  --      1.1000                 2.9634                 1.1523
 IR Inten    --      9.4548                33.0215                11.7101

                     28                     29                     30
                      A                      A                      A
 Frequencies --   1070.4287              1121.6335              1148.9630
 Red. masses --      2.4980                 2.2816                 2.1583
 Frc consts  --      1.6864                 1.6912                 1.6787
 IR Inten    --     10.1730                 4.3092                23.7070

                     31                     32                     33
                      A                      A                      A
 Frequencies --   1171.0672              1184.4772              1185.6523
 Red. masses --      3.1141                 3.0821                 1.3572
 Frc consts  --      2.5162                 2.5477                 1.1241
 IR Inten    --     82.9330                41.6277                 2.5874

                     34                     35                     36
                      A                      A                      A
 Frequencies --   1198.9896              1215.2485              1221.5491
 Red. masses --      1.3649                 1.5478                 1.3869
 Frc consts  --      1.1561                 1.3468                 1.2193
 IR Inten    --      6.8430                26.8877                15.9993

                     37                     38                     39
                      A                      A                      A
 Frequencies --   1238.1822              1264.6371              1272.9235
 Red. masses --      1.7140                 1.6993                 1.3942
 Frc consts  --      1.5483                 1.6012                 1.3310
 IR Inten    --    185.5538               183.1231                 6.7633

                     40                     41                     42
                      A                      A                      A
 Frequencies --   1295.0614              1344.9385              1380.2100
 Red. masses --      1.2527                 1.2099                 1.5133
 Frc consts  --      1.2379                 1.2894                 1.6985
 IR Inten    --     29.4204                 4.8978                22.5845

                     43                     44                     45
                      A                      A                      A
 Frequencies --   1396.0531              1423.9904              1444.3969
 Red. masses --      1.3934                 1.4452                 1.3068
 Frc consts  --      1.6000                 1.7267                 1.6063
 IR Inten    --      7.8178                 5.0901                26.1126

                     46                     47                     48
                      A                      A                      A
 Frequencies --   1489.2081              1493.0833              1500.5349
 Red. masses --      1.1230                 1.1721                 1.0980
 Frc consts  --      1.4674                 1.5395                 1.4566
 IR Inten    --     11.0854                 5.5813                 4.2819

                     49                     50                     51
                      A                      A                      A
 Frequencies --   1505.3014              1513.2842              1518.2805
 Red. masses --      1.1791                 1.0480                 1.0492
 Frc consts  --      1.5742                 1.4140                 1.4249
 IR Inten    --      1.7772                 5.8923                 4.9758

                     52                     53                     54
                      A                      A                      A
 Frequencies --   1524.4432              1531.6325              1539.4671
 Red. masses --      1.0473                 1.1213                 1.1316
 Frc consts  --      1.4340                 1.5498                 1.5801
 IR Inten    --      9.8292                 9.9219                15.8746

                     55                     56                     57
                      A                      A                      A
 Frequencies --   1549.9525              1555.2739              1814.6081
 Red. masses --      1.0764                 1.0920                10.8217
 Frc consts  --      1.5236                 1.5563                20.9948
 IR Inten    --     10.0009                 3.2293               224.3430

                     58                     59                     60
                      A                      A                      A
 Frequencies --   2978.8015              2994.6089              3007.9614
 Red. masses --      1.0573                 1.0502                 1.0654
 Frc consts  --      5.5273                 5.5486                 5.6795
 IR Inten    --     39.4803               117.4525                29.4435

                     61                     62                     63
                      A                      A                      A
 Frequencies --   3015.1480              3042.2339              3049.6071
 Red. masses --      1.0978                 1.0686                 1.0762
 Frc consts  --      5.8799                 5.8273                 5.8972
 IR Inten    --     50.4925                26.6202                24.2537

                     64                     65                     66
                      A                      A                      A
 Frequencies --   3062.2136              3063.1821              3076.8796
 Red. masses --      1.0928                 1.0837                 1.0296
 Frc consts  --      6.0375                 5.9912                 5.7429
 IR Inten    --     58.8536                52.7564                26.5107

                     67                     68                     69
                      A                      A                      A
 Frequencies --   3100.5236              3112.3454              3130.2064
 Red. masses --      1.1020                 1.0949                 1.0996
 Frc consts  --      6.2418                 6.2489                 6.3479
 IR Inten    --     31.1134                10.2984                34.9306

                     70                     71                     72
                      A                      A                      A
 Frequencies --   3151.9426              3185.4282              3498.9294
 Red. masses --      1.1076                 1.1072                 1.0727
 Frc consts  --      6.4830                 6.6193                 7.7371
 IR Inten    --     20.9580                18.3979                 1.2621

 - Thermochemistry -
 -------------------
 Temperature   298.150 Kelvin.  Pressure   1.00000 Atm.
 Atom     1 has atomic number  6 and mass  12.00000

 Molecular mass:   161.10519 amu.
 Principal axes and moments of inertia in atomic units:
                           1         2         3
     Eigenvalues --  1273.324582568.173333521.93299
           X            0.99988   0.01339  -0.00775
           Y           -0.01332   0.99987   0.00887
           Z            0.00787  -0.00877   0.99993
 This molecule is an asymmetric top.
 Rotational symmetry number  1.
 Warning -- assumption of classical behavior for rotation
           may cause significant error
 Rotational temperatures (Kelvin)      0.06802     0.03373     0.02459
 Rotational constants (GHZ):           1.41735     0.70273     0.51243
 Zero-point vibrational energy     599182.1 (Joules/Mol)
                                  143.20795 (Kcal/Mol)
 Warning -- explicit consideration of  18 degrees of freedom as
           vibrations may cause significant error
 Vibrational temperatures:     36.66    62.93    93.98   124.88   152.07
          (Kelvin)            194.63   239.01   264.31   291.95   360.59
                              378.16   436.76   480.00   510.17   572.40
                              712.04   793.54   832.73   992.53  1128.37
                             1155.48  1279.33  1304.85  1369.17  1385.81
                             1464.50  1500.15  1540.11  1613.78  1653.10
                             1684.90  1704.20  1705.89  1725.08  1748.47
                             1757.54  1781.47  1819.53  1831.45  1863.30
                             1935.07  1985.81  2008.61  2048.80  2078.16
                             2142.64  2148.21  2158.94  2165.79  2177.28
                             2184.47  2193.33  2203.68  2214.95  2230.04
                             2237.69  2610.82  4285.83  4308.57  4327.79
                             4338.13  4377.10  4387.70  4405.84  4407.24
                             4426.94  4460.96  4477.97  4503.67  4534.94
                             4583.12  5034.18

 Zero-point correction=                           0.228216 (Hartree/Particle)
 Thermal correction to Energy=                    0.241358
 Thermal correction to Enthalpy=                  0.242303
 Thermal correction to Gibbs Free Energy=         0.187036
 Sum of electronic and zero-point Energies=           -555.989467
 Sum of electronic and thermal Energies=              -555.976325
 Sum of electronic and thermal Enthalpies=            -555.975381
 Sum of electronic and thermal Free Energies=         -556.030647

                     E (Thermal)             CV                S
                      KCal/Mol        Cal/Mol-Kelvin    Cal/Mol-Kelvin
 Total                  151.455             45.361            116.318
 Electronic               0.000              0.000              0.000
 Translational            0.889              2.981             41.140
 Rotational               0.889              2.981             30.822
 Vibrational            149.677             39.400             44.357
 Vibration     1          0.593              1.985              6.153
 Vibration     2          0.595              1.980              5.082
 Vibration     3          0.597              1.971              4.290
 Vibration     4          0.601              1.958              3.731
 Vibration     5          0.605              1.945              3.347
 Vibration     6          0.613              1.918              2.870
 Vibration     7          0.624              1.884              2.479
 Vibration     8          0.631              1.862              2.290
 Vibration     9          0.639              1.836              2.106
 Vibration    10          0.663              1.762              1.726
 Vibration    11          0.670              1.741              1.643
 Vibration    12          0.695              1.667              1.397
 Vibration    13          0.715              1.608              1.243
 Vibration    14          0.730              1.566              1.146
 Vibration    15          0.764              1.475              0.971
 Vibration    16          0.850              1.261              0.671
 Vibration    17          0.907              1.136              0.541
 Vibration    18          0.935              1.077              0.488

                           ! Non-Optimized Parameters !
 Normal termination of Gaussian 16 at Tue Dec  8 21:30:27 2020.

 ----------------------------------------------------------------------
 # B3LYP/6-311++G(d,p) empiricaldispersion=gd3bj scf=xqc pop=npa geom=c
 heck
 ----------------------------------------------------------------------

 --------------------------------------
 CID_43090267_JID_1972_Energie_neutraal
 --------------------------------------
 Structure from the checkpoint file:  "JID_1972.chk"
 Charge =  0 Multiplicity = 1

 SCF Done:  E(RB3LYP) =  -556.389646913     A.U. after   13 cycles
 Normal termination of Gaussian 16 at Tue Dec  8 21:33:19 2020.

 ----------------------------------------------------------------------
 # B3LYP/6-311++G(d,p) empiricaldispersion=gd3bj scf=xqc pop=npa geom=c
 heck
 ----------------------------------------------------------------------

 ------------------------------------
 CID_43090267_JID_1972_Energie_kation
 ------------------------------------
 Structure from the checkpoint file:  "JID_1972.chk"
 Charge =  1 Multiplicity = 2

 SCF Done:  E(UB3LYP) =  -556.080341017     A.U. after   20 cycles
 Normal termination of Gaussian 16 at Tue Dec  8 21:38:39 2020.
 Gaussian 16:  ES64L-G16RevA.03 25-Dec-2016

 ----------------------------------------------------------------------
 # B3LYP/6-311++G(d,p) empiricaldispersion=gd3bj scf=xqc pop=npa geom=c
 heck
 ----------------------------------------------------------------------

 -----------------------------------
 CID_43090267_JID_1972_Energie_anion
 -----------------------------------
 Structure from the checkpoint file:  "JID_1972.chk"
 Charge = -1 Multiplicity = 2

                         Standard orientation:
 ---------------------------------------------------------------------
 Center     Atomic      Atomic             Coordinates (Angstroms)
 Number     Number       Type             X           Y           Z
 ---------------------------------------------------------------------
      1          6           0       -1.810085    2.446018    0.044183
      2          8           0       -2.101754    1.189531   -0.530629
      3          6           0       -2.439505    0.210561    0.434601
      4          6           0       -2.387526   -1.156431   -0.241859
      5          6           0       -0.977686   -1.526970   -0.703258
      6          7           0       -0.133853   -1.941307    0.429956
      7          6           0        1.273903   -1.703009    0.190719
      8          6           0        1.654862   -0.222617    0.242326
      9          8           0        1.001933    0.631428    0.806334
     10          8           0        2.829095    0.016158   -0.371526
     11          6           0        3.287102    1.378246   -0.315179
     12          1           0       -1.584598    3.129816   -0.779011
     13          1           0       -0.939329    2.384245    0.711675
     14          1           0       -2.668359    2.845475    0.609290
     15          1           0       -1.733897    0.260138    1.279087
     16          1           0       -3.447515    0.403190    0.839917
     17          1           0       -2.765014   -1.923525    0.446713
     18          1           0       -3.059037   -1.134917   -1.107672
     19          1           0       -1.022308   -2.360992   -1.415271
     20          1           0       -0.563429   -0.658537   -1.238686
     21          1           0       -0.396341   -1.396572    1.249380
     22          1           0        1.879193   -2.215961    0.951439
     23          1           0        1.572132   -2.121033   -0.775822
     24          1           0        2.562282    2.042661   -0.792374
     25          1           0        3.427811    1.691880    0.722490
     26          1           0        4.234773    1.391555   -0.853480
 ---------------------------------------------------------------------

 SCF Done:  E(UB3LYP) =  -556.372162382     A.U. after   31 cycles

 The electronic state is 2-A.
 Alpha  occ. eigenvalues --  -19.06911 -19.02366 -19.01427 -14.20319 -10.19924
 Alpha  occ. eigenvalues --  -10.11668 -10.11429 -10.10915 -10.10442 -10.09272
 Alpha  occ. eigenvalues --  -10.07526  -1.00882  -0.93695  -0.92243  -0.81542
 Alpha  occ. eigenvalues --   -0.68854  -0.64696  -0.60514  -0.56964  -0.54394
 Alpha  occ. eigenvalues --   -0.48851  -0.46548  -0.42314  -0.39847  -0.39701
 Alpha  occ. eigenvalues --   -0.39087  -0.37730  -0.36572  -0.35671  -0.34822
 Alpha  occ. eigenvalues --   -0.32936  -0.31616  -0.30236  -0.29395  -0.27825
 Alpha  occ. eigenvalues --   -0.26362  -0.26009  -0.25340  -0.24403  -0.22144
 Alpha  occ. eigenvalues --   -0.20890  -0.18774  -0.16221  -0.13718   0.04767
 Alpha virt. eigenvalues --    0.06619   0.07326   0.07967   0.08505   0.09308
 Alpha virt. eigenvalues --    0.09884   0.10214   0.10576   0.11025   0.11673
 Alpha virt. eigenvalues --    0.12716   0.13121   0.13418   0.14031   0.14962

  Beta  occ. eigenvalues --  -19.06902 -19.02359 -19.01414 -14.20311 -10.19916
  Beta  occ. eigenvalues --  -10.11654 -10.11362 -10.10896 -10.10417 -10.09263
  Beta  occ. eigenvalues --  -10.07517  -1.00859  -0.93683  -0.92220  -0.81527
  Beta  occ. eigenvalues --   -0.68828  -0.64637  -0.60465  -0.56901  -0.54342
  Beta  occ. eigenvalues --   -0.48813  -0.46483  -0.42293  -0.39807  -0.39656
  Beta  occ. eigenvalues --   -0.39055  -0.37692  -0.36543  -0.35641  -0.34782
  Beta  occ. eigenvalues --   -0.32899  -0.31573  -0.30202  -0.29365  -0.27798
  Beta  occ. eigenvalues --   -0.26326  -0.25962  -0.25316  -0.24372  -0.22105
  Beta  occ. eigenvalues --   -0.20857  -0.18758  -0.16204  -0.13703
  Beta virt. eigenvalues --    0.06855   0.07690   0.07892   0.08396   0.09200
  Beta virt. eigenvalues --    0.09687   0.10241   0.10873   0.10980   0.11255
  Beta virt. eigenvalues --    0.12239   0.13088   0.13295   0.13750   0.14200

 Mulliken charges and spin densities:
               1          2
     1  C    0.355655  -0.651287
     2  O   -0.139258   0.037947
     3  C   -0.134555  -0.141527
     4  C   -0.102669  -0.408271
     5  C    0.045808  -0.261172
     6  N   -0.085954   0.125151
     7  C    1.147984  -1.807650
     8  C   -0.689050   0.796498
     9  O   -0.300285   0.032488
    10  O   -0.173662   0.128220
    11  C    1.430568  -1.659295
    12  H   -0.200562   0.332491
    13  H    0.077835   0.102563
    14  H   -0.204948   0.316954
    15  H    0.054073   0.076370
    16  H   -0.306961   0.442081
    17  H    0.027412   0.128197
    18  H    0.078593   0.091743
    19  H    0.004408   0.158531
    20  H    0.130509   0.006099
    21  H    0.154346   0.045924
    22  H   -0.395410   0.609475
    23  H   -0.040101   0.248545
    24  H   -0.381498   0.560303
    25  H   -0.548080   0.727286
    26  H   -0.804198   0.962336
 Sum of Mulliken charges =  -1.00000   1.00000

 Dipole moment (field-independent basis, Debye):
    X=             -5.3083    Y=             -3.5935    Z=             -0.0907  Tot=              6.4109
 Quadrupole moment (field-independent basis, Debye-Ang):
   XX=           -143.0670   YY=           -115.3961   ZZ=            -97.0054
   XY=             -5.0200   XZ=              3.6136   YZ=              3.2350

 Summary of Natural Population Analysis:

                                       Natural Population
                Natural  -----------------------------------------------
    Atom  No    Charge         Core      Valence    Rydberg      Total
 -----------------------------------------------------------------------
      C    1   -0.09724      0.99962     2.08927    0.00834     3.09724
      O    2   -0.30169      0.99988     3.29131    0.01049     4.30169
      C    3   -0.01136      0.99959     1.99820    0.01357     3.01136
      C    4   -0.20256      0.99962     2.19488    0.00807     3.20256
      C    5   -0.08821      0.99962     2.07876    0.00984     3.08821
      N    6   -0.33987      0.99976     2.82774    0.01237     3.83987
      C    7   -0.13245      0.99959     2.12088    0.01199     3.13245
      C    8    0.40269      0.99969     1.57180    0.02582     2.59731
      O    9   -0.31306      0.99987     3.30632    0.00688     4.31306
      O   10   -0.27755      0.99986     3.26731    0.01038     4.27755
      C   11   -0.10391      0.99959     2.09525    0.00906     3.10391
      H   12    0.08881      0.00000     0.40963    0.00156     0.41119
      H   13    0.08999      0.00000     0.40802    0.00199     0.41001
      H   14    0.07284      0.00000     0.42512    0.00203     0.42716
      H   15    0.08208      0.00000     0.41601    0.00192     0.41792
      H   16    0.07889      0.00000     0.41959    0.00152     0.42111
      H   17    0.09919      0.00000     0.39960    0.00121     0.40081
      H   18    0.10167      0.00000     0.39704    0.00129     0.39833
      H   19    0.08865      0.00000     0.40998    0.00137     0.41135
      H   20    0.09081      0.00000     0.40687    0.00232     0.40919
      H   21    0.17448      0.00000     0.32118    0.00435     0.32552
      H   22    0.11024      0.00000     0.38824    0.00152     0.38976
      H   23    0.10542      0.00000     0.39319    0.00140     0.39458
      H   24    0.09400      0.00000     0.40373    0.00227     0.40600
      H   25    0.09289      0.00000     0.40470    0.00241     0.40711
      H   26    0.09527      0.00000     0.40121    0.00352     0.40473
 =======================================================================
   * Total *   -0.00000     10.99668    32.84582    0.15750    44.00000

 Normal termination of Gaussian 16 at Tue Dec  8 21:45:36 2020.
