 Gaussian 16, Revision A.03,

 -----------------------------------------------------------
 # opt freq B3LYP/6-31G(d) empiricaldispersion=gd3bj scf=xqc
 -----------------------------------------------------------

 ------------------------------
 CID_89295391_JID_4180_neutraal
 ------------------------------
 Symbolic Z-matrix:
 Charge =  0 Multiplicity = 1

 SCF Done:  E(RB3LYP) =  -612.371949833     A.U. after   15 cycles
 SCF Done:  E(RB3LYP) =  -612.376799982     A.U. after   12 cycles
 SCF Done:  E(RB3LYP) =  -612.376486817     A.U. after   12 cycles
 SCF Done:  E(RB3LYP) =  -612.377577439     A.U. after   12 cycles
 SCF Done:  E(RB3LYP) =  -612.377772634     A.U. after   12 cycles
 SCF Done:  E(RB3LYP) =  -612.377886037     A.U. after   11 cycles
 SCF Done:  E(RB3LYP) =  -612.377914563     A.U. after   10 cycles
 SCF Done:  E(RB3LYP) =  -612.377923895     A.U. after   10 cycles
 SCF Done:  E(RB3LYP) =  -612.377928773     A.U. after    9 cycles
 SCF Done:  E(RB3LYP) =  -612.377930090     A.U. after    8 cycles
 SCF Done:  E(RB3LYP) =  -612.377930321     A.U. after    8 cycles
 Optimization completed.
    -- Stationary point found.
 Normal termination of Gaussian 16 at Sun Dec 13 12:21:54 2020.

 --------------------------------------------------------------------
 #N Geom=AllCheck Guess=TCheck SCRF=Check GenChk RB3LYP/6-31G(d) Freq
 --------------------------------------------------------------------

 Structure from the checkpoint file:  "JID_4180.chk"
 ------------------------------
 CID_89295391_JID_4180_neutraal
 ------------------------------
 Charge =  0 Multiplicity = 1

 SCF Done:  E(RB3LYP) =  -612.377930321     A.U. after    1 cycles

  Exact polarizability: 187.382  -2.392 129.216  -0.186  -4.740  79.585
 Approx polarizability: 246.197   1.538 221.962  -2.301 -11.578 125.448

 ******    1 imaginary frequencies (negative Signs) ******

                      1                      2                      3
                      A                      A                      A
 Frequencies --    -67.3775                19.0185                41.7449
 Red. masses --      1.0276                 4.0608                 4.4548
 Frc consts  --      0.0027                 0.0009                 0.0046
 IR Inten    --      0.2421                 2.1716                 2.8862

                      4                      5                      6
                      A                      A                      A
 Frequencies --     68.2921               142.7971               159.2107
 Red. masses --      3.1368                 4.1714                 2.4901
 Frc consts  --      0.0086                 0.0501                 0.0372
 IR Inten    --      0.6438                 0.7167                 1.8145

                      7                      8                      9
                      A                      A                      A
 Frequencies --    175.8151               191.3792               203.1619
 Red. masses --      1.1424                 1.3755                 3.0883
 Frc consts  --      0.0208                 0.0297                 0.0751
 IR Inten    --      0.9822                 1.0898                 3.5948

                     10                     11                     12
                      A                      A                      A
 Frequencies --    261.3271               262.3355               274.0052
 Red. masses --      3.2488                 4.0158                 2.7040
 Frc consts  --      0.1307                 0.1628                 0.1196
 IR Inten    --      0.4965                 2.3565                 2.6214

                     13                     14                     15
                      A                      A                      A
 Frequencies --    328.2970               365.3006               415.3528
 Red. masses --      4.3023                 3.9089                 2.7995
 Frc consts  --      0.2732                 0.3073                 0.2846
 IR Inten    --      5.4596                 9.6125                 1.4349

                     16                     17                     18
                      A                      A                      A
 Frequencies --    441.0137               455.0239               474.9430
 Red. masses --      3.4956                 3.6185                 3.1225
 Frc consts  --      0.4006                 0.4414                 0.4150
 IR Inten    --      0.0657                 0.3180                 6.7700

                     19                     20                     21
                      A                      A                      A
 Frequencies --    562.3591               595.8070               619.2156
 Red. masses --      5.0159                 4.1376                 3.6578
 Frc consts  --      0.9346                 0.8654                 0.8263
 IR Inten    --      0.2769                22.1032                 2.0909

                     22                     23                     24
                      A                      A                      A
 Frequencies --    621.0491               684.6561               717.6400
 Red. masses --      2.6324                 2.3977                 4.0619
 Frc consts  --      0.5982                 0.6622                 1.2325
 IR Inten    --      4.1550                 0.9634                 6.1270

                     25                     26                     27
                      A                      A                      A
 Frequencies --    756.1514               787.0119               801.0081
 Red. masses --      2.6072                 4.0858                 2.3213
 Frc consts  --      0.8783                 1.4910                 0.8775
 IR Inten    --      1.7003                 2.4347                 7.4311

                     28                     29                     30
                      A                      A                      A
 Frequencies --    813.5041               910.0675               934.6617
 Red. masses --      1.6953                 1.3577                 2.8474
 Frc consts  --      0.6610                 0.6625                 1.4655
 IR Inten    --     49.4173                 1.9446                 2.6612

                     31                     32                     33
                      A                      A                      A
 Frequencies --    948.5670               970.9012              1003.8246
 Red. masses --      1.3507                 1.9194                 1.2804
 Frc consts  --      0.7161                 1.0660                 0.7602
 IR Inten    --     34.4885                 0.8267                 0.3528

                     34                     35                     36
                      A                      A                      A
 Frequencies --   1010.2482              1028.5327              1039.9606
 Red. masses --      6.6248                 1.5574                 1.5066
 Frc consts  --      3.9836                 0.9707                 0.9600
 IR Inten    --     11.2820                 2.3436                23.3826

                     37                     38                     39
                      A                      A                      A
 Frequencies --   1070.1677              1088.0418              1108.6243
 Red. masses --      1.5479                 1.4893                 2.0222
 Frc consts  --      1.0445                 1.0388                 1.4643
 IR Inten    --      2.9817                 4.2677                85.4235

                     40                     41                     42
                      A                      A                      A
 Frequencies --   1130.2473              1148.7327              1165.5668
 Red. masses --      1.6093                 2.5013                 1.3592
 Frc consts  --      1.2112                 1.9447                 1.0880
 IR Inten    --    110.2261                17.3419                10.0115

                     43                     44                     45
                      A                      A                      A
 Frequencies --   1200.1030              1271.9387              1281.7838
 Red. masses --      1.1667                 2.3013                 3.1159
 Frc consts  --      0.9900                 2.1936                 3.0163
 IR Inten    --     11.4510                54.4200                10.8500

                     46                     47                     48
                      A                      A                      A
 Frequencies --   1320.0530              1342.3066              1389.0111
 Red. masses --      4.4413                 6.7091                 3.7903
 Frc consts  --      4.5597                 7.1223                 4.3085
 IR Inten    --     36.0267                27.8198               329.8906

                     49                     50                     51
                      A                      A                      A
 Frequencies --   1431.4743              1431.8383              1463.4648
 Red. masses --      1.2702                 1.2904                 1.9712
 Frc consts  --      1.5335                 1.5587                 2.4874
 IR Inten    --      3.4913                 1.5199                91.2934

                     52                     53                     54
                      A                      A                      A
 Frequencies --   1468.3342              1487.7185              1503.5852
 Red. masses --      1.2651                 1.3848                 1.2846
 Frc consts  --      1.6070                 1.8059                 1.7111
 IR Inten    --     59.1549                29.0412                62.5953

                     55                     56                     57
                      A                      A                      A
 Frequencies --   1505.5656              1512.4971              1516.0456
 Red. masses --      1.4033                 1.1220                 1.0461
 Frc consts  --      1.8741                 1.5123                 1.4167
 IR Inten    --     65.0178                20.7597                 3.8993

                     58                     59                     60
                      A                      A                      A
 Frequencies --   1519.7536              1526.1307              1544.4961
 Red. masses --      1.1989                 1.0578                 1.1396
 Frc consts  --      1.6315                 1.4515                 1.6017
 IR Inten    --     10.5345                15.8820                70.0550

                     61                     62                     63
                      A                      A                      A
 Frequencies --   1640.7775              1645.2686              1717.9223
 Red. masses --      5.4639                 6.4300                 5.2278
 Frc consts  --      8.6667                10.2550                 9.0902
 IR Inten    --     90.1808                83.8746                45.9142

                     64                     65                     66
                      A                      A                      A
 Frequencies --   1742.4571              3048.2016              3049.9501
 Red. masses --     10.9089                 1.0414                 1.0388
 Frc consts  --     19.5145                 5.7012                 5.6934
 IR Inten    --    184.9939                22.9510                21.5242

                     67                     68                     69
                      A                      A                      A
 Frequencies --   3087.6193              3101.7511              3112.2811
 Red. masses --      1.0399                 1.1007                 1.0931
 Frc consts  --      5.8412                 6.2393                 6.2381
 IR Inten    --     26.2177                17.5917                14.0885

                     70                     71                     72
                      A                      A                      A
 Frequencies --   3145.7341              3153.9095              3156.8972
 Red. masses --      1.1039                 1.1004                 1.0999
 Frc consts  --      6.4360                 6.4493                 6.4585
 IR Inten    --     13.2779                13.4571                 9.3456

                     73                     74                     75
                      A                      A                      A
 Frequencies --   3164.7305              3191.2917              3208.5097
 Red. masses --      1.0598                 1.0878                 1.0955
 Frc consts  --      6.2536                 6.5271                 6.6449
 IR Inten    --      7.5019                 9.9721                21.8922

                     76                     77                     78
                      A                      A                      A
 Frequencies --   3215.4395              3244.9190              3305.2506
 Red. masses --      1.1011                 1.1164                 1.0923
 Frc consts  --      6.7077                 6.9260                 7.0304
 IR Inten    --     10.7385                14.8624                 7.1354

 - Thermochemistry -
 -------------------
 Temperature   298.150 Kelvin.  Pressure   1.00000 Atm.
 Atom     1 has atomic number  6 and mass  12.00000

 Molecular mass:   190.11061 amu.
 Principal axes and moments of inertia in atomic units:
                           1         2         3
     Eigenvalues --  1101.645994680.669075476.23442
           X            1.00000   0.00043  -0.00137
           Y           -0.00043   1.00000   0.00081
           Z            0.00137  -0.00081   1.00000
 This molecule is an asymmetric top.
 Rotational symmetry number  1.
 Warning -- assumption of classical behavior for rotation
           may cause significant error
 Rotational temperatures (Kelvin)      0.07862     0.01850     0.01582
 Rotational constants (GHZ):           1.63822     0.38557     0.32956
    1 imaginary frequencies ignored.
 Zero-point vibrational energy     612754.6 (Joules/Mol)
                                  146.45187 (Kcal/Mol)
 Warning -- explicit consideration of  20 degrees of freedom as
           vibrations may cause significant error
 Vibrational temperatures:     27.36    60.06    98.26   205.45   229.07
          (Kelvin)            252.96   275.35   292.30   375.99   377.44
                              394.23   472.35   525.59   597.60   634.52
                              654.68   683.34   809.11   857.23   890.91
                              893.55   985.07  1032.52  1087.93  1132.33
                             1152.47  1170.45  1309.38  1344.77  1364.78
                             1396.91  1444.28  1453.52  1479.83  1496.27
                             1539.73  1565.45  1595.06  1626.17  1652.77
                             1676.99  1726.68  1830.04  1844.20  1899.26
                             1931.28  1998.48  2059.57  2060.10  2105.60
                             2112.61  2140.50  2163.32  2166.17  2176.15
                             2181.25  2186.59  2195.76  2222.19  2360.71
                             2367.17  2471.71  2507.01  4385.68  4388.20
                             4442.40  4462.73  4477.88  4526.01  4537.77
                             4542.07  4553.34  4591.56  4616.33  4626.30
                             4668.71  4755.52

 Zero-point correction=                           0.233386 (Hartree/Particle)
 Thermal correction to Energy=                    0.246772
 Thermal correction to Enthalpy=                  0.247716
 Thermal correction to Gibbs Free Energy=         0.192249
 Sum of electronic and zero-point Energies=           -612.144544
 Sum of electronic and thermal Energies=              -612.131158
 Sum of electronic and thermal Enthalpies=            -612.130214
 Sum of electronic and thermal Free Energies=         -612.185682

                     E (Thermal)             CV                S
                      KCal/Mol        Cal/Mol-Kelvin    Cal/Mol-Kelvin
 Total                  154.852             50.356            116.741
 Electronic               0.000              0.000              0.000
 Translational            0.889              2.981             41.633
 Rotational               0.889              2.981             31.713
 Vibrational            153.074             44.394             43.395
 Vibration     1          0.593              1.986              6.734
 Vibration     2          0.594              1.980              5.175
 Vibration     3          0.598              1.969              4.202
 Vibration     4          0.616              1.910              2.766
 Vibration     5          0.621              1.892              2.559
 Vibration     6          0.628              1.872              2.372
 Vibration     7          0.634              1.852              2.214
 Vibration     8          0.639              1.835              2.104
 Vibration     9          0.669              1.744              1.653
 Vibration    10          0.670              1.742              1.646
 Vibration    11          0.676              1.721              1.571
 Vibration    12          0.712              1.619              1.268
 Vibration    13          0.739              1.544              1.099
 Vibration    14          0.779              1.437              0.908
 Vibration    15          0.801              1.381              0.823
 Vibration    16          0.813              1.350              0.781
 Vibration    17          0.832              1.306              0.724
 Vibration    18          0.918              1.113              0.519
 Vibration    19          0.954              1.041              0.457
 Vibration    20          0.979              0.991              0.418

                           ! Non-Optimized Parameters !
 Normal termination of Gaussian 16 at Sun Dec 13 12:29:09 2020.

 ----------------------------------------------------------------------
 # B3LYP/6-311++G(d,p) empiricaldispersion=gd3bj scf=xqc pop=npa geom=c
 heck
 ----------------------------------------------------------------------

 --------------------------------------
 CID_89295391_JID_4180_Energie_neutraal
 --------------------------------------
 Structure from the checkpoint file:  "JID_4180.chk"
 Charge =  0 Multiplicity = 1

 SCF Done:  E(RB3LYP) =  -612.543671154     A.U. after   16 cycles
 Normal termination of Gaussian 16 at Sun Dec 13 12:32:35 2020.

 ----------------------------------------------------------------------
 # B3LYP/6-311++G(d,p) empiricaldispersion=gd3bj scf=xqc pop=npa geom=c
 heck
 ----------------------------------------------------------------------

 ------------------------------------
 CID_89295391_JID_4180_Energie_kation
 ------------------------------------
 Structure from the checkpoint file:  "JID_4180.chk"
 Charge =  1 Multiplicity = 2

 SCF Done:  E(UB3LYP) =  -612.248018949     A.U. after   26 cycles
 Normal termination of Gaussian 16 at Sun Dec 13 12:40:42 2020.
 Gaussian 16:  ES64L-G16RevA.03 25-Dec-2016

 ----------------------------------------------------------------------
 # B3LYP/6-311++G(d,p) empiricaldispersion=gd3bj scf=xqc pop=npa geom=c
 heck
 ----------------------------------------------------------------------

 -----------------------------------
 CID_89295391_JID_4180_Energie_anion
 -----------------------------------
 Structure from the checkpoint file:  "JID_4180.chk"
 Charge = -1 Multiplicity = 2

                         Standard orientation:
 ---------------------------------------------------------------------
 Center     Atomic      Atomic             Coordinates (Angstroms)
 Number     Number       Type             X           Y           Z
 ---------------------------------------------------------------------
      1          6           0       -3.976139   -1.521419   -0.119826
      2          6           0       -2.959087   -0.411706   -0.018638
      3          7           0       -1.671865   -0.764831   -0.130652
      4          6           0       -0.716325    0.171342   -0.055099
      5          6           0       -1.011275    1.531962    0.139465
      6          6           0       -2.350558    1.884782    0.263056
      7          6           0       -3.346326    0.914857    0.184294
      8          7           0        0.601860   -0.352706   -0.152839
      9          6           0        0.697057   -1.794453   -0.432431
     10          6           0        1.740490    0.442605   -0.096204
     11          8           0        1.726520    1.662671   -0.223914
     12          6           0        3.066651   -0.215356    0.196699
     13          6           0        3.208514   -1.027839    1.248987
     14          6           0        4.217301    0.279421   -0.637223
     15          1           0       -3.468073   -2.475534   -0.273992
     16          1           0       -4.581699   -1.588574    0.792067
     17          1           0       -4.666296   -1.351180   -0.954982
     18          1           0       -0.225200    2.267633    0.176578
     19          1           0       -2.612401    2.928243    0.415940
     20          1           0       -4.396766    1.174504    0.274174
     21          1           0        1.726848   -2.039064   -0.675686
     22          1           0        0.371412   -2.387831    0.426029
     23          1           0        0.045354   -2.038401   -1.272066
     24          1           0        4.186157   -1.393725    1.551742
     25          1           0        2.361007   -1.339346    1.852621
     26          1           0        4.093240   -0.008071   -1.689331
     27          1           0        4.254811    1.372605   -0.607651
     28          1           0        5.167661   -0.125041   -0.278166
 ---------------------------------------------------------------------

 SCF Done:  E(UB3LYP) =  -612.536197678     A.U. after   33 cycles
 SCF Done:  E(UB3LYP) =  -612.536197678     a.u. after    2 cycles

 The electronic state is 2-A.
 Alpha  occ. eigenvalues --  -18.92194 -14.20690 -14.15712 -10.09626 -10.09298
 Alpha  occ. eigenvalues --  -10.08125 -10.06122 -10.05550 -10.04306 -10.03364
 Alpha  occ. eigenvalues --  -10.02922 -10.02847 -10.02827 -10.00913  -0.88188
 Alpha  occ. eigenvalues --   -0.82504  -0.77055  -0.66126  -0.65971  -0.64374
 Alpha  occ. eigenvalues --   -0.58294  -0.55817  -0.55021  -0.51281  -0.47355
 Alpha  occ. eigenvalues --   -0.44924  -0.39667  -0.36830  -0.35594  -0.33948
 Alpha  occ. eigenvalues --   -0.33181  -0.32522  -0.31259  -0.29959  -0.29272
 Alpha  occ. eigenvalues --   -0.28806  -0.28403  -0.27143  -0.26278  -0.25368
 Alpha  occ. eigenvalues --   -0.24999  -0.24171  -0.23378  -0.23148  -0.21392
 Alpha  occ. eigenvalues --   -0.16330  -0.14348  -0.12730  -0.11821  -0.09778
 Alpha  occ. eigenvalues --   -0.08637   0.06178
 Alpha virt. eigenvalues --    0.07835   0.08996   0.09547   0.10265   0.10476
 Alpha virt. eigenvalues --    0.10948   0.11174   0.11634   0.12400   0.12870
 Alpha virt. eigenvalues --    0.13334   0.13940   0.14303   0.14340   0.15690

  Beta  occ. eigenvalues --  -18.91823 -14.20800 -14.15548 -10.09278 -10.09085
  Beta  occ. eigenvalues --  -10.08171 -10.06115 -10.05546 -10.04179 -10.03355
  Beta  occ. eigenvalues --  -10.02891 -10.02761 -10.02724 -10.00682  -0.87589
  Beta  occ. eigenvalues --   -0.82195  -0.76916  -0.65846  -0.65625  -0.64206
  Beta  occ. eigenvalues --   -0.58180  -0.55625  -0.54796  -0.50784  -0.47205
  Beta  occ. eigenvalues --   -0.44426  -0.39458  -0.36723  -0.35470  -0.33672
  Beta  occ. eigenvalues --   -0.33035  -0.32233  -0.31148  -0.29765  -0.29150
  Beta  occ. eigenvalues --   -0.28629  -0.28266  -0.27063  -0.26071  -0.24965
  Beta  occ. eigenvalues --   -0.24773  -0.24050  -0.23144  -0.22348  -0.20675
  Beta  occ. eigenvalues --   -0.15296  -0.13680  -0.12393  -0.10795  -0.09181
  Beta  occ. eigenvalues --   -0.08052
  Beta virt. eigenvalues --    0.07769   0.08934   0.09454   0.10292   0.10383
  Beta virt. eigenvalues --    0.10875   0.11202   0.11601   0.12237   0.12466
  Beta virt. eigenvalues --    0.12870   0.13779   0.13960   0.14221   0.14504

 Mulliken charges and spin densities:
               1          2
     1  C   -0.373768  -0.003877
     2  C   -0.114766  -0.023908
     3  N   -0.083243   0.079109
     4  C   -0.063183   0.113877
     5  C   -0.002971  -0.031680
     6  C   -0.115328   0.097025
     7  C   -0.268463   0.141296
     8  N    0.064125  -0.068652
     9  C   -0.425632  -0.056476
    10  C   -0.042920   0.192343
    11  O   -0.359525   0.136526
    12  C    0.325519   0.057123
    13  C   -0.918887   0.321353
    14  C   -0.456974  -0.057346
    15  H    0.124612   0.000092
    16  H    0.130008   0.001031
    17  H    0.115431   0.015687
    18  H    0.213046   0.002435
    19  H    0.135991  -0.008549
    20  H    0.111324  -0.011909
    21  H    0.114135   0.027020
    22  H    0.132711   0.043882
    23  H    0.175225  -0.006231
    24  H    0.056880   0.022512
    25  H    0.136705  -0.023057
    26  H    0.126819   0.004368
    27  H    0.155444   0.025203
    28  H    0.107685   0.010803
 Sum of Mulliken charges =  -1.00000   1.00000

 Dipole moment (field-independent basis, Debye):
    X=             -3.6125    Y=             -1.7313    Z=             -0.9035  Tot=              4.1065
 Quadrupole moment (field-independent basis, Debye-Ang):
   XX=           -125.4194   YY=           -103.4347   ZZ=            -95.0715
   XY=             -1.4155   XZ=             -4.1943   YZ=              2.4346

 Summary of Natural Population Analysis:

                                       Natural Population
                Natural  -----------------------------------------------
    Atom  No    Charge         Core      Valence    Rydberg      Total
 -----------------------------------------------------------------------
      C    1   -0.29557      0.99964     2.29150    0.00443     3.29557
      C    2    0.09758      0.99956     1.89014    0.01272     2.90242
      N    3   -0.25006      0.99964     2.73994    0.01048     3.75006
      C    4    0.23863      0.99953     1.74944    0.01240     2.76137
      C    5   -0.14442      0.99953     2.13665    0.00824     3.14442
      C    6   -0.06199      0.99958     2.05323    0.00919     3.06199
      C    7   -0.12108      0.99951     2.11242    0.00915     3.12108
      N    8   -0.26330      0.99962     2.75439    0.00930     3.76330
      C    9   -0.17182      0.99964     2.16599    0.00619     3.17182
      C   10    0.38431      0.99959     1.59324    0.02287     2.61569
      O   11   -0.29217      0.99988     3.28687    0.00543     4.29217
      C   12   -0.03480      0.99950     2.02280    0.01250     3.03480
      C   13   -0.15727      0.99951     2.14871    0.00905     3.15727
      C   14   -0.29215      0.99963     2.28763    0.00489     3.29215
      H   15    0.10541      0.00000     0.39358    0.00101     0.39459
      H   16    0.09652      0.00000     0.40258    0.00090     0.40348
      H   17    0.09644      0.00000     0.40266    0.00090     0.40356
      H   18    0.12610      0.00000     0.37278    0.00112     0.37390
      H   19    0.08982      0.00000     0.40920    0.00098     0.41018
      H   20    0.09048      0.00000     0.40846    0.00106     0.40952
      H   21    0.10394      0.00000     0.39511    0.00095     0.39606
      H   22    0.09101      0.00000     0.40698    0.00202     0.40899
      H   23    0.09664      0.00000     0.40233    0.00103     0.40336
      H   24    0.08210      0.00000     0.41689    0.00101     0.41790
      H   25    0.08953      0.00000     0.40962    0.00085     0.41047
      H   26    0.09502      0.00000     0.40397    0.00101     0.40498
      H   27    0.10978      0.00000     0.38870    0.00152     0.39022
      H   28    0.09133      0.00000     0.40778    0.00089     0.40867
 =======================================================================
   * Total *   -0.00000     13.99435    36.85357    0.15208    51.00000

 Normal termination of Gaussian 16 at Sun Dec 13 13:09:20 2020.
