 Gaussian 16, Revision A.03,

 -----------------------------------------------------------
 # opt freq B3LYP/6-31G(d) empiricaldispersion=gd3bj scf=xqc
 -----------------------------------------------------------

 -------------------------------
 CID_143157778_JID_2320_neutraal
 -------------------------------
 Symbolic Z-matrix:
 Charge =  0 Multiplicity = 1

 SCF Done:  E(RB3LYP) =  -496.597042373     A.U. after   15 cycles
 SCF Done:  E(RB3LYP) =  -496.600264944     A.U. after   13 cycles
 SCF Done:  E(RB3LYP) =  -496.600728472     A.U. after   12 cycles
 SCF Done:  E(RB3LYP) =  -496.600877345     A.U. after   12 cycles
 SCF Done:  E(RB3LYP) =  -496.600909568     A.U. after   11 cycles
 SCF Done:  E(RB3LYP) =  -496.600935819     A.U. after   11 cycles
 SCF Done:  E(RB3LYP) =  -496.600938553     A.U. after    8 cycles
 SCF Done:  E(RB3LYP) =  -496.600938820     A.U. after    8 cycles
 SCF Done:  E(RB3LYP) =  -496.600938924     A.U. after    8 cycles
 Optimization completed.
    -- Stationary point found.
 Normal termination of Gaussian 16 at Wed Dec  9 17:00:46 2020.

 --------------------------------------------------------------------
 #N Geom=AllCheck Guess=TCheck SCRF=Check GenChk RB3LYP/6-31G(d) Freq
 --------------------------------------------------------------------

 Structure from the checkpoint file:  "JID_2320.chk"
 -------------------------------
 CID_143157778_JID_2320_neutraal
 -------------------------------
 Charge =  0 Multiplicity = 1

 SCF Done:  E(RB3LYP) =  -496.600938924     A.U. after    1 cycles

  Exact polarizability: 190.236  -6.939 111.325   0.399  -0.777  54.003
 Approx polarizability: 281.735 -11.972 199.520  -0.126  -2.828  85.220

                      1                      2                      3
                      A                      A                      A
 Frequencies --     40.5201                80.6676               161.9967
 Red. masses --      4.0353                 3.6237                 4.1220
 Frc consts  --      0.0039                 0.0139                 0.0637
 IR Inten    --      0.0163                 0.1980                 0.4133

                      4                      5                      6
                      A                      A                      A
 Frequencies --    185.3513               238.0556               318.5832
 Red. masses --      2.5527                 2.8357                 5.1128
 Frc consts  --      0.0517                 0.0947                 0.3057
 IR Inten    --      0.8761                 2.2560                 0.2047

                      7                      8                      9
                      A                      A                      A
 Frequencies --    380.7886               414.7279               435.0356
 Red. masses --      2.8659                 3.4311                 3.8638
 Frc consts  --      0.2448                 0.3477                 0.4308
 IR Inten    --      1.4492                 1.7491                 5.6070

                     10                     11                     12
                      A                      A                      A
 Frequencies --    486.9800               518.2676               596.1827
 Red. masses --      3.3810                 3.0513                 3.6716
 Frc consts  --      0.4724                 0.4829                 0.7689
 IR Inten    --      2.0730                 9.4551                 3.6886

                     13                     14                     15
                      A                      A                      A
 Frequencies --    629.9076               656.8173               721.1021
 Red. masses --      6.9158                 6.4284                 1.9565
 Frc consts  --      1.6168                 1.6340                 0.5994
 IR Inten    --      3.8211                 8.3598                15.9104

                     16                     17                     18
                      A                      A                      A
 Frequencies --    750.2860               764.4774               779.7676
 Red. masses --      1.8125                 2.9880                 1.8689
 Frc consts  --      0.6012                 1.0289                 0.6695
 IR Inten    --     19.1740                 6.0142                12.0607

                     19                     20                     21
                      A                      A                      A
 Frequencies --    825.8913               909.9970               953.0853
 Red. masses --      1.6956                 3.6082                 1.3498
 Frc consts  --      0.6814                 1.7604                 0.7224
 IR Inten    --     10.4214                 4.7271                 0.0479

                     22                     23                     24
                      A                      A                      A
 Frequencies --    962.2366               972.9666               979.3903
 Red. masses --      2.6450                 1.3251                 1.3649
 Frc consts  --      1.4429                 0.7391                 0.7714
 IR Inten    --      1.4276                 3.5498                 1.0938

                     25                     26                     27
                      A                      A                      A
 Frequencies --    997.4449              1018.1268              1033.8318
 Red. masses --      1.4555                 3.5555                 3.5522
 Frc consts  --      0.8532                 2.1715                 2.2369
 IR Inten    --      0.4847                11.7408                 7.0282

                     28                     29                     30
                      A                      A                      A
 Frequencies --   1047.1745              1055.9983              1083.2241
 Red. masses --      3.1979                 2.5477                 2.2388
 Frc consts  --      2.0661                 1.6739                 1.5477
 IR Inten    --      7.1183                 0.9304                 0.0731

                     31                     32                     33
                      A                      A                      A
 Frequencies --   1114.3180              1164.6978              1193.2518
 Red. masses --      1.8854                 1.4740                 1.1698
 Frc consts  --      1.3793                 1.1781                 0.9813
 IR Inten    --     23.9680                 7.3430                 3.4679

                     34                     35                     36
                      A                      A                      A
 Frequencies --   1223.7473              1239.8247              1265.3784
 Red. masses --      1.3624                 1.3833                 1.4551
 Frc consts  --      1.2021                 1.2528                 1.3727
 IR Inten    --     19.6066                 0.9017                 5.4741

                     37                     38                     39
                      A                      A                      A
 Frequencies --   1305.5640              1328.0277              1369.2138
 Red. masses --      3.1939                 2.6186                 1.3572
 Frc consts  --      3.2075                 2.7210                 1.4991
 IR Inten    --      8.3070                 1.3755                 1.0196

                     40                     41                     42
                      A                      A                      A
 Frequencies --   1372.5124              1400.7890              1434.2617
 Red. masses --      1.5786                 1.5611                 1.6117
 Frc consts  --      1.7521                 1.8047                 1.9534
 IR Inten    --      1.6944                40.7600                 3.0741

                     43                     44                     45
                      A                      A                      A
 Frequencies --   1468.7856              1492.9302              1506.3615
 Red. masses --      2.6661                 1.0882                 1.1065
 Frc consts  --      3.3887                 1.4290                 1.4794
 IR Inten    --     14.9751                 4.2433                 3.2794

                     46                     47                     48
                      A                      A                      A
 Frequencies --   1523.2327              1612.8624              1633.7606
 Red. masses --      2.2291                 5.7576                 5.5131
 Frc consts  --      3.0473                 8.8244                 8.6701
 IR Inten    --     13.1757                45.5869                13.7127

                     49                     50                     51
                      A                      A                      A
 Frequencies --   1654.4519              1690.6934              2997.4202
 Red. masses --      6.2252                 6.2818                 1.0732
 Frc consts  --     10.0394                10.5795                 5.6809
 IR Inten    --      9.3454                29.5312                22.5449

                     52                     53                     54
                      A                      A                      A
 Frequencies --   3018.3059              3088.6118              3122.0638
 Red. masses --      1.0699                 1.0899                 1.0904
 Frc consts  --      5.7426                 6.1257                 6.2622
 IR Inten    --     29.0444                25.6127                18.0794

                     55                     56                     57
                      A                      A                      A
 Frequencies --   3176.0115              3188.3863              3203.1175
 Red. masses --      1.0887                 1.0854                 1.0893
 Frc consts  --      6.4705                 6.5010                 6.5845
 IR Inten    --     19.5359                 7.4753                21.4363

                     58                     59                     60
                      A                      A                      A
 Frequencies --   3209.3622              3215.3270              3219.1945
 Red. masses --      1.0987                 1.0906                 1.0956
 Frc consts  --      6.6673                 6.6433                 6.6894
 IR Inten    --     49.5677                 4.8070                14.1720

 - Thermochemistry -
 -------------------
 Temperature   298.150 Kelvin.  Pressure   1.00000 Atm.
 Atom     1 has atomic number  6 and mass  12.00000

 Molecular mass:   158.08440 amu.
 Principal axes and moments of inertia in atomic units:
                           1         2         3
     Eigenvalues --   659.440803252.080273824.01782
           X            1.00000  -0.00086   0.00270
           Y            0.00085   1.00000   0.00136
           Z           -0.00271  -0.00136   1.00000
 This molecule is an asymmetric top.
 Rotational symmetry number  1.
 Warning -- assumption of classical behavior for rotation
           may cause significant error
 Rotational temperatures (Kelvin)      0.13134     0.02663     0.02265
 Rotational constants (GHZ):           2.73678     0.55495     0.47195
 Zero-point vibrational energy     475105.0 (Joules/Mol)
                                  113.55281 (Kcal/Mol)
 Warning -- explicit consideration of  12 degrees of freedom as
           vibrations may cause significant error
 Vibrational temperatures:     58.30   116.06   233.08   266.68   342.51
          (Kelvin)            458.37   547.87   596.70   625.92   700.66
                              745.67   857.77   906.30   945.01  1037.51
                             1079.49  1099.91  1121.91  1188.27  1309.28
                             1371.28  1384.44  1399.88  1409.12  1435.10
                             1464.86  1487.45  1506.65  1519.35  1558.52
                             1603.26  1675.74  1716.82  1760.70  1783.83
                             1820.60  1878.42  1910.74  1969.99  1974.74
                             2015.42  2063.58  2113.25  2147.99  2167.32
                             2191.59  2320.55  2350.62  2380.39  2432.53
                             4312.62  4342.67  4443.82  4491.95  4569.57
                             4587.38  4608.57  4617.56  4626.14  4631.70

 Zero-point correction=                           0.180958 (Hartree/Particle)
 Thermal correction to Energy=                    0.190347
 Thermal correction to Enthalpy=                  0.191291
 Thermal correction to Gibbs Free Energy=         0.145392
 Sum of electronic and zero-point Energies=           -496.419981
 Sum of electronic and thermal Energies=              -496.410592
 Sum of electronic and thermal Enthalpies=            -496.409648
 Sum of electronic and thermal Free Energies=         -496.455547

                     E (Thermal)             CV                S
                      KCal/Mol        Cal/Mol-Kelvin    Cal/Mol-Kelvin
 Total                  119.444             36.965             96.602
 Electronic               0.000              0.000              0.000
 Translational            0.889              2.981             41.083
 Rotational               0.889              2.981             30.484
 Vibrational            117.667             31.004             25.034
 Vibration     1          0.594              1.981              5.233
 Vibration     2          0.600              1.962              3.875
 Vibration     3          0.622              1.889              2.526
 Vibration     4          0.631              1.860              2.274
 Vibration     5          0.656              1.782              1.817
 Vibration     6          0.705              1.638              1.317
 Vibration     7          0.751              1.511              1.036
 Vibration     8          0.778              1.438              0.910
 Vibration     9          0.796              1.394              0.842
 Vibration    10          0.843              1.279              0.691
 Vibration    11          0.873              1.210              0.614
 Vibration    12          0.954              1.040              0.456

                           ! Non-Optimized Parameters !
 Normal termination of Gaussian 16 at Wed Dec  9 17:05:42 2020.

 ----------------------------------------------------------------------
 # B3LYP/6-311++G(d,p) empiricaldispersion=gd3bj scf=xqc pop=npa geom=c
 heck
 ----------------------------------------------------------------------

 ---------------------------------------
 CID_143157778_JID_2320_Energie_neutraal
 ---------------------------------------
 Structure from the checkpoint file:  "JID_2320.chk"
 Charge =  0 Multiplicity = 1

 SCF Done:  E(RB3LYP) =  -496.727783128     A.U. after   14 cycles
 Normal termination of Gaussian 16 at Wed Dec  9 17:08:23 2020.

 ----------------------------------------------------------------------
 # B3LYP/6-311++G(d,p) empiricaldispersion=gd3bj scf=xqc pop=npa geom=c
 heck
 ----------------------------------------------------------------------

 -------------------------------------
 CID_143157778_JID_2320_Energie_kation
 -------------------------------------
 Structure from the checkpoint file:  "JID_2320.chk"
 Charge =  1 Multiplicity = 2

 SCF Done:  E(UB3LYP) =  -496.431604686     A.U. after   25 cycles
 Normal termination of Gaussian 16 at Wed Dec  9 17:13:27 2020.
 Gaussian 16:  ES64L-G16RevA.03 25-Dec-2016

 ----------------------------------------------------------------------
 # B3LYP/6-311++G(d,p) empiricaldispersion=gd3bj scf=xqc pop=npa geom=c
 heck
 ----------------------------------------------------------------------

 ------------------------------------
 CID_143157778_JID_2320_Energie_anion
 ------------------------------------
 Structure from the checkpoint file:  "JID_2320.chk"
 Charge = -1 Multiplicity = 2

                         Standard orientation:
 ---------------------------------------------------------------------
 Center     Atomic      Atomic             Coordinates (Angstroms)
 Number     Number       Type             X           Y           Z
 ---------------------------------------------------------------------
      1          6           0        2.843106    1.070821    0.508411
      2          6           0        1.489919    1.253147   -0.191308
      3          6           0        0.681468   -0.035275   -0.136791
      4          7           0        1.253782   -1.191045   -0.201550
      5          6           0        2.654717   -1.248961   -0.268937
      6          6           0        3.459562   -0.234814    0.086485
      7          6           0       -0.793519    0.007041   -0.052147
      8          6           0       -1.521612   -1.180087    0.167013
      9          7           0       -2.850333   -1.242824    0.249521
     10          6           0       -3.533118   -0.096601    0.105162
     11          6           0       -2.923604    1.135227   -0.121172
     12          6           0       -1.533810    1.187424   -0.196639
     13          1           0        3.500271    1.914492    0.271968
     14          1           0        2.708693    1.081852    1.602669
     15          1           0        0.944430    2.089589    0.251196
     16          1           0        1.655219    1.501115   -1.251500
     17          1           0        3.046380   -2.217052   -0.568800
     18          1           0        4.537438   -0.365304    0.117665
     19          1           0       -0.975383   -2.111716    0.279452
     20          1           0       -4.616617   -0.173291    0.174640
     21          1           0       -3.522830    2.033302   -0.235158
     22          1           0       -1.040389    2.136561   -0.378396
 ---------------------------------------------------------------------

 SCF Done:  E(UB3LYP) =  -496.746487476     A.U. after   24 cycles

 The electronic state is 2-A.
 Alpha  occ. eigenvalues --  -14.15850 -14.12116 -10.04463 -10.04383 -10.03934
 Alpha  occ. eigenvalues --  -10.03628 -10.03593 -10.03503 -10.03322 -10.03272
 Alpha  occ. eigenvalues --  -10.02242 -10.00713  -0.79028  -0.76735  -0.65869
 Alpha  occ. eigenvalues --   -0.64516  -0.62164  -0.58597  -0.49972  -0.49506
 Alpha  occ. eigenvalues --   -0.46938  -0.43933  -0.38214  -0.35204  -0.34753
 Alpha  occ. eigenvalues --   -0.33241  -0.31486  -0.29788  -0.28720  -0.26958
 Alpha  occ. eigenvalues --   -0.25793  -0.25035  -0.23942  -0.23203  -0.21863
 Alpha  occ. eigenvalues --   -0.19866  -0.18868  -0.14636  -0.12824  -0.11405
 Alpha  occ. eigenvalues --   -0.08611  -0.07340   0.04046
 Alpha virt. eigenvalues --    0.08712   0.09299   0.10404   0.11197   0.11543
 Alpha virt. eigenvalues --    0.11648   0.11927   0.13274   0.13732   0.14163
 Alpha virt. eigenvalues --    0.14209   0.15597   0.17149   0.17439   0.18451

  Beta  occ. eigenvalues --  -14.15911 -14.11784 -10.04262 -10.04155 -10.03945
  Beta  occ. eigenvalues --  -10.03668 -10.03538 -10.03346 -10.03289 -10.03094
  Beta  occ. eigenvalues --  -10.02152 -10.00402  -0.78828  -0.76119  -0.65543
  Beta  occ. eigenvalues --   -0.64207  -0.61775  -0.58222  -0.49866  -0.48828
  Beta  occ. eigenvalues --   -0.46782  -0.43479  -0.38051  -0.34804  -0.34557
  Beta  occ. eigenvalues --   -0.33029  -0.31241  -0.29544  -0.28525  -0.26771
  Beta  occ. eigenvalues --   -0.25150  -0.24772  -0.23585  -0.22983  -0.21676
  Beta  occ. eigenvalues --   -0.18867  -0.18178  -0.13851  -0.11926  -0.11197
  Beta  occ. eigenvalues --   -0.08115  -0.05679
  Beta virt. eigenvalues --    0.08668   0.09254   0.09845   0.10366   0.11163
  Beta virt. eigenvalues --    0.11620   0.11854   0.11973   0.13252   0.13748
  Beta virt. eigenvalues --    0.14162   0.15427   0.15769   0.17215   0.17428

 Mulliken charges and spin densities:
               1          2
     1  C   -0.434974  -0.039896
     2  C   -0.392077   0.008789
     3  C   -0.239362   0.198357
     4  N   -0.035439   0.178862
     5  C   -0.216965  -0.026114
     6  C   -0.062355   0.249512
     7  C    0.791518  -0.001594
     8  C   -0.747028   0.112178
     9  N   -0.071087  -0.039389
    10  C   -0.348194   0.226418
    11  C   -0.438432  -0.049847
    12  C    0.030721   0.169713
    13  H    0.105581   0.013664
    14  H    0.111960   0.009445
    15  H    0.080256   0.012952
    16  H    0.091555   0.024790
    17  H    0.111748   0.002284
    18  H    0.115266  -0.016738
    19  H    0.196607  -0.007931
    20  H    0.119016  -0.018437
    21  H    0.112250   0.003946
    22  H    0.119437  -0.010963
 Sum of Mulliken charges =  -1.00000   1.00000

 Dipole moment (field-independent basis, Debye):
    X=              1.0421    Y=              4.0002    Z=             -0.0107  Tot=              4.1337
 Quadrupole moment (field-independent basis, Debye-Ang):
   XX=           -109.6599   YY=            -84.4581   ZZ=            -80.7292
   XY=             -3.9555   XZ=              1.7398   YZ=              0.1958

 Summary of Natural Population Analysis:

                                       Natural Population
                Natural  -----------------------------------------------
    Atom  No    Charge         Core      Valence    Rydberg      Total
 -----------------------------------------------------------------------
      C    1   -0.20238      0.99964     2.19508    0.00766     3.20238
      C    2   -0.21456      0.99962     2.20802    0.00693     3.21456
      C    3    0.18858      0.99956     1.79746    0.01440     2.81142
      N    4   -0.21088      0.99964     2.69922    0.01202     3.71088
      C    5   -0.02236      0.99951     2.00734    0.01551     3.02236
      C    6   -0.06657      0.99955     2.05672    0.01030     3.06657
      C    7   -0.04563      0.99949     2.03687    0.00927     3.04563
      C    8    0.06952      0.99956     1.91621    0.01471     2.93048
      N    9   -0.25867      0.99972     2.74602    0.01293     3.75867
      C   10    0.06747      0.99960     1.91717    0.01576     2.93253
      C   11   -0.15232      0.99957     2.14367    0.00908     3.15232
      C   12   -0.05159      0.99954     2.04417    0.00788     3.05159
      H   13    0.09252      0.00000     0.40610    0.00138     0.40748
      H   14    0.09366      0.00000     0.40451    0.00183     0.40634
      H   15    0.09717      0.00000     0.40150    0.00133     0.40283
      H   16    0.09822      0.00000     0.39968    0.00210     0.40178
      H   17    0.08092      0.00000     0.41780    0.00128     0.41908
      H   18    0.08395      0.00000     0.41473    0.00132     0.41605
      H   19    0.09631      0.00000     0.40216    0.00153     0.40369
      H   20    0.07426      0.00000     0.42436    0.00138     0.42574
      H   21    0.09147      0.00000     0.40726    0.00127     0.40853
      H   22    0.09092      0.00000     0.40761    0.00147     0.40908
 =======================================================================
   * Total *    0.00000     11.99499    29.85365    0.15136    42.00000

 Normal termination of Gaussian 16 at Wed Dec  9 17:18:22 2020.
