 Gaussian 16, Revision A.03,

 -----------------------------------------------------------
 # opt freq B3LYP/6-31G(d) empiricaldispersion=gd3bj scf=xqc
 -----------------------------------------------------------

 ------------------------------
 CID_72224596_JID_9585_neutraal
 ------------------------------
 Symbolic Z-matrix:
 Charge =  0 Multiplicity = 1

 SCF Done:  E(RB3LYP) =  -1240.75293601     A.U. after   14 cycles
 SCF Done:  E(RB3LYP) =  -1240.75979685     A.U. after   12 cycles
 SCF Done:  E(RB3LYP) =  -1240.76079930     A.U. after   12 cycles
 SCF Done:  E(RB3LYP) =  -1240.75926225     A.U. after   12 cycles
 SCF Done:  E(RB3LYP) =  -1240.76146509     A.U. after   12 cycles
 SCF Done:  E(RB3LYP) =  -1240.76198950     A.U. after   11 cycles
 SCF Done:  E(RB3LYP) =  -1240.76220361     A.U. after   11 cycles
 SCF Done:  E(RB3LYP) =  -1240.76230979     A.U. after   11 cycles
 SCF Done:  E(RB3LYP) =  -1240.76237206     A.U. after   11 cycles
 SCF Done:  E(RB3LYP) =  -1240.76245179     A.U. after   11 cycles
 SCF Done:  E(RB3LYP) =  -1240.76726507     A.U. after   10 cycles
 SCF Done:  E(RB3LYP) =  -1240.76726850     A.U. after    9 cycles
 SCF Done:  E(RB3LYP) =  -1240.76726968     A.U. after    8 cycles
 SCF Done:  E(RB3LYP) =  -1240.76726986     A.U. after    7 cycles
 SCF Done:  E(RB3LYP) =  -1240.76726993     A.U. after    7 cycles
 Optimization completed.
    -- Stationary point found.
 Normal termination of Gaussian 16 at Mon Dec 14 13:47:35 2020.

 --------------------------------------------------------------------
 #N Geom=AllCheck Guess=TCheck SCRF=Check GenChk RB3LYP/6-31G(d) Freq
 --------------------------------------------------------------------

 Structure from the checkpoint file:  "JID_9585.chk"
 ------------------------------
 CID_72224596_JID_9585_neutraal
 ------------------------------
 Charge =  0 Multiplicity = 1

 SCF Done:  E(RB3LYP) =  -1240.76726993     A.U. after    1 cycles

  Exact polarizability: 225.106   6.743 184.237   7.709  -3.104 120.347
 Approx polarizability: 312.724   6.836 269.729  21.968  -4.591 192.198

                      1                      2                      3
                      A                      A                      A
 Frequencies --     23.3067                34.5289                50.1011
 Red. masses --      4.2824                 4.8889                 4.3014
 Frc consts  --      0.0014                 0.0034                 0.0064
 IR Inten    --      1.5567                 0.8951                 1.8865

                      4                      5                      6
                      A                      A                      A
 Frequencies --     68.0690                72.2034                87.3614
 Red. masses --      3.3662                 5.0517                 3.4614
 Frc consts  --      0.0092                 0.0155                 0.0156
 IR Inten    --      1.3769                 0.8114                 0.8919

                      7                      8                      9
                      A                      A                      A
 Frequencies --    128.2957               135.9301               163.7743
 Red. masses --      3.0418                 3.1387                 1.9882
 Frc consts  --      0.0295                 0.0342                 0.0314
 IR Inten    --      1.3160                 0.5386                 1.1440

                     10                     11                     12
                      A                      A                      A
 Frequencies --    177.4636               203.2492               208.0925
 Red. masses --      2.6604                 2.0759                 1.1661
 Frc consts  --      0.0494                 0.0505                 0.0298
 IR Inten    --      1.6546                 4.3142                 1.6809

                     13                     14                     15
                      A                      A                      A
 Frequencies --    220.6005               238.6702               260.9105
 Red. masses --      1.0658                 3.7636                 4.7598
 Frc consts  --      0.0306                 0.1263                 0.1909
 IR Inten    --      0.2277                 0.5610                 0.7546

                     16                     17                     18
                      A                      A                      A
 Frequencies --    271.8275               297.6059               331.1336
 Red. masses --      2.7051                 3.6765                 3.4952
 Frc consts  --      0.1178                 0.1919                 0.2258
 IR Inten    --      0.4440                 0.3819                 0.4091

                     19                     20                     21
                      A                      A                      A
 Frequencies --    354.2570               359.6527               368.6743
 Red. masses --      2.9417                 1.3077                 3.6686
 Frc consts  --      0.2175                 0.0997                 0.2938
 IR Inten    --      1.4904                 0.5558                 2.0847

                     22                     23                     24
                      A                      A                      A
 Frequencies --    374.7198               401.1254               406.5623
 Red. masses --      2.5728                 2.8715                 2.5385
 Frc consts  --      0.2128                 0.2722                 0.2472
 IR Inten    --      0.1031                 0.6788                 4.0353

                     25                     26                     27
                      A                      A                      A
 Frequencies --    428.3251               442.7294               472.9766
 Red. masses --      4.2518                 3.5829                 3.5132
 Frc consts  --      0.4596                 0.4138                 0.4631
 IR Inten    --     18.9022                 7.3984                13.7340

                     28                     29                     30
                      A                      A                      A
 Frequencies --    488.9005               524.1757               540.9142
 Red. masses --      6.0228                 3.3492                 2.6855
 Frc consts  --      0.8482                 0.5422                 0.4629
 IR Inten    --     35.5781                24.7687                48.5109

                     31                     32                     33
                      A                      A                      A
 Frequencies --    565.4393               582.8962               619.2987
 Red. masses --      2.1787                 4.1149                 5.3076
 Frc consts  --      0.4104                 0.8237                 1.1994
 IR Inten    --     53.1074                27.6906                 7.5101

                     34                     35                     36
                      A                      A                      A
 Frequencies --    632.0735               705.9820               728.8953
 Red. masses --      3.9991                 5.2860                 5.4083
 Frc consts  --      0.9413                 1.5523                 1.6929
 IR Inten    --      0.0829                 8.9188                17.8505

                     37                     38                     39
                      A                      A                      A
 Frequencies --    764.3657               782.5612               811.5349
 Red. masses --      1.3310                 5.6542                 2.4605
 Frc consts  --      0.4582                 2.0401                 0.9547
 IR Inten    --      3.6062                17.1405                19.4054

                     40                     41                     42
                      A                      A                      A
 Frequencies --    834.4990               845.5483               871.3386
 Red. masses --      1.6426                 2.2946                 3.4441
 Frc consts  --      0.6740                 0.9666                 1.5406
 IR Inten    --      5.4783                16.7446                59.8750

                     43                     44                     45
                      A                      A                      A
 Frequencies --    877.1269               908.5844               927.8379
 Red. masses --      3.6028                 1.5348                 1.4284
 Frc consts  --      1.6331                 0.7465                 0.7245
 IR Inten    --    161.9214                15.9406                 3.0369

                     46                     47                     48
                      A                      A                      A
 Frequencies --    942.3402               949.9331               959.9270
 Red. masses --      1.6791                 1.7500                 3.4267
 Frc consts  --      0.8785                 0.9304                 1.8604
 IR Inten    --      2.3144                 2.2324                 5.9272

                     49                     50                     51
                      A                      A                      A
 Frequencies --    979.6735              1002.5121              1011.4400
 Red. masses --      1.1967                 2.8645                 1.3617
 Frc consts  --      0.6767                 1.6962                 0.8208
 IR Inten    --      1.0025                12.8494                17.3788

                     52                     53                     54
                      A                      A                      A
 Frequencies --   1016.2045              1026.4821              1056.1920
 Red. masses --      1.3936                 2.3867                 1.4627
 Frc consts  --      0.8479                 1.4817                 0.9614
 IR Inten    --     49.6951                28.2679                 9.2878

                     55                     56                     57
                      A                      A                      A
 Frequencies --   1063.0728              1068.2928              1083.1572
 Red. masses --      1.3895                 1.5124                 1.4347
 Frc consts  --      0.9252                 1.0170                 0.9918
 IR Inten    --      0.4387                24.7790                 1.0452

                     58                     59                     60
                      A                      A                      A
 Frequencies --   1111.9379              1131.9834              1135.3309
 Red. masses --      2.5382                 6.9921                 1.2184
 Frc consts  --      1.8490                 5.2788                 0.9253
 IR Inten    --     51.1997               198.6697                 6.0822

                     61                     62                     63
                      A                      A                      A
 Frequencies --   1196.9831              1205.5668              1230.9377
 Red. masses --      2.0314                 1.3461                 2.0766
 Frc consts  --      1.7149                 1.1527                 1.8538
 IR Inten    --     43.6516                 0.2226                21.0156

                     64                     65                     66
                      A                      A                      A
 Frequencies --   1235.3554              1239.5530              1243.3773
 Red. masses --      2.2215                 2.5485                 2.0235
 Frc consts  --      1.9974                 2.3071                 1.8432
 IR Inten    --     55.3418                10.9093                 9.8639

                     67                     68                     69
                      A                      A                      A
 Frequencies --   1274.9395              1304.2261              1320.6758
 Red. masses --      2.3584                 4.8826                 4.5739
 Frc consts  --      2.2587                 4.8933                 4.7003
 IR Inten    --     59.9470                12.9855                32.7281

                     70                     71                     72
                      A                      A                      A
 Frequencies --   1334.5763              1338.7727              1374.4707
 Red. masses --      2.3806                 8.3137                 1.2414
 Frc consts  --      2.4981                 8.7793                 1.3818
 IR Inten    --    265.3565                53.2385                24.7090

                     73                     74                     75
                      A                      A                      A
 Frequencies --   1407.4411              1416.2073              1431.0828
 Red. masses --      1.4354                 1.6159                 1.2351
 Frc consts  --      1.6753                 1.9095                 1.4904
 IR Inten    --     51.2780               105.3273                 1.3829

                     76                     77                     78
                      A                      A                      A
 Frequencies --   1441.7881              1465.3217              1476.1067
 Red. masses --      1.2311                 1.3770                 1.1499
 Frc consts  --      1.5078                 1.7419                 1.4761
 IR Inten    --      3.9473                 8.4356                24.1144

                     79                     80                     81
                      A                      A                      A
 Frequencies --   1478.8989              1481.2279              1492.7013
 Red. masses --      1.9551                 1.1285                 2.8400
 Frc consts  --      2.5193                 1.4588                 3.7283
 IR Inten    --     18.9163                 2.3608               397.6445

                     82                     83                     84
                      A                      A                      A
 Frequencies --   1498.8794              1513.3850              1520.1935
 Red. masses --      1.0591                 1.0537                 1.0635
 Frc consts  --      1.4019                 1.4219                 1.4480
 IR Inten    --     10.5357                 4.3653                 8.9199

                     85                     86                     87
                      A                      A                      A
 Frequencies --   1521.5166              1526.7825              1539.8704
 Red. masses --      1.0529                 1.4280                 1.0907
 Frc consts  --      1.4361                 1.9612                 1.5238
 IR Inten    --      0.7399                 8.4001                 1.8824

                     88                     89                     90
                      A                      A                      A
 Frequencies --   1542.7640              1554.3945              1621.4216
 Red. masses --      1.0553                 1.0633                 5.9589
 Frc consts  --      1.4799                 1.5137                 9.2302
 IR Inten    --      6.1604                10.8189                30.7692

                     91                     92                     93
                      A                      A                      A
 Frequencies --   1663.9848              3052.2907              3057.2558
 Red. masses --      6.2072                 1.0351                 1.0367
 Frc consts  --     10.1261                 5.6818                 5.7092
 IR Inten    --     30.1930                19.1011                19.6746

                     94                     95                     96
                      A                      A                      A
 Frequencies --   3064.9346              3089.1917              3119.8051
 Red. masses --      1.0399                 1.0286                 1.1028
 Frc consts  --      5.7555                 5.7834                 6.3242
 IR Inten    --     24.4778                 5.3227                 0.1991

                     97                     98                     99
                      A                      A                      A
 Frequencies --   3123.2477              3125.8046              3128.7150
 Red. masses --      1.1022                 1.1027                 1.1007
 Frc consts  --      6.3348                 6.3477                 6.3484
 IR Inten    --      3.8741                35.2331                33.5910

                    100                    101                    102
                      A                      A                      A
 Frequencies --   3130.8568              3143.0541              3154.8054
 Red. masses --      1.1006                 1.0861                 1.0537
 Frc consts  --      6.3565                 6.3218                 6.1787
 IR Inten    --     68.6201                18.5009                 7.9481

                    103                    104                    105
                      A                      A                      A
 Frequencies --   3155.9892              3161.0028              3193.1690
 Red. masses --      1.0974                 1.0595                 1.1069
 Frc consts  --      6.4398                 6.2376                 6.6499
 IR Inten    --     22.8673                10.0723                 0.5766

                    106                    107                    108
                      A                      A                      A
 Frequencies --   3206.3758              3218.5609              3235.5725
 Red. masses --      1.1085                 1.0906                 1.1201
 Frc consts  --      6.7144                 6.6562                 6.9087
 IR Inten    --      3.1628                23.9225                 0.9127

                    109                    110                    111
                      A                      A                      A
 Frequencies --   3248.9279              3249.6940              3631.6395
 Red. masses --      1.1163                 1.0894                 1.0747
 Frc consts  --      6.9425                 6.7785                 8.3509
 IR Inten    --     13.8388                 2.5494                53.0189

 - Thermochemistry -
 -------------------
 Temperature   298.150 Kelvin.  Pressure   1.00000 Atm.
 Atom     1 has atomic number  6 and mass  12.00000

 Molecular mass:   284.11946 amu.
 Principal axes and moments of inertia in atomic units:
                           1         2         3
     Eigenvalues --  3725.362668305.10964**********
           X            0.99962   0.02743   0.00298
           Y           -0.02740   0.99958  -0.00923
           Z           -0.00323   0.00914   0.99995
 This molecule is an asymmetric top.
 Rotational symmetry number  1.
 Warning -- assumption of classical behavior for rotation
           may cause significant error
 Rotational temperatures (Kelvin)      0.02325     0.01043     0.00784
 Rotational constants (GHZ):           0.48445     0.21730     0.16335
 Zero-point vibrational energy     852440.3 (Joules/Mol)
                                  203.73813 (Kcal/Mol)
 Warning -- explicit consideration of  33 degrees of freedom as
           vibrations may cause significant error
 Vibrational temperatures:     33.53    49.68    72.08    97.94   103.88
          (Kelvin)            125.69   184.59   195.57   235.63   255.33
                              292.43   299.40   317.39   343.39   375.39
                              391.10   428.19   476.43   509.70   517.46
                              530.44   539.14   577.13   584.95   616.26
                              636.99   680.51   703.42   754.17   778.25
                              813.54   838.66   891.03   909.41  1015.75
                             1048.72  1099.75  1125.93  1167.62  1200.66
                             1216.56  1253.66  1261.99  1307.25  1334.95
                             1355.82  1366.74  1381.12  1409.53  1442.39
                             1455.24  1462.09  1476.88  1519.62  1529.52
                             1537.04  1558.42  1599.83  1628.67  1633.49
                             1722.19  1734.54  1771.04  1777.40  1783.44
                             1788.94  1834.35  1876.49  1900.16  1920.16
                             1926.20  1977.56  2024.99  2037.61  2059.01
                             2074.41  2108.27  2123.79  2127.81  2131.16
                             2147.66  2156.55  2177.42  2187.22  2189.12
                             2196.70  2215.53  2219.69  2236.43  2332.86
                             2394.10  4391.57  4398.71  4409.76  4444.66
                             4488.70  4493.66  4497.34  4501.52  4504.60
                             4522.15  4539.06  4540.76  4547.98  4594.26
                             4613.26  4630.79  4655.27  4674.48  4675.58
                             5225.12

 Zero-point correction=                           0.324677 (Hartree/Particle)
 Thermal correction to Energy=                    0.344511
 Thermal correction to Enthalpy=                  0.345455
 Thermal correction to Gibbs Free Energy=         0.275767
 Sum of electronic and zero-point Energies=          -1240.442593
 Sum of electronic and thermal Energies=             -1240.422759
 Sum of electronic and thermal Enthalpies=           -1240.421814
 Sum of electronic and thermal Free Energies=        -1240.491503

                     E (Thermal)             CV                S
                      KCal/Mol        Cal/Mol-Kelvin    Cal/Mol-Kelvin
 Total                  216.184             75.744            146.671
 Electronic               0.000              0.000              0.000
 Translational            0.889              2.981             42.831
 Rotational               0.889              2.981             34.191
 Vibrational            214.407             69.783             69.650
 Vibration     1          0.593              1.985              6.330
 Vibration     2          0.594              1.983              5.551
 Vibration     3          0.595              1.978              4.813
 Vibration     4          0.598              1.969              4.208
 Vibration     5          0.598              1.967              4.092
 Vibration     6          0.601              1.958              3.718
 Vibration     7          0.611              1.925              2.971
 Vibration     8          0.614              1.917              2.860
 Vibration     9          0.623              1.887              2.506
 Vibration    10          0.628              1.870              2.355
 Vibration    11          0.639              1.835              2.103
 Vibration    12          0.641              1.828              2.060
 Vibration    13          0.647              1.810              1.954
 Vibration    14          0.657              1.781              1.813
 Vibration    15          0.669              1.744              1.656
 Vibration    16          0.675              1.725              1.585
 Vibration    17          0.691              1.678              1.430
 Vibration    18          0.713              1.613              1.255
 Vibration    19          0.730              1.567              1.147
 Vibration    20          0.734              1.555              1.124
 Vibration    21          0.741              1.537              1.085
 Vibration    22          0.746              1.524              1.060
 Vibration    23          0.767              1.468              0.959
 Vibration    24          0.771              1.456              0.939
 Vibration    25          0.790              1.409              0.864
 Vibration    26          0.802              1.377              0.818
 Vibration    27          0.830              1.310              0.729
 Vibration    28          0.845              1.275              0.686
 Vibration    29          0.879              1.196              0.600
 Vibration    30          0.896              1.160              0.563
 Vibration    31          0.921              1.106              0.513
 Vibration    32          0.940              1.068              0.480
 Vibration    33          0.979              0.991              0.418

 Optimization completed.
    -- Stationary point found.
 Normal termination of Gaussian 16 at Mon Dec 14 14:08:58 2020.

 ----------------------------------------------------------------------
 # B3LYP/6-311++G(d,p) empiricaldispersion=gd3bj scf=xqc pop=npa geom=c
 heck
 ----------------------------------------------------------------------

 --------------------------------------
 CID_72224596_JID_9585_Energie_neutraal
 --------------------------------------
 Structure from the checkpoint file:  "JID_9585.chk"
 Charge =  0 Multiplicity = 1

 SCF Done:  E(RB3LYP) =  -1241.02963054     A.U. after   16 cycles
 Normal termination of Gaussian 16 at Mon Dec 14 14:19:55 2020.

 ----------------------------------------------------------------------
 # B3LYP/6-311++G(d,p) empiricaldispersion=gd3bj scf=xqc pop=npa geom=c
 heck
 ----------------------------------------------------------------------

 ------------------------------------
 CID_72224596_JID_9585_Energie_kation
 ------------------------------------
 Structure from the checkpoint file:  "JID_9585.chk"
 Charge =  1 Multiplicity = 2

 SCF Done:  E(UB3LYP) =  -1240.73958026     A.U. after   24 cycles
 Normal termination of Gaussian 16 at Mon Dec 14 14:43:22 2020.
 Gaussian 16:  ES64L-G16RevA.03 25-Dec-2016

 ----------------------------------------------------------------------
 # B3LYP/6-311++G(d,p) empiricaldispersion=gd3bj scf=xqc pop=npa geom=c
 heck
 ----------------------------------------------------------------------

 -----------------------------------
 CID_72224596_JID_9585_Energie_anion
 -----------------------------------
 Structure from the checkpoint file:  "JID_9585.chk"
 Charge = -1 Multiplicity = 2

                         Standard orientation:
 ---------------------------------------------------------------------
 Center     Atomic      Atomic             Coordinates (Angstroms)
 Number     Number       Type             X           Y           Z
 ---------------------------------------------------------------------
      1          6           0        1.533041    2.767029    1.465968
      2          6           0        0.919322    2.492314    0.072060
      3          6           0        0.085288    3.736746   -0.291100
      4          6           0        2.019779    2.369826   -1.010913
      5          6           0        0.047433    1.222846    0.106285
      6          6           0        0.552581   -0.079363    0.364593
      7          7           0       -0.200497   -1.176341    0.358299
      8          6           0       -1.505615   -1.090078    0.087427
      9          6           0       -2.118699    0.136335   -0.153531
     10          6           0       -1.323175    1.285544   -0.134716
     11          8           0       -3.447839    0.319074   -0.418100
     12          6           0       -4.245403   -0.836096   -0.513663
     13          6           0       -4.751526   -1.467064    0.754891
     14          6           0       -5.676040   -0.654479   -0.129857
     15          7           0        1.912801   -0.331174    0.671722
     16         16           0        2.789334   -1.502653   -0.215326
     17          8           0        2.248104   -1.653995   -1.565967
     18          8           0        4.185126   -1.103401   -0.004754
     19          6           0        2.434982   -2.999107    0.707055
     20          1           0        2.154620    3.668506    1.428488
     21          1           0        2.160216    1.955584    1.846468
     22          1           0        0.740136    2.929284    2.203858
     23          1           0        0.738706    4.614832   -0.306652
     24          1           0       -0.371014    3.645209   -1.282227
     25          1           0       -0.706609    3.928014    0.440688
     26          1           0        2.751114    1.581446   -0.822438
     27          1           0        1.569460    2.164346   -1.987189
     28          1           0        2.571542    3.313890   -1.080217
     29          1           0       -2.063297   -2.020245    0.082393
     30          1           0       -1.815899    2.226972   -0.339002
     31          1           0       -3.992262   -1.472706   -1.360612
     32          1           0       -4.866049   -2.546937    0.786942
     33          1           0       -4.428718   -1.013792    1.687125
     34          1           0       -5.960216    0.332807    0.220866
     35          1           0       -6.433576   -1.169228   -0.713038
     36          1           0        2.513778    0.474918    0.776530
     37          1           0        2.833753   -2.882756    1.715328
     38          1           0        1.350458   -3.111919    0.718512
     39          1           0        2.923459   -3.823314    0.182818
 ---------------------------------------------------------------------

 SCF Done:  E(UB3LYP) =  -1241.02096929     A.U. after   33 cycles
 SCF Done:  E(UB3LYP) =  -1241.02096929     a.u. after    1 cycles

 The electronic state is 2-A.
 Alpha  occ. eigenvalues --  -88.97187 -19.05723 -19.02699 -19.02441 -14.24942
 Alpha  occ. eigenvalues --  -14.18959 -10.13793 -10.13355 -10.12404 -10.11667
 Alpha  occ. eigenvalues --  -10.10562 -10.08842 -10.08428 -10.08367 -10.08320
 Alpha  occ. eigenvalues --  -10.07605 -10.06937 -10.06906 -10.06299  -8.03387
 Alpha  occ. eigenvalues --   -5.99686  -5.99623  -5.99459  -1.02793  -0.97525
 Alpha  occ. eigenvalues --   -0.91812  -0.86594  -0.80349  -0.76790  -0.74200
 Alpha  occ. eigenvalues --   -0.68657  -0.67881  -0.64027  -0.60349  -0.59885
 Alpha  occ. eigenvalues --   -0.56123  -0.54984  -0.52116  -0.50792  -0.50181
 Alpha  occ. eigenvalues --   -0.46722  -0.44400  -0.43836  -0.42688  -0.40520
 Alpha  occ. eigenvalues --   -0.39645  -0.39262  -0.37880  -0.36798  -0.35712
 Alpha  occ. eigenvalues --   -0.35567  -0.34875  -0.34074  -0.33901  -0.32110
 Alpha  occ. eigenvalues --   -0.31670  -0.31093  -0.30259  -0.29604  -0.28225
 Alpha  occ. eigenvalues --   -0.28084  -0.27886  -0.27046  -0.26034  -0.25362
 Alpha  occ. eigenvalues --   -0.25023  -0.24083  -0.23399  -0.22485  -0.21783
 Alpha  occ. eigenvalues --   -0.21179  -0.20680  -0.19376  -0.16775  -0.15556
 Alpha  occ. eigenvalues --   -0.11611   0.04284
 Alpha virt. eigenvalues --    0.05851   0.06314   0.06754   0.07874   0.08189
 Alpha virt. eigenvalues --    0.08287   0.08749   0.09380   0.09713   0.10117
 Alpha virt. eigenvalues --    0.10471   0.10928   0.11372   0.11427   0.12073

  Beta  occ. eigenvalues --  -88.97180 -19.05732 -19.02696 -19.02435 -14.24943
  Beta  occ. eigenvalues --  -14.18706 -10.13775 -10.13319 -10.12414 -10.11660
  Beta  occ. eigenvalues --  -10.10563 -10.08781 -10.08407 -10.08353 -10.08295
  Beta  occ. eigenvalues --  -10.07594 -10.06916 -10.06884 -10.06098  -8.03381
  Beta  occ. eigenvalues --   -5.99671  -5.99619  -5.99452  -1.02779  -0.97526
  Beta  occ. eigenvalues --   -0.91804  -0.86413  -0.80157  -0.76744  -0.74124
  Beta  occ. eigenvalues --   -0.68636  -0.67628  -0.63886  -0.60314  -0.59837
  Beta  occ. eigenvalues --   -0.56063  -0.54824  -0.52056  -0.50663  -0.50052
  Beta  occ. eigenvalues --   -0.46644  -0.44334  -0.43753  -0.42633  -0.40447
  Beta  occ. eigenvalues --   -0.39624  -0.39187  -0.37858  -0.36761  -0.35659
  Beta  occ. eigenvalues --   -0.35522  -0.34827  -0.34043  -0.33878  -0.31869
  Beta  occ. eigenvalues --   -0.31586  -0.31032  -0.30185  -0.29457  -0.28158
  Beta  occ. eigenvalues --   -0.28050  -0.27739  -0.26958  -0.25981  -0.25285
  Beta  occ. eigenvalues --   -0.24947  -0.24051  -0.23326  -0.22436  -0.21721
  Beta  occ. eigenvalues --   -0.21130  -0.20605  -0.19130  -0.15931  -0.15279
  Beta  occ. eigenvalues --   -0.11179
  Beta virt. eigenvalues --    0.06190   0.06771   0.06959   0.08155   0.08260
  Beta virt. eigenvalues --    0.08335   0.08595   0.08978   0.09493   0.09786
  Beta virt. eigenvalues --    0.10240   0.10615   0.11048   0.11484   0.11583

 Mulliken charges and spin densities:
               1          2
     1  C   -0.174128  -0.481874
     2  C   -0.539610   0.683909
     3  C   -0.138583  -0.383148
     4  C   -0.218184  -0.419920
     5  C    1.053540   0.692514
     6  C   -1.147177  -0.188986
     7  N   -0.095769   0.143885
     8  C   -0.093043   0.028413
     9  C    0.422964  -0.923259
    10  C   -0.049261  -0.039408
    11  O   -0.077689   0.020621
    12  C   -0.594655   0.471715
    13  C    0.102068  -0.306204
    14  C    0.611961  -1.074652
    15  N   -0.189178   0.045627
    16  S    0.226332   0.020316
    17  O   -0.143472   0.009690
    18  O   -0.168747  -0.007071
    19  C   -0.330887  -0.209872
    20  H    0.046737   0.113941
    21  H   -0.014297   0.124727
    22  H    0.009730   0.150923
    23  H   -0.178071   0.340974
    24  H    0.040954   0.096406
    25  H   -0.166441   0.306767
    26  H    0.068354   0.040898
    27  H    0.143441   0.020972
    28  H   -0.067399   0.220063
    29  H    0.177604   0.030275
    30  H    0.305686  -0.118516
    31  H   -0.162855   0.392875
    32  H   -0.275035   0.418804
    33  H    0.078094   0.094681
    34  H    0.033971   0.109822
    35  H   -0.236079   0.388677
    36  H    0.345630  -0.042589
    37  H    0.103831   0.083181
    38  H    0.125431   0.126866
    39  H    0.164229   0.017954
 Sum of Mulliken charges =  -1.00000   1.00000

 Dipole moment (field-independent basis, Debye):
    X=              3.7995    Y=             -0.1875    Z=              1.9946  Tot=              4.2954
 Quadrupole moment (field-independent basis, Debye-Ang):
   XX=           -214.8631   YY=           -167.5915   ZZ=           -148.6249
   XY=            -16.3144   XZ=              2.3329   YZ=             -6.1026

 Summary of Natural Population Analysis:

                                       Natural Population
                Natural  -----------------------------------------------
    Atom  No    Charge         Core      Valence    Rydberg      Total
 -----------------------------------------------------------------------
      C    1   -0.27944      0.99962     2.27285    0.00696     3.27944
      C    2   -0.05293      0.99957     2.04331    0.01004     3.05293
      C    3   -0.28565      0.99964     2.27817    0.00784     3.28565
      C    4   -0.28201      0.99963     2.27490    0.00748     3.28201
      C    5   -0.02879      0.99945     2.01850    0.01083     3.02879
      C    6    0.18388      0.99947     1.80074    0.01591     2.81612
      N    7   -0.21723      0.99966     2.70609    0.01148     3.71723
      C    8   -0.00020      0.99953     1.98755    0.01311     3.00020
      C    9    0.13868      0.99936     1.85032    0.01165     2.86132
      C   10   -0.06533      0.99949     2.05735    0.00849     3.06533
      O   11   -0.27535      0.99985     3.26592    0.00958     4.27535
      C   12    0.05250      0.99949     1.93338    0.01464     2.94750
      C   13   -0.21248      0.99963     2.20494    0.00792     3.21248
      C   14   -0.20324      0.99962     2.19385    0.00978     3.20324
      N   15   -0.43073      0.99969     2.91847    0.01257     3.93073
      S   16    1.09296      4.99936     1.80797    0.09971     6.90704
      O   17   -0.45252      0.99990     3.44718    0.00543     4.45252
      O   18   -0.47173      0.99991     3.46609    0.00573     4.47173
      C   19   -0.39095      0.99960     2.38451    0.00683     3.39095
      H   20    0.09835      0.00000     0.40088    0.00077     0.40165
      H   21    0.09330      0.00000     0.40575    0.00095     0.40670
      H   22    0.10444      0.00000     0.39467    0.00089     0.39556
      H   23    0.10033      0.00000     0.39883    0.00084     0.39967
      H   24    0.10186      0.00000     0.39728    0.00086     0.39814
      H   25    0.10327      0.00000     0.39574    0.00099     0.39673
      H   26    0.09785      0.00000     0.40072    0.00142     0.40215
      H   27    0.10514      0.00000     0.39408    0.00077     0.39486
      H   28    0.09786      0.00000     0.40129    0.00085     0.40214
      H   29    0.09368      0.00000     0.40457    0.00176     0.40632
      H   30    0.10472      0.00000     0.39358    0.00170     0.39528
      H   31    0.09507      0.00000     0.40334    0.00159     0.40493
      H   32    0.10520      0.00000     0.39310    0.00170     0.39480
      H   33    0.10693      0.00000     0.39204    0.00103     0.39307
      H   34    0.10646      0.00000     0.39247    0.00107     0.39354
      H   35    0.10542      0.00000     0.39295    0.00163     0.39458
      H   36    0.20322      0.00000     0.29453    0.00224     0.29678
      H   37    0.11334      0.00000     0.38541    0.00126     0.38666
      H   38    0.13386      0.00000     0.36460    0.00153     0.36614
      H   39    0.11026      0.00000     0.38869    0.00105     0.38974
 =======================================================================
   * Total *    0.00000     22.99248    52.70663    0.30089    76.00000

 Normal termination of Gaussian 16 at Mon Dec 14 15:13:55 2020.
