 Gaussian 16, Revision A.03,

 -----------------------------------------------------------
 # opt freq B3LYP/6-31G(d) empiricaldispersion=gd3bj scf=xqc
 -----------------------------------------------------------

 --------------------------------
 CID_119295076_JID_10009_neutraal
 --------------------------------
 Symbolic Z-matrix:
 Charge =  0 Multiplicity = 1

 SCF Done:  E(RB3LYP) =  -896.557634237     A.U. after   15 cycles
 SCF Done:  E(RB3LYP) =  -896.560514223     A.U. after   14 cycles
 SCF Done:  E(RB3LYP) =  -896.560820323     A.U. after   13 cycles
 SCF Done:  E(RB3LYP) =  -896.562205053     A.U. after   15 cycles
 SCF Done:  E(RB3LYP) =  -896.565129300     A.U. after   12 cycles
 SCF Done:  E(RB3LYP) =  -896.565478024     A.U. after   12 cycles
 SCF Done:  E(RB3LYP) =  -896.565629545     A.U. after   11 cycles
 SCF Done:  E(RB3LYP) =  -896.565687191     A.U. after   10 cycles
 SCF Done:  E(RB3LYP) =  -896.565742680     A.U. after   12 cycles
 SCF Done:  E(RB3LYP) =  -896.565789102     A.U. after   11 cycles
 SCF Done:  E(RB3LYP) =  -896.565885701     A.U. after    8 cycles
 SCF Done:  E(RB3LYP) =  -896.565885781     A.U. after    9 cycles
 SCF Done:  E(RB3LYP) =  -896.565885756     A.U. after    7 cycles
 SCF Done:  E(RB3LYP) =  -896.565885672     A.U. after    7 cycles
 SCF Done:  E(RB3LYP) =  -896.565885662     A.U. after    7 cycles
 SCF Done:  E(RB3LYP) =  -896.565885651     A.U. after    6 cycles
 Optimization completed.
    -- Stationary point found.
 Normal termination of Gaussian 16 at Mon Dec 14 19:06:07 2020.

 --------------------------------------------------------------------
 #N Geom=AllCheck Guess=TCheck SCRF=Check GenChk RB3LYP/6-31G(d) Freq
 --------------------------------------------------------------------

 Structure from the checkpoint file:  "JID_10009.chk"
 --------------------------------
 CID_119295076_JID_10009_neutraal
 --------------------------------
 Charge =  0 Multiplicity = 1

 SCF Done:  E(RB3LYP) =  -896.565885651     A.U. after    1 cycles

  Exact polarizability: 228.507   0.334 169.572 -22.857 -14.899 124.135
 Approx polarizability: 304.597   0.019 302.580 -42.086 -43.971 190.179

                      1                      2                      3
                      A                      A                      A
 Frequencies --     13.0590                16.9408                28.4828
 Red. masses --      3.7585                 5.1242                 6.9847
 Frc consts  --      0.0004                 0.0009                 0.0033
 IR Inten    --      0.0579                 0.1425                 1.6542

                      4                      5                      6
                      A                      A                      A
 Frequencies --     39.9906                66.0802                83.0897
 Red. masses --      7.1869                 3.2920                 3.4610
 Frc consts  --      0.0068                 0.0085                 0.0141
 IR Inten    --      6.3216                 1.5136                 1.6634

                      7                      8                      9
                      A                      A                      A
 Frequencies --    108.6746               112.8175               189.6808
 Red. masses --      5.0393                 4.0785                 4.0802
 Frc consts  --      0.0351                 0.0306                 0.0865
 IR Inten    --      0.9900                 0.1434                 1.1763

                     10                     11                     12
                      A                      A                      A
 Frequencies --    200.5037               220.7759               236.2020
 Red. masses --      4.2438                 4.9857                 2.2354
 Frc consts  --      0.1005                 0.1432                 0.0735
 IR Inten    --      0.6374                 2.3306                 3.7596

                     13                     14                     15
                      A                      A                      A
 Frequencies --    298.3570               309.6932               336.1832
 Red. masses --      2.6283                 3.5602                 3.8597
 Frc consts  --      0.1378                 0.2012                 0.2570
 IR Inten    --      4.2072                 3.1746                 2.0751

                     16                     17                     18
                      A                      A                      A
 Frequencies --    343.3914               411.2120               413.5953
 Red. masses --      4.8967                 3.0248                 5.4682
 Frc consts  --      0.3402                 0.3014                 0.5511
 IR Inten    --      0.6702                 0.3752                 7.9732

                     19                     20                     21
                      A                      A                      A
 Frequencies --    433.8510               465.0050               511.5194
 Red. masses --      6.5671                 6.5806                 3.8048
 Frc consts  --      0.7283                 0.8384                 0.5866
 IR Inten    --      2.3541                 7.6113                 2.3086

                     22                     23                     24
                      A                      A                      A
 Frequencies --    568.8491               596.1883               623.1710
 Red. masses --      1.8877                 1.6014                 4.5190
 Frc consts  --      0.3599                 0.3354                 1.0340
 IR Inten    --      3.9150                64.6574                 5.3008

                     25                     26                     27
                      A                      A                      A
 Frequencies --    634.8065               636.0802               676.1364
 Red. masses --      4.3789                 3.9600                 2.6143
 Frc consts  --      1.0397                 0.9440                 0.7042
 IR Inten    --     23.2671                32.1488                47.2312

                     28                     29                     30
                      A                      A                      A
 Frequencies --    687.0204               704.3744               706.0063
 Red. masses --      6.0660                 3.9661                 1.6869
 Frc consts  --      1.6869                 1.1594                 0.4954
 IR Inten    --      8.4286                 5.9505                25.9490

                     31                     32                     33
                      A                      A                      A
 Frequencies --    744.8943               746.7060               759.1469
 Red. masses --      5.0363                 4.7076                 2.0787
 Frc consts  --      1.6465                 1.5465                 0.7058
 IR Inten    --     48.1110                17.7575                 4.2252

                     34                     35                     36
                      A                      A                      A
 Frequencies --    789.4287               813.2968               858.8931
 Red. masses --      1.6325                 1.6029                 1.2915
 Frc consts  --      0.5994                 0.6247                 0.5613
 IR Inten    --     40.0222                 9.7759                 0.9101

                     37                     38                     39
                      A                      A                      A
 Frequencies --    860.8588               890.0186               915.1569
 Red. masses --      1.8441                 1.9798                 1.8599
 Frc consts  --      0.8052                 0.9240                 0.9178
 IR Inten    --      7.8692                50.6525                24.0070

                     40                     41                     42
                      A                      A                      A
 Frequencies --    933.1793               933.7479               946.1469
 Red. masses --      2.4981                 1.4784                11.3560
 Frc consts  --      1.2817                 0.7595                 5.9895
 IR Inten    --      5.2485                 5.1817                46.9729

                     43                     44                     45
                      A                      A                      A
 Frequencies --    968.1769               972.6324               975.3325
 Red. masses --      2.4382                 1.3794                 7.0346
 Frc consts  --      1.3466                 0.7688                 3.9427
 IR Inten    --      1.9814                 0.2460                 6.4737

                     46                     47                     48
                      A                      A                      A
 Frequencies --   1000.1589              1001.1113              1017.4791
 Red. masses --      2.0726                 1.2647                 2.0932
 Frc consts  --      1.2215                 0.7468                 1.2767
 IR Inten    --      5.8889                 0.1807                 8.2859

                     49                     50                     51
                      A                      A                      A
 Frequencies --   1022.9417              1030.9949              1059.9786
 Red. masses --      6.0420                 4.3848                 2.3929
 Frc consts  --      3.7250                 2.7461                 1.5841
 IR Inten    --      0.3710                 4.1710                 2.9582

                     52                     53                     54
                      A                      A                      A
 Frequencies --   1084.7455              1091.5391              1110.6039
 Red. masses --      1.9180                 1.9311                 1.5706
 Frc consts  --      1.3297                 1.3556                 1.1414
 IR Inten    --      0.8833                 1.3365                 2.5256

                     55                     56                     57
                      A                      A                      A
 Frequencies --   1122.0975              1123.8496              1155.5872
 Red. masses --      1.7828                 2.9039                 2.9356
 Frc consts  --      1.3225                 2.1610                 2.3097
 IR Inten    --      4.8852                31.5710                 6.8640

                     58                     59                     60
                      A                      A                      A
 Frequencies --   1195.1934              1199.4279              1206.3092
 Red. masses --      1.1915                 2.0162                 1.4444
 Frc consts  --      1.0028                 1.7089                 1.2384
 IR Inten    --      0.7081                 9.2203                19.8462

                     61                     62                     63
                      A                      A                      A
 Frequencies --   1218.8948              1226.7139              1270.5741
 Red. masses --      1.1425                 1.4223                 1.2480
 Frc consts  --      1.0001                 1.2610                 1.1871
 IR Inten    --      2.4617                 1.6087                 8.4976

                     64                     65                     66
                      A                      A                      A
 Frequencies --   1276.4657              1293.5210              1301.7965
 Red. masses --      2.4112                 1.3650                 1.2239
 Frc consts  --      2.3147                 1.3456                 1.2220
 IR Inten    --      5.5059                43.1393                27.4362

                     67                     68                     69
                      A                      A                      A
 Frequencies --   1333.4543              1341.9703              1361.5540
 Red. masses --      1.3108                 2.5321                 1.3658
 Frc consts  --      1.3732                 2.6867                 1.4918
 IR Inten    --      1.7988                 4.8893                 5.8775

                     70                     71                     72
                      A                      A                      A
 Frequencies --   1363.8866              1371.8932              1376.7414
 Red. masses --      1.3413                 2.2330                 1.9083
 Frc consts  --      1.4701                 2.4762                 2.1311
 IR Inten    --     18.4056                15.5589                76.4882

                     73                     74                     75
                      A                      A                      A
 Frequencies --   1401.9083              1425.1875              1451.2031
 Red. masses --      1.4521                 1.9983                 1.7152
 Frc consts  --      1.6814                 2.3915                 2.1283
 IR Inten    --     11.9108                63.7897                16.9562

                     76                     77                     78
                      A                      A                      A
 Frequencies --   1456.3097              1488.8882              1497.9212
 Red. masses --      2.0140                 2.6469                 1.5452
 Frc consts  --      2.5166                 3.4570                 2.0428
 IR Inten    --     45.9204                19.4616                23.7637

                     79                     80                     81
                      A                      A                      A
 Frequencies --   1512.3843              1523.6427              1525.7837
 Red. masses --      1.2441                 3.6255                 1.1294
 Frc consts  --      1.6766                 4.9589                 1.5492
 IR Inten    --     22.7634                20.0501                21.7599

                     82                     83                     84
                      A                      A                      A
 Frequencies --   1536.3107              1553.4866              1565.3573
 Red. masses --      1.0981                 1.1035                 3.0082
 Frc consts  --      1.5270                 1.5691                 4.3430
 IR Inten    --      2.9541                 1.2041                 0.4854

                     85                     86                     87
                      A                      A                      A
 Frequencies --   1637.1885              1659.7324              1670.1970
 Red. masses --      5.7844                 6.7798                 5.5265
 Frc consts  --      9.1349                11.0038                 9.0831
 IR Inten    --     28.0779                34.3388                 0.1253

                     88                     89                     90
                      A                      A                      A
 Frequencies --   1780.9072              2963.5264              3030.0802
 Red. masses --      7.7638                 1.0735                 1.0851
 Frc consts  --     14.5080                 5.5548                 5.8697
 IR Inten    --    304.9311               104.0726                39.2500

                     91                     92                     93
                      A                      A                      A
 Frequencies --   3055.5373              3082.6343              3094.2126
 Red. masses --      1.0663                 1.0652                 1.0706
 Frc consts  --      5.8657                 5.9641                 6.0392
 IR Inten    --     35.4112                10.5235                42.9585

                     94                     95                     96
                      A                      A                      A
 Frequencies --   3097.8235              3117.8899              3128.5407
 Red. masses --      1.0811                 1.0971                 1.1028
 Frc consts  --      6.1125                 6.2836                 6.3599
 IR Inten    --     17.5929                46.2103                18.4658

                     97                     98                     99
                      A                      A                      A
 Frequencies --   3147.6987              3186.6753              3195.6728
 Red. masses --      1.1041                 1.0851                 1.0884
 Frc consts  --      6.4452                 6.4924                 6.5490
 IR Inten    --     24.3024                 1.0249                 7.5779

                    100                    101                    102
                      A                      A                      A
 Frequencies --   3205.4006              3214.2323              3226.3126
 Red. masses --      1.0923                 1.0964                 1.0939
 Frc consts  --      6.6122                 6.6738                 6.7087
 IR Inten    --     33.2551                18.7336                 3.9043

                    103                    104                    105
                      A                      A                      A
 Frequencies --   3297.2560              3525.1191              3578.0872
 Red. masses --      1.0977                 1.0752                 1.0755
 Frc consts  --      7.0311                 7.8721                 8.1130
 IR Inten    --      0.6231                 1.1475                16.6674

 - Thermochemistry -
 -------------------
 Temperature   298.150 Kelvin.  Pressure   1.00000 Atm.
 Atom     1 has atomic number  6 and mass  12.00000

 Molecular mass:   271.13208 amu.
 Principal axes and moments of inertia in atomic units:
                           1         2         3
     Eigenvalues --  2720.47606********************
           X            0.99993   0.01184   0.00281
           Y           -0.01197   0.99846   0.05417
           Z           -0.00217  -0.05420   0.99853
 This molecule is an asymmetric top.
 Rotational symmetry number  1.
 Warning -- assumption of classical behavior for rotation
           may cause significant error
 Rotational temperatures (Kelvin)      0.03184     0.00827     0.00793
 Rotational constants (GHZ):           0.66339     0.17228     0.16525
 Zero-point vibrational energy     806115.2 (Joules/Mol)
                                  192.66617 (Kcal/Mol)
 Warning -- explicit consideration of  23 degrees of freedom as
           vibrations may cause significant error
 Vibrational temperatures:     18.79    24.37    40.98    57.54    95.07
          (Kelvin)            119.55   156.36   162.32   272.91   288.48
                              317.65   339.84   429.27   445.58   483.69
                              494.06   591.64   595.07   624.21   669.04
                              735.96   818.45   857.78   896.60   913.34
                              915.18   972.81   988.47  1013.44  1015.79
                             1071.74  1074.34  1092.24  1135.81  1170.15
                             1235.76  1238.58  1280.54  1316.71  1342.64
                             1343.45  1361.29  1392.99  1399.40  1403.29
                             1439.01  1440.38  1463.93  1471.78  1483.37
                             1525.07  1560.71  1570.48  1597.91  1614.45
                             1616.97  1662.63  1719.62  1725.71  1735.61
                             1753.72  1764.97  1828.07  1836.55  1861.09
                             1872.99  1918.54  1930.80  1958.97  1962.33
                             1973.85  1980.82  2017.03  2050.53  2087.96
                             2095.30  2142.18  2155.17  2175.98  2192.18
                             2195.26  2210.41  2235.12  2252.20  2355.55
                             2387.98  2403.04  2562.33  4263.85  4359.61
                             4396.24  4435.22  4451.88  4457.08  4485.95
                             4501.27  4528.84  4584.91  4597.86  4611.86
                             4624.56  4641.94  4744.02  5071.86  5148.07

 Zero-point correction=                           0.307033 (Hartree/Particle)
 Thermal correction to Energy=                    0.324273
 Thermal correction to Enthalpy=                  0.325217
 Thermal correction to Gibbs Free Energy=         0.257848
 Sum of electronic and zero-point Energies=           -896.258853
 Sum of electronic and thermal Energies=              -896.241613
 Sum of electronic and thermal Enthalpies=            -896.240669
 Sum of electronic and thermal Free Energies=         -896.308038

                     E (Thermal)             CV                S
                      KCal/Mol        Cal/Mol-Kelvin    Cal/Mol-Kelvin
 Total                  203.484             66.126            141.791
 Electronic               0.000              0.000              0.000
 Translational            0.889              2.981             42.691
 Rotational               0.889              2.981             34.097
 Vibrational            201.707             60.164             65.003
 Vibration     1          0.593              1.987              7.481
 Vibration     2          0.593              1.986              6.964
 Vibration     3          0.593              1.984              5.932
 Vibration     4          0.594              1.981              5.260
 Vibration     5          0.597              1.970              4.267
 Vibration     6          0.600              1.961              3.817
 Vibration     7          0.606              1.942              3.292
 Vibration     8          0.607              1.939              3.220
 Vibration     9          0.633              1.854              2.231
 Vibration    10          0.638              1.839              2.128
 Vibration    11          0.647              1.809              1.953
 Vibration    12          0.655              1.785              1.831
 Vibration    13          0.691              1.677              1.426
 Vibration    14          0.699              1.655              1.364
 Vibration    15          0.717              1.603              1.230
 Vibration    16          0.722              1.589              1.196
 Vibration    17          0.775              1.446              0.922
 Vibration    18          0.777              1.441              0.914
 Vibration    19          0.795              1.396              0.846
 Vibration    20          0.822              1.328              0.752
 Vibration    21          0.867              1.224              0.630
 Vibration    22          0.925              1.099              0.506
 Vibration    23          0.954              1.040              0.456

 Optimization completed.
    -- Stationary point found.
 Normal termination of Gaussian 16 at Mon Dec 14 19:23:45 2020.

 ----------------------------------------------------------------------
 # B3LYP/6-311++G(d,p) empiricaldispersion=gd3bj scf=xqc pop=npa geom=c
 heck
 ----------------------------------------------------------------------

 ----------------------------------------
 CID_119295076_JID_10009_Energie_neutraal
 ----------------------------------------
 Structure from the checkpoint file:  "JID_10009.chk"
 Charge =  0 Multiplicity = 1

 SCF Done:  E(RB3LYP) =  -896.811726980     A.U. after   16 cycles
 Normal termination of Gaussian 16 at Mon Dec 14 19:31:00 2020.

 ----------------------------------------------------------------------
 # B3LYP/6-311++G(d,p) empiricaldispersion=gd3bj scf=xqc pop=npa geom=c
 heck
 ----------------------------------------------------------------------

 --------------------------------------
 CID_119295076_JID_10009_Energie_kation
 --------------------------------------
 Structure from the checkpoint file:  "JID_10009.chk"
 Charge =  1 Multiplicity = 2

 SCF Done:  E(UB3LYP) =  -896.513764412     A.U. after   28 cycles
 Normal termination of Gaussian 16 at Mon Dec 14 19:48:25 2020.
 Gaussian 16:  ES64L-G16RevA.03 25-Dec-2016

 ----------------------------------------------------------------------
 # B3LYP/6-311++G(d,p) empiricaldispersion=gd3bj scf=xqc pop=npa geom=c
 heck
 ----------------------------------------------------------------------

 -------------------------------------
 CID_119295076_JID_10009_Energie_anion
 -------------------------------------
 Structure from the checkpoint file:  "JID_10009.chk"
 Charge = -1 Multiplicity = 2

                         Standard orientation:
 ---------------------------------------------------------------------
 Center     Atomic      Atomic             Coordinates (Angstroms)
 Number     Number       Type             X           Y           Z
 ---------------------------------------------------------------------
      1          6           0       -2.178099   -1.450848   -1.691670
      2          6           0       -2.092207    0.090545   -1.703975
      3          6           0       -3.304164    0.567455   -0.837920
      4          7           0       -3.914296   -0.677062   -0.345290
      5          6           0       -3.645604   -1.716434   -1.346084
      6          6           0       -2.908784    1.573134    0.247969
      7          8           0       -3.048799    2.772863    0.042001
      8          7           0       -2.396332    1.136699    1.448690
      9          6           0       -1.884371   -0.177463    1.788937
     10          6           0       -0.462601   -0.379966    1.358778
     11          6           0        0.497158    0.448709    0.866942
     12          6           0        1.623273   -0.408169    0.646458
     13          7           0        1.347419   -1.654267    0.984776
     14          8           0        0.020862   -1.638696    1.438621
     15          6           0        2.948560   -0.051454    0.116872
     16          6           0        3.983488   -0.999979    0.094124
     17          6           0        5.234947   -0.661373   -0.410114
     18          6           0        5.474224    0.626227   -0.897309
     19          6           0        4.450790    1.573757   -0.878099
     20          6           0        3.195495    1.237457   -0.374641
     21          1           0       -1.882439   -1.895261   -2.645974
     22          1           0       -1.531126   -1.867088   -0.913141
     23          1           0       -2.199538    0.485823   -2.717414
     24          1           0       -1.137179    0.447667   -1.314430
     25          1           0       -3.987493    1.141781   -1.477369
     26          1           0       -4.906160   -0.557161   -0.157828
     27          1           0       -4.273245   -1.615909   -2.249742
     28          1           0       -3.819145   -2.710574   -0.921377
     29          1           0       -2.114483    1.912469    2.037133
     30          1           0       -1.963706   -0.313686    2.874481
     31          1           0       -2.528758   -0.922483    1.315620
     32          1           0        0.413001    1.508904    0.688093
     33          1           0        3.791515   -1.996639    0.476424
     34          1           0        6.028110   -1.403491   -0.421558
     35          1           0        6.452814    0.888398   -1.289130
     36          1           0        4.627328    2.576456   -1.256531
     37          1           0        2.403826    1.980291   -0.371065
 ---------------------------------------------------------------------

 SCF Done:  E(UB3LYP) =  -896.814044141     A.U. after   32 cycles

 The electronic state is 2-A.
 Alpha  occ. eigenvalues --  -19.07445 -18.99789 -14.24800 -14.21455 -14.21176
 Alpha  occ. eigenvalues --  -10.18136 -10.12064 -10.12012 -10.11758 -10.10469
 Alpha  occ. eigenvalues --  -10.08004 -10.07798 -10.07582 -10.05982 -10.05879
 Alpha  occ. eigenvalues --  -10.05784 -10.05768 -10.05649 -10.04988 -10.04718
 Alpha  occ. eigenvalues --   -1.01304  -0.94959  -0.84130  -0.82810  -0.75788
 Alpha  occ. eigenvalues --   -0.72790  -0.68640  -0.67555  -0.65218  -0.63196
 Alpha  occ. eigenvalues --   -0.62982  -0.61180  -0.53637  -0.51590  -0.50143
 Alpha  occ. eigenvalues --   -0.49823  -0.47932  -0.47019  -0.44555  -0.43964
 Alpha  occ. eigenvalues --   -0.42188  -0.40292  -0.39643  -0.37771  -0.36132
 Alpha  occ. eigenvalues --   -0.35400  -0.34695  -0.34150  -0.33850  -0.32204
 Alpha  occ. eigenvalues --   -0.31422  -0.31344  -0.30827  -0.30756  -0.29924
 Alpha  occ. eigenvalues --   -0.29072  -0.28710  -0.26887  -0.26028  -0.25807
 Alpha  occ. eigenvalues --   -0.25049  -0.23824  -0.23236  -0.23063  -0.19723
 Alpha  occ. eigenvalues --   -0.18547  -0.17099  -0.16461  -0.15134  -0.14322
 Alpha  occ. eigenvalues --   -0.13883  -0.12272   0.03929
 Alpha virt. eigenvalues --    0.05330   0.07120   0.07613   0.07998   0.08285
 Alpha virt. eigenvalues --    0.09105   0.09528   0.09679   0.10060   0.10215
 Alpha virt. eigenvalues --    0.10751   0.11058   0.11419   0.11740   0.12754

  Beta  occ. eigenvalues --  -19.07246 -18.99789 -14.24796 -14.21441 -14.20732
  Beta  occ. eigenvalues --  -10.18134 -10.12066 -10.11947 -10.11749 -10.10448
  Beta  occ. eigenvalues --  -10.07997 -10.07728 -10.07578 -10.06025 -10.05932
  Beta  occ. eigenvalues --  -10.05759 -10.05653 -10.05599 -10.04772 -10.04593
  Beta  occ. eigenvalues --   -1.00907  -0.94955  -0.84111  -0.82790  -0.75382
  Beta  occ. eigenvalues --   -0.72471  -0.68467  -0.67529  -0.65184  -0.62986
  Beta  occ. eigenvalues --   -0.62675  -0.61063  -0.53606  -0.51244  -0.50012
  Beta  occ. eigenvalues --   -0.49717  -0.47886  -0.46929  -0.44334  -0.43915
  Beta  occ. eigenvalues --   -0.42104  -0.40240  -0.39611  -0.37624  -0.35789
  Beta  occ. eigenvalues --   -0.35183  -0.34605  -0.33977  -0.33700  -0.32130
  Beta  occ. eigenvalues --   -0.31320  -0.31289  -0.30725  -0.30491  -0.29841
  Beta  occ. eigenvalues --   -0.28990  -0.28646  -0.26731  -0.25791  -0.25333
  Beta  occ. eigenvalues --   -0.25027  -0.23795  -0.23097  -0.22967  -0.18709
  Beta  occ. eigenvalues --   -0.18257  -0.16979  -0.16291  -0.14710  -0.13871
  Beta  occ. eigenvalues --   -0.13470  -0.10753
  Beta virt. eigenvalues --    0.06083   0.07276   0.07610   0.08173   0.08484
  Beta virt. eigenvalues --    0.08562   0.09087   0.09689   0.09716   0.10228
  Beta virt. eigenvalues --    0.10246   0.10828   0.11171   0.11684   0.12282

 Mulliken charges and spin densities:
               1          2
     1  C   -0.722752   0.270667
     2  C    0.179827  -0.270392
     3  C    0.266208  -0.299930
     4  N   -0.304880   0.078430
     5  C    0.611362  -0.981112
     6  C   -0.481429   0.273471
     7  O   -0.317478   0.001941
     8  N   -0.118935   0.020525
     9  C   -0.787327   0.020712
    10  C    0.661277   0.000046
    11  C   -0.703443  -0.124487
    12  C    0.250504  -0.015657
    13  N   -0.477620   0.226567
    14  O    0.256841   0.039806
    15  C    1.316587   0.035125
    16  C    0.530061   0.171327
    17  C   -0.385315  -0.021208
    18  C   -0.395944   0.159489
    19  C   -0.424486   0.012035
    20  C   -1.566555   0.019994
    21  H    0.068967   0.096162
    22  H    0.171022  -0.010268
    23  H    0.076746   0.106340
    24  H    0.099069   0.043382
    25  H    0.012586   0.234164
    26  H   -0.006199   0.274106
    27  H   -0.314176   0.458364
    28  H    0.039247   0.115115
    29  H    0.271726   0.041539
    30  H    0.082850   0.091996
    31  H    0.371436  -0.035555
    32  H    0.149967  -0.015964
    33  H    0.179749  -0.008426
    34  H    0.123883   0.002867
    35  H    0.102087  -0.013393
    36  H    0.142685  -0.000482
    37  H    0.041854   0.002706
 Sum of Mulliken charges =  -1.00000   1.00000

 Dipole moment (field-independent basis, Debye):
    X=             -0.4445    Y=              0.5975    Z=              1.3695  Tot=              1.5589
 Quadrupole moment (field-independent basis, Debye-Ang):
   XX=           -200.0373   YY=           -150.2160   ZZ=           -139.3407
   XY=              7.8794   XZ=            -10.3688   YZ=              3.0810

 Summary of Natural Population Analysis:

                                       Natural Population
                Natural  -----------------------------------------------
    Atom  No    Charge         Core      Valence    Rydberg      Total
 -----------------------------------------------------------------------
      C    1   -0.19920      0.99963     2.19118    0.00839     3.19920
      C    2   -0.19369      0.99962     2.18558    0.00849     3.19369
      C    3   -0.04857      0.99956     2.03593    0.01307     3.04857
      N    4   -0.34998      0.99974     2.83814    0.01211     3.84998
      C    5   -0.08664      0.99963     2.07608    0.01093     3.08664
      C    6    0.34446      0.99964     1.63161    0.02430     2.65554
      O    7   -0.32610      0.99988     3.32048    0.00574     4.32610
      N    8   -0.31424      0.99967     2.80505    0.00952     3.81424
      C    9   -0.12280      0.99956     2.11099    0.01226     3.12280
      C   10    0.16880      0.99948     1.81804    0.01368     2.83120
      C   11   -0.18485      0.99944     2.17905    0.00636     3.18485
      C   12    0.07221      0.99959     1.91334    0.01486     2.92779
      N   13   -0.02495      0.99967     2.51069    0.01459     3.52495
      O   14   -0.16122      0.99985     3.15238    0.00899     4.16122
      C   15   -0.02955      0.99942     2.01457    0.01557     3.02955
      C   16   -0.01781      0.99946     2.01147    0.00688     3.01781
      C   17   -0.14459      0.99965     2.12625    0.01869     3.14459
      C   18   -0.08316      0.99949     2.06653    0.01714     3.08316
      C   19   -0.06863      0.99946     2.06116    0.00801     3.06863
      C   20   -0.10303      0.99951     2.08764    0.01589     3.10303
      H   21    0.10166      0.00000     0.39751    0.00082     0.39834
      H   22    0.10676      0.00000     0.39168    0.00157     0.39324
      H   23    0.10084      0.00000     0.39813    0.00103     0.39916
      H   24    0.11193      0.00000     0.38669    0.00138     0.38807
      H   25    0.10019      0.00000     0.39834    0.00147     0.39981
      H   26    0.18090      0.00000     0.31643    0.00267     0.31910
      H   27    0.08099      0.00000     0.41716    0.00185     0.41901
      H   28    0.09439      0.00000     0.40470    0.00091     0.40561
      H   29    0.19112      0.00000     0.30671    0.00217     0.30888
      H   30    0.10282      0.00000     0.39602    0.00116     0.39718
      H   31    0.12900      0.00000     0.36908    0.00192     0.37100
      H   32    0.11107      0.00000     0.38804    0.00090     0.38893
      H   33    0.10019      0.00000     0.39834    0.00146     0.39981
      H   34    0.09238      0.00000     0.40624    0.00138     0.40762
      H   35    0.08839      0.00000     0.40988    0.00173     0.41161
      H   36    0.08960      0.00000     0.40945    0.00095     0.41040
      H   37    0.09314      0.00000     0.40487    0.00199     0.40686
 =======================================================================
   * Total *    0.00182     19.99193    51.73543    0.27082    71.99818

 Normal termination of Gaussian 16 at Mon Dec 14 20:07:25 2020.
