 Gaussian 16, Revision A.03,

 -----------------------------------------------------------
 # opt freq B3LYP/6-31G(d) empiricaldispersion=gd3bj scf=xqc
 -----------------------------------------------------------

 -------------------------------
 CID_130036911_JID_1724_neutraal
 -------------------------------
 Symbolic Z-matrix:
 Charge =  0 Multiplicity = 1

 SCF Done:  E(RB3LYP) =  -500.634424524     A.U. after   15 cycles
 SCF Done:  E(RB3LYP) =  -500.642967636     A.U. after   13 cycles
 SCF Done:  E(RB3LYP) =  -500.643656542     A.U. after   13 cycles
 SCF Done:  E(RB3LYP) =  -500.643689226     A.U. after   11 cycles
 SCF Done:  E(RB3LYP) =  -500.643742627     A.U. after   12 cycles
 SCF Done:  E(RB3LYP) =  -500.643789015     A.U. after   10 cycles
 SCF Done:  E(RB3LYP) =  -500.643797481     A.U. after   10 cycles
 SCF Done:  E(RB3LYP) =  -500.643798143     A.U. after    8 cycles
 SCF Done:  E(RB3LYP) =  -500.643798254     A.U. after    7 cycles
 Optimization completed.
    -- Stationary point found.

 1\1\GINC-NODE101\FOpt\RB3LYP\6-31G(d)\C9H12O2\VSC10255\08-Dec-2020\0\\
 # opt freq B3LYP/6-31G(d) empiricaldispersion=gd3bj scf=xqc\\CID_13003
 6911_JID_1724_neutraal\\0,1\C,1.0883225663,0.0369563199,-0.0581655042\
 C,0.0476414723,-1.0535972992,-0.3837184816\C,-0.2623000876,-1.91983577
 39,0.8602691981\C,0.8975292115,-2.9552915239,0.9252624902\C,1.47365881
 13,-3.0832678212,-0.5133460674\C,0.6288156461,-2.1155681098,-1.2999329
 652\C,0.1282296681,-2.0928423261,-2.5425670972\C,-0.90136552,-1.022803
 9922,-2.6391187418\O,-1.5014223957,-0.6705515495,-3.6351711999\C,-1.12

 Normal termination of Gaussian 16 at Tue Dec  8 20:52:06 2020.

 --------------------------------------------------------------------
 #N Geom=AllCheck Guess=TCheck SCRF=Check GenChk RB3LYP/6-31G(d) Freq
 --------------------------------------------------------------------

 Structure from the checkpoint file:  "JID_1724.chk"
 -------------------------------
 CID_130036911_JID_1724_neutraal
 -------------------------------
 Charge =  0 Multiplicity = 1

 SCF Done:  E(RB3LYP) =  -500.643798254     A.U. after    1 cycles

  Exact polarizability: 115.812  -5.800  91.390   0.316   1.384  73.651
 Approx polarizability: 181.258 -15.096 131.732  -3.485   1.686 108.307

                      1                      2                      3
                      A                      A                      A
 Frequencies --     65.8810               100.5098               154.9514
 Red. masses --      3.5447                 3.2089                 3.0680
 Frc consts  --      0.0091                 0.0191                 0.0434
 IR Inten    --      3.6167                 1.0647                 1.1113

                      4                      5                      6
                      A                      A                      A
 Frequencies --    220.3995               235.4222               262.2194
 Red. masses --      3.4287                 2.7611                 1.0986
 Frc consts  --      0.0981                 0.0902                 0.0445
 IR Inten    --      1.6187                 9.1822                 1.5342

                      7                      8                      9
                      A                      A                      A
 Frequencies --    328.7829               346.9488               355.3488
 Red. masses --      1.7292                 2.3676                 2.0491
 Frc consts  --      0.1101                 0.1679                 0.1524
 IR Inten    --     43.9249                60.4516                25.7054

                     10                     11                     12
                      A                      A                      A
 Frequencies --    374.3983               429.5986               511.2957
 Red. masses --      2.1014                 3.4652                 3.7799
 Frc consts  --      0.1736                 0.3768                 0.5822
 IR Inten    --     14.3981                 3.5472                 2.5034

                     13                     14                     15
                      A                      A                      A
 Frequencies --    529.5640               578.0440               652.7042
 Red. masses --      3.4244                 2.7972                 3.2651
 Frc consts  --      0.5658                 0.5507                 0.8196
 IR Inten    --      8.8507                 2.1765                 1.2942

                     16                     17                     18
                      A                      A                      A
 Frequencies --    671.9248               723.4577               763.8115
 Red. masses --      4.0870                 3.3007                 2.8235
 Frc consts  --      1.0872                 1.0178                 0.9705
 IR Inten    --      1.6483                 9.3850                 6.1291

                     19                     20                     21
                      A                      A                      A
 Frequencies --    824.1809               850.2103               885.0100
 Red. masses --      3.4341                 1.9575                 2.2688
 Frc consts  --      1.3744                 0.8337                 1.0470
 IR Inten    --     12.3304                 6.0387                 3.2179

                     22                     23                     24
                      A                      A                      A
 Frequencies --    893.9792               924.4368               938.7012
 Red. masses --      1.5809                 2.1747                 2.5770
 Frc consts  --      0.7444                 1.0950                 1.3379
 IR Inten    --     13.9033                 6.4839                10.5942

                     25                     26                     27
                      A                      A                      A
 Frequencies --    971.3403               984.6225              1020.7005
 Red. masses --      2.3263                 1.6786                 2.1220
 Frc consts  --      1.2932                 0.9588                 1.3025
 IR Inten    --      8.1233                 0.5252                 6.6989

                     28                     29                     30
                      A                      A                      A
 Frequencies --   1049.2344              1097.0471              1111.3705
 Red. masses --      2.5856                 2.4659                 1.9559
 Frc consts  --      1.6771                 1.7486                 1.4234
 IR Inten    --     61.9335                16.3824                 7.8434

                     31                     32                     33
                      A                      A                      A
 Frequencies --   1157.9731              1178.7390              1196.5698
 Red. masses --      1.4035                 1.6493                 2.1691
 Frc consts  --      1.1089                 1.3502                 1.8298
 IR Inten    --      2.7332                 1.8262                54.7613

                     34                     35                     36
                      A                      A                      A
 Frequencies --   1225.1441              1243.9359              1267.7042
 Red. masses --      1.4873                 1.6171                 1.5273
 Frc consts  --      1.3153                 1.4743                 1.4462
 IR Inten    --      3.9601                11.4763                13.7361

                     37                     38                     39
                      A                      A                      A
 Frequencies --   1274.5249              1286.9996              1304.6903
 Red. masses --      1.9587                 1.7337                 1.5419
 Frc consts  --      1.8747                 1.6919                 1.5464
 IR Inten    --     14.6271                13.9951                26.0896

                     40                     41                     42
                      A                      A                      A
 Frequencies --   1340.6296              1355.8127              1370.4909
 Red. masses --      1.4919                 1.6333                 1.4904
 Frc consts  --      1.5798                 1.7690                 1.6494
 IR Inten    --      1.3134                18.4318                23.6904

                     43                     44                     45
                      A                      A                      A
 Frequencies --   1406.7384              1438.2705              1486.1519
 Red. masses --      1.4160                 1.2158                 1.0898
 Frc consts  --      1.6510                 1.4818                 1.4182
 IR Inten    --     13.3970                 4.5101                 6.6526

                     46                     47                     48
                      A                      A                      A
 Frequencies --   1510.5862              1522.7093              1530.9152
 Red. masses --      1.0757                 1.0627                 1.0861
 Frc consts  --      1.4462                 1.4517                 1.4998
 IR Inten    --      0.8780                 5.9557                 2.4875

                     49                     50                     51
                      A                      A                      A
 Frequencies --   1538.4022              1707.3360              1819.3733
 Red. masses --      1.0542                 8.6922                12.3991
 Frc consts  --      1.4699                14.9285                24.1815
 IR Inten    --      3.3304                36.0022               328.0320

                     52                     53                     54
                      A                      A                      A
 Frequencies --   3030.2350              3051.2497              3055.9884
 Red. masses --      1.0859                 1.0381                 1.0624
 Frc consts  --      5.8749                 5.6945                 5.8455
 IR Inten    --     49.1359                27.8682                15.8905

                     55                     56                     57
                      A                      A                      A
 Frequencies --   3064.0793              3088.5629              3105.0731
 Red. masses --      1.0651                 1.0630                 1.1008
 Frc consts  --      5.8920                 5.9743                 6.2533
 IR Inten    --     17.9611                19.6729                19.5978

                     58                     59                     60
                      A                      A                      A
 Frequencies --   3116.2377              3123.1225              3135.0259
 Red. masses --      1.1028                 1.0983                 1.1062
 Frc consts  --      6.3099                 6.3116                 6.4060
 IR Inten    --     30.2028                10.4646                27.1128

                     61                     62                     63
                      A                      A                      A
 Frequencies --   3149.3849              3226.0773              3735.1755
 Red. masses --      1.1005                 1.0959                 1.0662
 Frc consts  --      6.4310                 6.7199                 8.7641
 IR Inten    --     11.1811                 6.1107                14.6629

 - Thermochemistry -
 -------------------
 Temperature   298.150 Kelvin.  Pressure   1.00000 Atm.
 Atom     1 has atomic number  6 and mass  12.00000

 Molecular mass:   152.08373 amu.
 Principal axes and moments of inertia in atomic units:
                           1         2         3
     Eigenvalues --   919.525552068.018082369.99951
           X            0.99995   0.00519   0.00885
           Y           -0.00541   0.99967   0.02494
           Z           -0.00872  -0.02499   0.99965
 This molecule is an asymmetric top.
 Rotational symmetry number  1.
 Warning -- assumption of classical behavior for rotation
           may cause significant error
 Rotational temperatures (Kelvin)      0.09419     0.04188     0.03655
 Rotational constants (GHZ):           1.96269     0.87269     0.76149
 Zero-point vibrational energy     513796.1 (Joules/Mol)
                                  122.80022 (Kcal/Mol)
 Warning -- explicit consideration of  14 degrees of freedom as
           vibrations may cause significant error
 Vibrational temperatures:     94.79   144.61   222.94   317.11   338.72
          (Kelvin)            377.28   473.05   499.18   511.27   538.68
                              618.10   735.64   761.92   831.68   939.10
                              966.75  1040.89  1098.95  1185.81  1223.26
                             1273.33  1286.24  1330.06  1350.58  1397.54
                             1416.65  1468.56  1509.61  1578.41  1599.01
                             1666.07  1695.94  1721.60  1762.71  1789.75
                             1823.94  1833.76  1851.71  1877.16  1928.87
                             1950.71  1971.83  2023.98  2069.35  2138.24
                             2173.40  2190.84  2202.65  2213.42  2456.48
                             2617.67  4359.83  4390.07  4396.89  4408.53
                             4443.75  4467.51  4483.57  4493.48  4510.60
                             4531.26  4641.61  5374.08

 Zero-point correction=                           0.195695 (Hartree/Particle)
 Thermal correction to Energy=                    0.205706
 Thermal correction to Enthalpy=                  0.206650
 Thermal correction to Gibbs Free Energy=         0.160590
 Sum of electronic and zero-point Energies=           -500.448104
 Sum of electronic and thermal Energies=              -500.438092
 Sum of electronic and thermal Enthalpies=            -500.437148
 Sum of electronic and thermal Free Energies=         -500.483208

                     E (Thermal)             CV                S
                      KCal/Mol        Cal/Mol-Kelvin    Cal/Mol-Kelvin
 Total                  129.082             39.402             96.941
 Electronic               0.000              0.000              0.000
 Translational            0.889              2.981             40.968
 Rotational               0.889              2.981             29.890
 Vibrational            127.305             33.440             26.084
 Vibration     1          0.597              1.971              4.273
 Vibration     2          0.604              1.949              3.444
 Vibration     3          0.620              1.897              2.611
 Vibration     4          0.647              1.810              1.956
 Vibration     5          0.655              1.787              1.837
 Vibration     6          0.670              1.742              1.647
 Vibration     7          0.712              1.618              1.266
 Vibration     8          0.725              1.581              1.180
 Vibration     9          0.731              1.564              1.142
 Vibration    10          0.746              1.525              1.062
 Vibration    11          0.791              1.406              0.860
 Vibration    12          0.866              1.225              0.630
 Vibration    13          0.885              1.185              0.588
 Vibration    14          0.935              1.079              0.489

                           ! Non-Optimized Parameters !

 1\1\GINC-NODE101\Freq\RB3LYP\6-31G(d)\C9H12O2\VSC10255\08-Dec-2020\0\\
 #N Geom=AllCheck Guess=TCheck SCRF=Check GenChk RB3LYP/6-31G(d) Freq\\
 CID_130036911_JID_1724_neutraal\\0,1\C,1.0883225663,0.0369563199,-0.05
 81655042\C,0.0476414723,-1.0535972992,-0.3837184816\C,-0.2623000876,-1
 .9198357739,0.8602691981\C,0.8975292115,-2.9552915239,0.9252624902\C,1
 .4736588113,-3.0832678212,-0.5133460674\C,0.6288156461,-2.1155681098,-
 1.2999329652\C,0.1282296681,-2.0928423261,-2.5425670972\C,-0.90136552,
 -1.0228039922,-2.6391187418\O,-1.5014223957,-0.6705515495,-3.635171199

 Normal termination of Gaussian 16 at Tue Dec  8 20:57:46 2020.

 ----------------------------------------------------------------------
 # B3LYP/6-311++G(d,p) empiricaldispersion=gd3bj scf=xqc pop=npa geom=c
 heck
 ----------------------------------------------------------------------

 ---------------------------------------
 CID_130036911_JID_1724_Energie_neutraal
 ---------------------------------------
 Structure from the checkpoint file:  "JID_1724.chk"
 Charge =  0 Multiplicity = 1

 SCF Done:  E(RB3LYP) =  -500.793812648     A.U. after   15 cycles
 Normal termination of Gaussian 16 at Tue Dec  8 21:01:00 2020.

 ----------------------------------------------------------------------
 # B3LYP/6-311++G(d,p) empiricaldispersion=gd3bj scf=xqc pop=npa geom=c
 heck
 ----------------------------------------------------------------------

 -------------------------------------
 CID_130036911_JID_1724_Energie_kation
 -------------------------------------
 Structure from the checkpoint file:  "JID_1724.chk"
 Charge =  1 Multiplicity = 2

 SCF Done:  E(UB3LYP) =  -500.463375096     A.U. after   24 cycles
 Normal termination of Gaussian 16 at Tue Dec  8 21:07:37 2020.
 Gaussian 16:  ES64L-G16RevA.03 25-Dec-2016

 ------------------------------------
 CID_130036911_JID_1724_Energie_anion
 ------------------------------------
 Structure from the checkpoint file:  "JID_1724.chk"
 Charge = -1 Multiplicity = 2

                         Standard orientation:
 ---------------------------------------------------------------------
 Center     Atomic      Atomic             Coordinates (Angstroms)
 Number     Number       Type             X           Y           Z
 ---------------------------------------------------------------------
      1          6           0       -0.354626    1.258427    1.545471
      2          6           0        0.059639    0.844968    0.118675
      3          6           0       -0.940741    1.382850   -0.931973
      4          6           0       -2.123002    0.371177   -0.912722
      5          6           0       -1.562533   -0.972470   -0.366474
      6          6           0       -0.116631   -0.647500   -0.096873
      7          6           0        1.037284   -1.320925   -0.197974
      8          6           0        2.174658   -0.366438   -0.099464
      9          8           0        3.358803   -0.637291   -0.072864
     10          6           0        1.569582    1.054551   -0.110875
     11          8           0       -2.281945   -1.287362    0.833492
     12          1           0       -0.273585    2.345601    1.658508
     13          1           0        0.301998    0.787670    2.285567
     14          1           0       -1.380605    0.956102    1.769370
     15          1           0       -0.464127    1.380600   -1.919445
     16          1           0       -1.268033    2.407104   -0.725985
     17          1           0       -2.915805    0.693946   -0.232130
     18          1           0       -2.569990    0.250659   -1.903090
     19          1           0       -1.662117   -1.792341   -1.090917
     20          1           0        1.179569   -2.380203   -0.384798
     21          1           0        1.771674    1.492311   -1.096518
     22          1           0        2.059233    1.689134    0.633139
     23          1           0       -1.854852   -2.061204    1.234535
 ---------------------------------------------------------------------

 SCF Done:  E(UB3LYP) =  -500.797054306     A.U. after   29 cycles

 The electronic state is 2-A.
 Alpha  occ. eigenvalues --  -18.98453 -18.92374 -10.08481 -10.06942 -10.04544
 Alpha  occ. eigenvalues --  -10.04436 -10.04307 -10.02997 -10.02584 -10.00693
 Alpha  occ. eigenvalues --  -10.00158  -0.88614  -0.86261  -0.72533  -0.64220
 Alpha  occ. eigenvalues --   -0.60869  -0.56338  -0.53341  -0.50285  -0.43417
 Alpha  occ. eigenvalues --   -0.40228  -0.37461  -0.36477  -0.34677  -0.32928
 Alpha  occ. eigenvalues --   -0.30985  -0.28169  -0.27357  -0.26918  -0.25762
 Alpha  occ. eigenvalues --   -0.24859  -0.24109  -0.23643  -0.20816  -0.20526
 Alpha  occ. eigenvalues --   -0.19680  -0.19264  -0.18427  -0.13864  -0.11465
 Alpha  occ. eigenvalues --   -0.08002   0.05305
 Alpha virt. eigenvalues --    0.08534   0.09414   0.10085   0.10752   0.11580
 Alpha virt. eigenvalues --    0.12114   0.12826   0.13112   0.13281   0.14824
 Alpha virt. eigenvalues --    0.15919   0.16724   0.17106   0.17714   0.18114

  Beta  occ. eigenvalues --  -18.98312 -18.91984 -10.08485 -10.06706 -10.04571
  Beta  occ. eigenvalues --  -10.04419 -10.04302 -10.02957 -10.02598 -10.00243
  Beta  occ. eigenvalues --  -10.00064  -0.88267  -0.85554  -0.72185  -0.64012
  Beta  occ. eigenvalues --   -0.60529  -0.56122  -0.53238  -0.49856  -0.43287
  Beta  occ. eigenvalues --   -0.39873  -0.37113  -0.36214  -0.34432  -0.32729
  Beta  occ. eigenvalues --   -0.30757  -0.27970  -0.27112  -0.26674  -0.25477
  Beta  occ. eigenvalues --   -0.24643  -0.23808  -0.23372  -0.20383  -0.20155
  Beta  occ. eigenvalues --   -0.19300  -0.18509  -0.18215  -0.13591  -0.09556
  Beta  occ. eigenvalues --   -0.07651
  Beta virt. eigenvalues --    0.08505   0.09446   0.09746   0.10689   0.11556
  Beta virt. eigenvalues --    0.12152   0.12248   0.12959   0.13110   0.13536
  Beta virt. eigenvalues --    0.14857   0.15833   0.16585   0.17059   0.17734

 Mulliken charges and spin densities:
               1          2
     1  C   -0.676408  -0.243794
     2  C    1.151988   0.055127
     3  C   -0.580492  -0.011946
     4  C   -0.485411   0.207523
     5  C    0.700694  -1.319830
     6  C   -0.389507   0.900005
     7  C   -0.239811   0.255193
     8  C   -0.360552   0.127371
     9  O   -0.408348   0.134389
    10  C   -0.387766  -0.027305
    11  O   -0.164222  -0.015025
    12  H    0.080621   0.036263
    13  H    0.119724   0.027704
    14  H    0.121846   0.045489
    15  H    0.118701  -0.001942
    16  H    0.101290   0.026189
    17  H    0.164084  -0.003602
    18  H    0.117379   0.012836
    19  H   -0.175063   0.329621
    20  H    0.018025   0.095832
    21  H    0.123692   0.026061
    22  H    0.118745   0.028139
    23  H   -0.069208   0.315701
 Sum of Mulliken charges =  -1.00000   1.00000

 Dipole moment (field-independent basis, Debye):
    X=             -3.0979    Y=              3.8393    Z=             -1.2808  Tot=              5.0968
 Quadrupole moment (field-independent basis, Debye-Ang):
   XX=           -116.4229   YY=            -84.2967   ZZ=            -78.8576
   XY=             -1.5075   XZ=              3.9824   YZ=              0.1672

 Summary of Natural Population Analysis:

                                       Natural Population
                Natural  -----------------------------------------------
    Atom  No    Charge         Core      Valence    Rydberg      Total
 -----------------------------------------------------------------------
      C    1   -0.27751      0.99963     2.27201    0.00588     3.27751
      C    2   -0.06014      0.99952     2.05018    0.01044     3.06014
      C    3   -0.18223      0.99960     2.17481    0.00781     3.18223
      C    4   -0.19464      0.99963     2.18597    0.00904     3.19464
      C    5    0.04479      0.99948     1.93933    0.01640     2.95521
      C    6    0.10229      0.99945     1.88577    0.01248     2.89771
      C    7   -0.14709      0.99938     2.13679    0.01092     3.14709
      C    8    0.29784      0.99967     1.67955    0.02294     2.70216
      O    9   -0.27639      0.99987     3.26935    0.00717     4.27639
      C   10   -0.22747      0.99957     2.21865    0.00925     3.22747
      O   11   -0.36993      0.99990     3.36312    0.00692     4.36993
      H   12    0.08896      0.00000     0.41003    0.00101     0.41104
      H   13    0.09938      0.00000     0.39972    0.00090     0.40062
      H   14    0.10541      0.00000     0.39357    0.00102     0.39459
      H   15    0.09447      0.00000     0.40471    0.00081     0.40553
      H   16    0.09284      0.00000     0.40630    0.00087     0.40716
      H   17    0.10270      0.00000     0.39617    0.00113     0.39730
      H   18    0.09409      0.00000     0.40516    0.00075     0.40591
      H   19    0.08134      0.00000     0.41612    0.00254     0.41866
      H   20    0.09636      0.00000     0.40225    0.00138     0.40364
      H   21    0.10472      0.00000     0.39450    0.00078     0.39528
      H   22    0.09953      0.00000     0.39888    0.00159     0.40047
      H   23    0.23070      0.00000     0.26431    0.00500     0.26930
 =======================================================================
   * Total *    0.00000     10.99571    29.86726    0.13703    41.00000

 Normal termination of Gaussian 16 at Tue Dec  8 21:14:57 2020.
