 Gaussian 16, Revision A.03,

 -----------------------------------------------------------
 # opt freq B3LYP/6-31G(d) empiricaldispersion=gd3bj scf=xqc
 -----------------------------------------------------------

 ------------------------------
 CID_55139823_JID_9551_neutraal
 ------------------------------
 Symbolic Z-matrix:
 Charge =  0 Multiplicity = 1

 SCF Done:  E(RB3LYP) =  -817.565005696     A.U. after   15 cycles
 SCF Done:  E(RB3LYP) =  -817.573846113     A.U. after   13 cycles
 SCF Done:  E(RB3LYP) =  -817.574462133     A.U. after   13 cycles
 SCF Done:  E(RB3LYP) =  -817.575666524     A.U. after   12 cycles
 SCF Done:  E(RB3LYP) =  -817.575824626     A.U. after   11 cycles
 SCF Done:  E(RB3LYP) =  -817.575876084     A.U. after   11 cycles
 SCF Done:  E(RB3LYP) =  -817.575890071     A.U. after   10 cycles
 SCF Done:  E(RB3LYP) =  -817.575893403     A.U. after    8 cycles
 SCF Done:  E(RB3LYP) =  -817.575894448     A.U. after    8 cycles
 SCF Done:  E(RB3LYP) =  -817.575895347     A.U. after    8 cycles
 SCF Done:  E(RB3LYP) =  -817.575895778     A.U. after    7 cycles
 SCF Done:  E(RB3LYP) =  -817.575896076     A.U. after    7 cycles
 SCF Done:  E(RB3LYP) =  -817.575896191     A.U. after    7 cycles
 SCF Done:  E(RB3LYP) =  -817.575896258     A.U. after    7 cycles
 Optimization completed.
    -- Stationary point found.
 Normal termination of Gaussian 16 at Thu Dec 17 20:11:23 2020.

 --------------------------------------------------------------------
 #N Geom=AllCheck Guess=TCheck SCRF=Check GenChk RB3LYP/6-31G(d) Freq
 --------------------------------------------------------------------

 Structure from the checkpoint file:  "JID_9551.chk"
 ------------------------------
 CID_55139823_JID_9551_neutraal
 ------------------------------
 Charge =  0 Multiplicity = 1

 SCF Done:  E(RB3LYP) =  -817.575896258     A.U. after    1 cycles

  Exact polarizability: 250.602  -0.282 191.466  20.500  -5.612 113.165
 Approx polarizability: 353.121   6.312 302.512  42.206  -9.919 181.495

 ******    2 imaginary frequencies (negative Signs) ******

                      1                      2                      3
                      A                      A                      A
 Frequencies --    -69.9090               -62.6640                26.6144
 Red. masses --      1.0286                 1.0239                 4.2126
 Frc consts  --      0.0030                 0.0024                 0.0018
 IR Inten    --      0.3801                 0.2632                 0.4442

                      4                      5                      6
                      A                      A                      A
 Frequencies --     36.3587                53.5600                79.0318
 Red. masses --      4.1692                 5.0022                 4.3889
 Frc consts  --      0.0032                 0.0085                 0.0162
 IR Inten    --      1.1849                 1.2585                 0.9267

                      7                      8                      9
                      A                      A                      A
 Frequencies --    106.1292               134.5308               145.4505
 Red. masses --      2.5743                 1.6403                 4.6651
 Frc consts  --      0.0171                 0.0175                 0.0581
 IR Inten    --      5.6554                 0.3023                 4.8843

                     10                     11                     12
                      A                      A                      A
 Frequencies --    158.1143               177.0996               199.8650
 Red. masses --      2.8838                 2.7647                 3.9022
 Frc consts  --      0.0425                 0.0511                 0.0918
 IR Inten    --      1.8352                 1.4065                 0.1899

                     13                     14                     15
                      A                      A                      A
 Frequencies --    236.4827               256.1524               258.6953
 Red. masses --      5.2626                 3.1709                 4.1507
 Frc consts  --      0.1734                 0.1226                 0.1637
 IR Inten    --      0.3565                 0.9820                 1.3541

                     16                     17                     18
                      A                      A                      A
 Frequencies --    301.6140               351.5597               371.4416
 Red. masses --      3.4919                 3.2261                 3.9715
 Frc consts  --      0.1872                 0.2349                 0.3228
 IR Inten    --      4.1124                 0.9822                 6.1518

                     19                     20                     21
                      A                      A                      A
 Frequencies --    386.3265               412.9434               438.0603
 Red. masses --      3.2802                 3.6286                 3.3432
 Frc consts  --      0.2884                 0.3646                 0.3780
 IR Inten    --      3.1092                 2.1845                 0.6898

                     22                     23                     24
                      A                      A                      A
 Frequencies --    455.6457               493.9524               540.4000
 Red. masses --      1.3829                 2.9010                 4.5802
 Frc consts  --      0.1692                 0.4170                 0.7881
 IR Inten    --     40.3046                 6.7593                 0.9938

                     25                     26                     27
                      A                      A                      A
 Frequencies --    563.2825               566.7328               569.9749
 Red. masses --      3.1084                 3.6346                 4.4142
 Frc consts  --      0.5811                 0.6878                 0.8449
 IR Inten    --     38.1495                 0.1211                 2.4828

                     28                     29                     30
                      A                      A                      A
 Frequencies --    603.3861               611.4445               643.4248
 Red. masses --      3.3576                 3.2897                 3.3098
 Frc consts  --      0.7202                 0.7246                 0.8073
 IR Inten    --     58.4942                23.3030                13.6545

                     31                     32                     33
                      A                      A                      A
 Frequencies --    649.2023               668.0472               718.0981
 Red. masses --      3.3794                 2.9659                 2.1540
 Frc consts  --      0.8392                 0.7799                 0.6544
 IR Inten    --     33.0101                68.5044                16.7803

                     34                     35                     36
                      A                      A                      A
 Frequencies --    756.3093               762.0444               806.8666
 Red. masses --      3.3815                 4.9993                 7.0839
 Frc consts  --      1.1396                 1.7105                 2.7172
 IR Inten    --     71.4203                 8.8609                 8.9507

                     37                     38                     39
                      A                      A                      A
 Frequencies --    814.8830               841.0913               862.6894
 Red. masses --      1.6914                 1.2294                 1.1516
 Frc consts  --      0.6618                 0.5124                 0.5050
 IR Inten    --     23.7266                11.3352                20.0646

                     40                     41                     42
                      A                      A                      A
 Frequencies --    885.9589               918.0648               926.3590
 Red. masses --      4.4252                 1.3911                 1.5020
 Frc consts  --      2.0465                 0.6908                 0.7594
 IR Inten    --      8.3775                 3.3558                 7.6883

                     43                     44                     45
                      A                      A                      A
 Frequencies --    972.9520               973.8504               984.7499
 Red. masses --      3.2527                 1.2699                 2.4004
 Frc consts  --      1.8142                 0.7096                 1.3715
 IR Inten    --      1.9042                 0.8269                 2.3612

                     46                     47                     48
                      A                      A                      A
 Frequencies --   1007.7721              1022.3888              1036.8753
 Red. masses --      5.2303                 6.0807                 1.5008
 Frc consts  --      3.1297                 3.7449                 0.9507
 IR Inten    --     13.3165                 0.3828                 3.7717

                     49                     50                     51
                      A                      A                      A
 Frequencies --   1058.4558              1069.5700              1070.2906
 Red. masses --      2.2438                 1.6076                 1.5748
 Frc consts  --      1.4811                 1.0836                 1.0629
 IR Inten    --     34.8359                 4.9617                 1.0538

                     52                     53                     54
                      A                      A                      A
 Frequencies --   1102.5170              1129.1607              1142.3923
 Red. masses --      2.1292                 1.6131                 1.7189
 Frc consts  --      1.5249                 1.2118                 1.3217
 IR Inten    --     44.5339                12.4788                67.8236

                     55                     56                     57
                      A                      A                      A
 Frequencies --   1160.5070              1171.8119              1196.6913
 Red. masses --      1.3329                 1.5207                 1.7293
 Frc consts  --      1.0576                 1.2303                 1.4591
 IR Inten    --      6.1192                12.6549                72.7775

                     58                     59                     60
                      A                      A                      A
 Frequencies --   1207.9297              1216.5931              1222.3730
 Red. masses --      1.1160                 2.1424                 2.0427
 Frc consts  --      0.9594                 1.8683                 1.7983
 IR Inten    --      1.1209                30.4146                13.6593

                     61                     62                     63
                      A                      A                      A
 Frequencies --   1298.8354              1328.4604              1341.0233
 Red. masses --      6.6466                 1.9925                 2.8133
 Frc consts  --      6.6063                 2.0718                 2.9808
 IR Inten    --      5.4565                10.8679                 7.4775

                     64                     65                     66
                      A                      A                      A
 Frequencies --   1367.9085              1387.0706              1427.5517
 Red. masses --      3.3448                 3.1877                 1.2623
 Frc consts  --      3.6875                 3.6135                 1.5157
 IR Inten    --     12.6914               122.5639                 4.8792

                     67                     68                     69
                      A                      A                      A
 Frequencies --   1432.3736              1444.4567              1454.3199
 Red. masses --      1.6743                 2.4797                 2.3111
 Frc consts  --      2.0240                 3.0484                 2.8800
 IR Inten    --    230.5841               148.8956               153.2180

                     70                     71                     72
                      A                      A                      A
 Frequencies --   1462.4122              1486.4281              1494.3724
 Red. masses --      2.3785                 1.9700                 1.3265
 Frc consts  --      2.9970                 2.5644                 1.7453
 IR Inten    --     10.4857                37.7273                 5.5138

                     73                     74                     75
                      A                      A                      A
 Frequencies --   1507.8645              1513.6239              1514.3449
 Red. masses --      1.1893                 1.0463                 1.0452
 Frc consts  --      1.5931                 1.4124                 1.4123
 IR Inten    --    167.7800                12.0219                 0.3092

                     76                     77                     78
                      A                      A                      A
 Frequencies --   1518.7662              1524.4891              1539.6367
 Red. masses --      1.2421                 1.5719                 1.9651
 Frc consts  --      1.6881                 2.1524                 2.7446
 IR Inten    --     27.1401                74.9770                16.5326

                     79                     80                     81
                      A                      A                      A
 Frequencies --   1553.4472              1622.1530              1628.6453
 Red. masses --      1.4207                 5.9497                 6.3564
 Frc consts  --      2.0200                 9.2242                 9.9338
 IR Inten    --    256.4410               523.4948               214.1067

                     82                     83                     84
                      A                      A                      A
 Frequencies --   1643.0422              1647.4446              1663.9170
 Red. masses --      5.5652                 1.4122                 5.6734
 Frc consts  --      8.8517                 2.2582                 9.2546
 IR Inten    --     33.6941                82.5823                31.5342

                     85                     86                     87
                      A                      A                      A
 Frequencies --   1719.1826              3043.9745              3053.7044
 Red. masses --      4.1038                 1.0500                 1.0386
 Frc consts  --      7.1463                 5.7323                 5.7061
 IR Inten    --    155.6776                49.0966                11.6232

                     88                     89                     90
                      A                      A                      A
 Frequencies --   3054.0909              3107.4788              3107.8408
 Red. masses --      1.0386                 1.1004                 1.1004
 Frc consts  --      5.7075                 6.2604                 6.2623
 IR Inten    --     17.7908                 6.3653                20.3144

                     91                     92                     93
                      A                      A                      A
 Frequencies --   3134.5979              3161.0280              3163.9790
 Red. masses --      1.0853                 1.1006                 1.1006
 Frc consts  --      6.2831                 6.4794                 6.4914
 IR Inten    --     23.4185                 9.2731                 6.5091

                     94                     95                     96
                      A                      A                      A
 Frequencies --   3181.0237              3190.7256              3206.7685
 Red. masses --      1.1047                 1.0863                 1.0914
 Frc consts  --      6.5860                 6.5163                 6.6125
 IR Inten    --     10.1075                 6.5571                13.5789

                     97                     98                     99
                      A                      A                      A
 Frequencies --   3208.0534              3217.0537              3264.6145
 Red. masses --      1.0920                 1.0951                 1.0907
 Frc consts  --      6.6213                 6.6779                 6.8488
 IR Inten    --      7.5596                15.1862                 0.8770

                    100                    101                    102
                      A                      A                      A
 Frequencies --   3478.1900              3547.7816              3658.8987
 Red. masses --      1.0745                 1.0467                 1.0995
 Frc consts  --      7.6588                 7.7624                 8.6726
 IR Inten    --      2.2107                17.7967                11.8933

 - Thermochemistry -
 -------------------
 Temperature   298.150 Kelvin.  Pressure   1.00000 Atm.
 Atom     1 has atomic number  6 and mass  12.00000

 Molecular mass:   255.14840 amu.
 Principal axes and moments of inertia in atomic units:
                           1         2         3
     Eigenvalues --  2835.286717869.526809767.64634
           X            0.99999  -0.00403   0.00199
           Y            0.00401   0.99996   0.00761
           Z           -0.00202  -0.00760   0.99997
 This molecule is an asymmetric top.
 Rotational symmetry number  1.
 Warning -- assumption of classical behavior for rotation
           may cause significant error
 Rotational temperatures (Kelvin)      0.03055     0.01101     0.00887
 Rotational constants (GHZ):           0.63653     0.22933     0.18477
    2 imaginary frequencies ignored.
 Zero-point vibrational energy     782575.1 (Joules/Mol)
                                  187.03994 (Kcal/Mol)
 Warning -- explicit consideration of  27 degrees of freedom as
           vibrations may cause significant error
 Vibrational temperatures:     38.29    52.31    77.06   113.71   152.70
          (Kelvin)            193.56   209.27   227.49   254.81   287.56
                              340.25   368.55   372.20   433.96   505.82
                              534.42   555.84   594.13   630.27   655.57
                              710.69   777.52   810.44   815.40   820.07
                              868.14   879.73   925.74   934.06   961.17
                             1033.18  1088.16  1096.41  1160.90  1172.43
                             1210.14  1241.22  1274.70  1320.89  1332.82
                             1399.86  1401.15  1416.84  1449.96  1470.99
                             1491.83  1522.88  1538.87  1539.91  1586.28
                             1624.61  1643.65  1669.71  1685.98  1721.77
                             1737.94  1750.41  1758.72  1868.73  1911.36
                             1929.43  1968.12  1995.69  2053.93  2060.87
                             2078.25  2092.44  2104.08  2138.64  2150.07
                             2169.48  2177.77  2178.80  2185.17  2193.40
                             2215.19  2235.06  2333.92  2343.26  2363.97
                             2370.31  2394.01  2473.52  4379.60  4393.60
                             4394.16  4470.97  4471.49  4509.99  4548.01
                             4552.26  4576.78  4590.74  4613.82  4615.67
                             4628.62  4697.05  5004.34  5104.47  5264.34

 Zero-point correction=                           0.298067 (Hartree/Particle)
 Thermal correction to Energy=                    0.314821
 Thermal correction to Enthalpy=                  0.315765
 Thermal correction to Gibbs Free Energy=         0.252605
 Sum of electronic and zero-point Energies=           -817.277829
 Sum of electronic and thermal Energies=              -817.261075
 Sum of electronic and thermal Enthalpies=            -817.260131
 Sum of electronic and thermal Free Energies=         -817.323291

                     E (Thermal)             CV                S
                      KCal/Mol        Cal/Mol-Kelvin    Cal/Mol-Kelvin
 Total                  197.553             64.831            132.932
 Electronic               0.000              0.000              0.000
 Translational            0.889              2.981             42.510
 Rotational               0.889              2.981             33.743
 Vibrational            195.776             58.870             56.678
 Vibration     1          0.593              1.984              6.067
 Vibration     2          0.594              1.982              5.448
 Vibration     3          0.596              1.976              4.681
 Vibration     4          0.600              1.963              3.915
 Vibration     5          0.605              1.944              3.339
 Vibration     6          0.613              1.919              2.880
 Vibration     7          0.617              1.908              2.731
 Vibration     8          0.621              1.894              2.572
 Vibration     9          0.628              1.871              2.359
 Vibration    10          0.638              1.840              2.134
 Vibration    11          0.655              1.785              1.829
 Vibration    12          0.666              1.752              1.688
 Vibration    13          0.668              1.748              1.671
 Vibration    14          0.694              1.671              1.408
 Vibration    15          0.728              1.572              1.159
 Vibration    16          0.743              1.531              1.074
 Vibration    17          0.755              1.499              1.014
 Vibration    18          0.777              1.442              0.916
 Vibration    19          0.798              1.387              0.833
 Vibration    20          0.814              1.348              0.779
 Vibration    21          0.850              1.263              0.673
 Vibration    22          0.895              1.161              0.564
 Vibration    23          0.919              1.111              0.517
 Vibration    24          0.923              1.103              0.511
 Vibration    25          0.926              1.096              0.504
 Vibration    26          0.962              1.025              0.444
 Vibration    27          0.971              1.008              0.430

                           ! Non-Optimized Parameters !
 Normal termination of Gaussian 16 at Thu Dec 17 20:27:52 2020.

 ----------------------------------------------------------------------
 # B3LYP/6-311++G(d,p) empiricaldispersion=gd3bj scf=xqc pop=npa geom=c
 heck
 ----------------------------------------------------------------------

 --------------------------------------
 CID_55139823_JID_9551_Energie_neutraal
 --------------------------------------
 Structure from the checkpoint file:  "JID_9551.chk"
 Charge =  0 Multiplicity = 1

 SCF Done:  E(RB3LYP) =  -817.798817350     A.U. after   16 cycles
 Normal termination of Gaussian 16 at Thu Dec 17 20:35:46 2020.

 ----------------------------------------------------------------------
 # B3LYP/6-311++G(d,p) empiricaldispersion=gd3bj scf=xqc pop=npa geom=c
 heck
 ----------------------------------------------------------------------

 ------------------------------------
 CID_55139823_JID_9551_Energie_kation
 ------------------------------------
 Structure from the checkpoint file:  "JID_9551.chk"
 Charge =  1 Multiplicity = 2

 SCF Done:  E(UB3LYP) =  -817.528833453     A.U. after   25 cycles
 Normal termination of Gaussian 16 at Thu Dec 17 20:53:03 2020.
 Gaussian 16:  ES64L-G16RevA.03 25-Dec-2016

 ----------------------------------------------------------------------
 # B3LYP/6-311++G(d,p) empiricaldispersion=gd3bj scf=xqc pop=npa geom=c
 heck
 ----------------------------------------------------------------------

 -----------------------------------
 CID_55139823_JID_9551_Energie_anion
 -----------------------------------
 Structure from the checkpoint file:  "JID_9551.chk"
 Charge = -1 Multiplicity = 2

                         Standard orientation:
 ---------------------------------------------------------------------
 Center     Atomic      Atomic             Coordinates (Angstroms)
 Number     Number       Type             X           Y           Z
 ---------------------------------------------------------------------
      1          6           0        1.629461   -3.005569   -1.098026
      2          6           0        2.088717   -1.669543   -0.577127
      3          6           0        3.435279   -1.411698   -0.303082
      4          6           0        3.760920   -0.140465    0.171745
      5          7           0        2.825607    0.799188    0.360704
      6          6           0        1.555807    0.452740    0.076549
      7          7           0        1.147325   -0.740079   -0.389873
      8          7           0        0.599335    1.432214    0.278023
      9          6           0        1.049518    2.772018    0.654072
     10          6           0       -0.770570    1.249601   -0.050161
     11          6           0       -1.447712    2.247186   -0.763107
     12          6           0       -2.805796    2.108366   -1.051009
     13          6           0       -3.499061    0.972790   -0.647717
     14          6           0       -2.831264   -0.033933    0.064380
     15          6           0       -1.476687    0.115689    0.372209
     16          6           0       -3.576075   -1.256262    0.493315
     17          7           0       -4.528651   -1.825306   -0.153837
     18          7           0       -3.136090   -1.821922    1.682885
     19          6           0        5.182237    0.240955    0.492703
     20          1           0        2.114099   -3.239416   -2.053376
     21          1           0        1.890439   -3.807725   -0.397581
     22          1           0        0.547307   -2.996123   -1.240627
     23          1           0        4.197243   -2.168678   -0.457438
     24          1           0        0.196245    3.322897    1.052473
     25          1           0        1.825723    2.691465    1.414541
     26          1           0        1.471497    3.321624   -0.197389
     27          1           0       -0.910490    3.126141   -1.103586
     28          1           0       -3.319930    2.894059   -1.597079
     29          1           0       -4.559253    0.869765   -0.857766
     30          1           0       -0.960280   -0.667274    0.908926
     31          1           0       -4.651008   -1.374632   -1.062192
     32          1           0       -2.854175   -1.172616    2.406260
     33          1           0       -3.748174   -2.560426    2.010947
     34          1           0        5.596824   -0.414796    1.267488
     35          1           0        5.822643    0.142048   -0.391713
     36          1           0        5.219946    1.273766    0.844342
 ---------------------------------------------------------------------

 SCF Done:  E(UB3LYP) =  -817.792486265     A.U. after   33 cycles
 SCF Done:  E(UB3LYP) =  -817.792486265     a.u. after    1 cycles

 The electronic state is 2-A.
 Alpha  occ. eigenvalues --  -14.23692 -14.21241 -14.19440 -14.18929 -14.15679
 Alpha  occ. eigenvalues --  -10.15573 -10.12342 -10.11932 -10.11541 -10.09512
 Alpha  occ. eigenvalues --  -10.09367 -10.07103 -10.06901 -10.06227 -10.05860
 Alpha  occ. eigenvalues --  -10.05855 -10.05577 -10.05267 -10.05001  -0.89554
 Alpha  occ. eigenvalues --   -0.83526  -0.82773  -0.78278  -0.74056  -0.73136
 Alpha  occ. eigenvalues --   -0.69142  -0.64647  -0.63898  -0.62971  -0.60269
 Alpha  occ. eigenvalues --   -0.59308  -0.53410  -0.51787  -0.49493  -0.48409
 Alpha  occ. eigenvalues --   -0.45753  -0.43778  -0.41735  -0.40193  -0.38894
 Alpha  occ. eigenvalues --   -0.36858  -0.36421  -0.35861  -0.34340  -0.33798
 Alpha  occ. eigenvalues --   -0.33379  -0.32471  -0.32182  -0.31455  -0.31126
 Alpha  occ. eigenvalues --   -0.30166  -0.29762  -0.28763  -0.28373  -0.27286
 Alpha  occ. eigenvalues --   -0.27153  -0.25366  -0.24755  -0.23932  -0.20111
 Alpha  occ. eigenvalues --   -0.19746  -0.19234  -0.15883  -0.15327  -0.14868
 Alpha  occ. eigenvalues --   -0.13671  -0.13075  -0.09923   0.04438
 Alpha virt. eigenvalues --    0.06123   0.07119   0.07413   0.07509   0.07845
 Alpha virt. eigenvalues --    0.08413   0.08555   0.09476   0.09783   0.10062
 Alpha virt. eigenvalues --    0.10712   0.11051   0.11456   0.11693   0.11782

  Beta  occ. eigenvalues --  -14.23726 -14.21223 -14.19464 -14.18882 -14.15569
  Beta  occ. eigenvalues --  -10.15472 -10.12274 -10.11943 -10.11469 -10.09449
  Beta  occ. eigenvalues --  -10.09349 -10.07094 -10.06883 -10.06273 -10.05800
  Beta  occ. eigenvalues --  -10.05713 -10.05583 -10.05144 -10.04787  -0.89465
  Beta  occ. eigenvalues --   -0.83386  -0.82723  -0.78207  -0.73881  -0.72949
  Beta  occ. eigenvalues --   -0.69035  -0.64564  -0.63616  -0.62812  -0.60213
  Beta  occ. eigenvalues --   -0.59212  -0.53212  -0.51482  -0.49439  -0.48343
  Beta  occ. eigenvalues --   -0.45605  -0.43716  -0.41683  -0.40120  -0.38786
  Beta  occ. eigenvalues --   -0.36729  -0.36333  -0.35717  -0.34239  -0.33720
  Beta  occ. eigenvalues --   -0.33286  -0.32399  -0.32103  -0.31367  -0.31054
  Beta  occ. eigenvalues --   -0.30124  -0.29706  -0.28606  -0.28321  -0.27163
  Beta  occ. eigenvalues --   -0.26727  -0.25241  -0.24473  -0.23695  -0.19964
  Beta  occ. eigenvalues --   -0.19563  -0.19081  -0.15522  -0.15009  -0.14388
  Beta  occ. eigenvalues --   -0.13508  -0.12431  -0.09547
  Beta virt. eigenvalues --    0.06519   0.07220   0.07531   0.07573   0.07946
  Beta virt. eigenvalues --    0.08145   0.08594   0.08837   0.09763   0.09883
  Beta virt. eigenvalues --    0.10110   0.10764   0.11298   0.11543   0.11693

 Mulliken charges and spin densities:
               1          2
     1  C   -0.168310  -0.219225
     2  C    0.596786  -0.241461
     3  C   -0.772034   0.362969
     4  C   -0.229991   0.538835
     5  N   -0.089160   0.054862
     6  C   -1.098776   0.317208
     7  N    0.048059   0.031253
     8  N    0.130326   0.015536
     9  C    0.078349  -0.399286
    10  C   -0.417449   0.006341
    11  C    0.107633   0.062463
    12  C   -0.304602  -0.038897
    13  C   -1.035276   0.249899
    14  C    1.315124   0.068300
    15  C   -0.427104   0.013007
    16  C   -0.335686  -0.160214
    17  N   -0.312960   0.063424
    18  N   -0.308259   0.021951
    19  C    1.250340  -1.649294
    20  H    0.002169   0.146347
    21  H    0.133308   0.008019
    22  H    0.162625   0.009070
    23  H   -0.258823   0.421792
    24  H    0.099123   0.039057
    25  H    0.124763   0.057930
    26  H   -0.038364   0.219475
    27  H    0.067247   0.060192
    28  H    0.071790   0.068124
    29  H    0.053196   0.060828
    30  H    0.250126  -0.006429
    31  H    0.188784  -0.013671
    32  H    0.148531   0.057340
    33  H    0.274684   0.003248
    34  H    0.086500   0.063901
    35  H   -0.349651   0.523171
    36  H   -0.043016   0.183935
 Sum of Mulliken charges =  -1.00000   1.00000

 Dipole moment (field-independent basis, Debye):
    X=             -0.7441    Y=              0.6766    Z=              2.5639  Tot=              2.7541
 Quadrupole moment (field-independent basis, Debye-Ang):
   XX=           -208.9595   YY=           -141.2878   ZZ=           -127.3063
   XY=            -11.1618   XZ=              5.4807   YZ=             -3.2350

 Summary of Natural Population Analysis:

                                       Natural Population
                Natural  -----------------------------------------------
    Atom  No    Charge         Core      Valence    Rydberg      Total
 -----------------------------------------------------------------------
      C    1   -0.30083      0.99963     2.29642    0.00479     3.30083
      C    2    0.13274      0.99956     1.85380    0.01390     2.86726
      C    3   -0.16586      0.99944     2.15783    0.00858     3.16586
      C    4    0.14598      0.99956     1.84139    0.01307     2.85402
      N    5   -0.28853      0.99965     2.77904    0.00984     3.78853
      C    6    0.32805      0.99956     1.65581    0.01658     2.67195
      N    7   -0.26836      0.99964     2.75891    0.00981     3.76836
      N    8   -0.24283      0.99961     2.73305    0.01016     3.74283
      C    9   -0.17380      0.99964     2.16780    0.00636     3.17380
      C   10    0.09554      0.99947     1.89315    0.01185     2.90446
      C   11   -0.07692      0.99952     2.06930    0.00809     3.07692
      C   12   -0.11193      0.99957     2.10202    0.01033     3.11193
      C   13   -0.08079      0.99953     2.07188    0.00938     3.08079
      C   14   -0.03862      0.99946     2.02771    0.01145     3.03862
      C   15   -0.09512      0.99949     2.08421    0.01141     3.09512
      C   16    0.22879      0.99963     1.75372    0.01787     2.77121
      N   17   -0.35759      0.99971     2.84977    0.00810     3.85759
      N   18   -0.40214      0.99971     2.89358    0.00885     3.90214
      C   19   -0.30217      0.99963     2.29681    0.00572     3.30217
      H   20    0.10455      0.00000     0.39441    0.00104     0.39545
      H   21    0.10214      0.00000     0.39695    0.00091     0.39786
      H   22    0.11283      0.00000     0.38627    0.00091     0.38717
      H   23    0.10262      0.00000     0.39648    0.00090     0.39738
      H   24    0.09706      0.00000     0.40196    0.00098     0.40294
      H   25    0.10780      0.00000     0.39086    0.00134     0.39220
      H   26    0.09141      0.00000     0.40682    0.00176     0.40859
      H   27    0.09765      0.00000     0.40136    0.00100     0.40235
      H   28    0.09538      0.00000     0.40377    0.00085     0.40462
      H   29    0.09728      0.00000     0.40159    0.00113     0.40272
      H   30    0.11351      0.00000     0.38495    0.00154     0.38649
      H   31    0.16233      0.00000     0.33545    0.00222     0.33767
      H   32    0.18487      0.00000     0.31332    0.00181     0.31513
      H   33    0.18564      0.00000     0.31205    0.00231     0.31436
      H   34    0.10221      0.00000     0.39698    0.00081     0.39779
      H   35    0.10917      0.00000     0.38832    0.00251     0.39083
      H   36    0.10794      0.00000     0.39091    0.00116     0.39206
 =======================================================================
   * Total *    0.00000     18.99203    48.78863    0.21934    68.00000

 Normal termination of Gaussian 16 at Thu Dec 17 21:16:36 2020.
