 Gaussian 16, Revision A.03,

 -----------------------------------------------------------
 # opt freq B3LYP/6-31G(d) empiricaldispersion=gd3bj scf=xqc
 -----------------------------------------------------------

 -------------------------------
 CID_115463018_JID_6625_neutraal
 -------------------------------
 Symbolic Z-matrix:
 Charge =  0 Multiplicity = 1

 SCF Done:  E(RB3LYP) =  -728.118807726     A.U. after   15 cycles
 SCF Done:  E(RB3LYP) =  -728.118959700     A.U. after   13 cycles
 SCF Done:  E(RB3LYP) =  -728.124013765     A.U. after   13 cycles
 SCF Done:  E(RB3LYP) =  -728.122212332     A.U. after   15 cycles
 SCF Done:  E(RB3LYP) =  -728.125796486     A.U. after   12 cycles
 SCF Done:  E(RB3LYP) =  -728.125634804     A.U. after   12 cycles
 SCF Done:  E(RB3LYP) =  -728.126040799     A.U. after   11 cycles
 SCF Done:  E(RB3LYP) =  -728.125893610     A.U. after   12 cycles
 SCF Done:  E(RB3LYP) =  -728.126090627     A.U. after   11 cycles
 SCF Done:  E(RB3LYP) =  -728.126095457     A.U. after   10 cycles
 SCF Done:  E(RB3LYP) =  -728.126097281     A.U. after    9 cycles
 SCF Done:  E(RB3LYP) =  -728.126098603     A.U. after    8 cycles
 SCF Done:  E(RB3LYP) =  -728.126098642     A.U. after    7 cycles
 Optimization completed.
    -- Stationary point found.
 Normal termination of Gaussian 16 at Thu Dec 10 23:59:33 2020.

 --------------------------------------------------------------------
 #N Geom=AllCheck Guess=TCheck SCRF=Check GenChk RB3LYP/6-31G(d) Freq
 --------------------------------------------------------------------

 Structure from the checkpoint file:  "JID_6625.chk"
 -------------------------------
 CID_115463018_JID_6625_neutraal
 -------------------------------
 Charge =  0 Multiplicity = 1

 SCF Done:  E(RB3LYP) =  -728.126098642     A.U. after    1 cycles

  Exact polarizability: 179.483  -1.991 138.736  -0.060 -10.596 105.036
 Approx polarizability: 255.737  -5.316 223.123   6.869 -22.424 155.996

                      1                      2                      3
                      A                      A                      A
 Frequencies --     39.1684                67.4787                81.2000
 Red. masses --      3.6923                 3.4615                 5.3795
 Frc consts  --      0.0033                 0.0093                 0.0209
 IR Inten    --      0.4267                 0.1074                 0.0759

                      4                      5                      6
                      A                      A                      A
 Frequencies --     93.4245                99.9044               109.3540
 Red. masses --      4.0702                 6.6080                 4.4452
 Frc consts  --      0.0209                 0.0389                 0.0313
 IR Inten    --      0.8348                 1.3794                 0.3269

                      7                      8                      9
                      A                      A                      A
 Frequencies --    123.2317               149.3353               198.4504
 Red. masses --      3.8075                 3.0973                 4.0660
 Frc consts  --      0.0341                 0.0407                 0.0943
 IR Inten    --      1.3472                 1.2302                 0.0252

                     10                     11                     12
                      A                      A                      A
 Frequencies --    232.3811               253.3235               291.0622
 Red. masses --      1.5586                 1.5852                 2.8051
 Frc consts  --      0.0496                 0.0599                 0.1400
 IR Inten    --      0.6931                 0.5383                 2.9791

                     13                     14                     15
                      A                      A                      A
 Frequencies --    305.4597               320.6354               350.4061
 Red. masses --      3.2046                 1.5270                 1.9333
 Frc consts  --      0.1762                 0.0925                 0.1399
 IR Inten    --      2.8387                24.8597                22.6742

                     16                     17                     18
                      A                      A                      A
 Frequencies --    360.9850               386.4204               420.8506
 Red. masses --      3.6003                 2.9130                 2.0330
 Frc consts  --      0.2764                 0.2563                 0.2121
 IR Inten    --      1.9142                 2.9726                 0.7340

                     19                     20                     21
                      A                      A                      A
 Frequencies --    439.6287               483.8795               501.6225
 Red. masses --      2.3587                 3.3947                 2.4887
 Frc consts  --      0.2686                 0.4683                 0.3690
 IR Inten    --      1.0213                 0.3728                 4.1877

                     22                     23                     24
                      A                      A                      A
 Frequencies --    515.8403               527.4310               597.4541
 Red. masses --      2.1594                 2.6973                 3.9101
 Frc consts  --      0.3385                 0.4421                 0.8223
 IR Inten    --      8.4998                 6.4902                34.1987

                     25                     26                     27
                      A                      A                      A
 Frequencies --    630.9776               646.0292               696.0214
 Red. masses --      3.8566                 3.4032                 1.7909
 Frc consts  --      0.9047                 0.8368                 0.5112
 IR Inten    --     11.7188                22.0393               129.4028

                     28                     29                     30
                      A                      A                      A
 Frequencies --    748.5687               760.3874               796.8717
 Red. masses --      3.7011                 1.4915                 2.2450
 Frc consts  --      1.2219                 0.5081                 0.8399
 IR Inten    --      7.7125                25.0298                57.6560

                     31                     32                     33
                      A                      A                      A
 Frequencies --    810.1247               849.7584               862.5499
 Red. masses --      2.6331                 1.6414                 2.4598
 Frc consts  --      1.0182                 0.6983                 1.0782
 IR Inten    --     28.2876               187.4095                14.1937

                     34                     35                     36
                      A                      A                      A
 Frequencies --    882.5697               895.3789               907.2207
 Red. masses --      2.5885                 1.8267                 2.5644
 Frc consts  --      1.1880                 0.8629                 1.2436
 IR Inten    --      2.6145                 4.4704                 9.4424

                     37                     38                     39
                      A                      A                      A
 Frequencies --    938.6916               945.4062               951.6888
 Red. masses --      1.9431                 2.0472                 1.6113
 Frc consts  --      1.0088                 1.0781                 0.8598
 IR Inten    --     24.6012                19.4195                 0.6238

                     40                     41                     42
                      A                      A                      A
 Frequencies --    985.3041              1003.3243              1013.5794
 Red. masses --      1.2645                 1.8062                 1.8166
 Frc consts  --      0.7233                 1.0713                 1.0996
 IR Inten    --      0.1028                 9.7792                29.3655

                     43                     44                     45
                      A                      A                      A
 Frequencies --   1080.8019              1086.5639              1109.6802
 Red. masses --      2.1667                 2.0454                 3.1342
 Frc consts  --      1.4912                 1.4228                 2.2739
 IR Inten    --     15.3620                 1.4022                27.8292

                     46                     47                     48
                      A                      A                      A
 Frequencies --   1132.2581              1157.6315              1165.5167
 Red. masses --      1.9991                 1.3877                 1.9420
 Frc consts  --      1.5100                 1.0957                 1.5543
 IR Inten    --      6.5765                 6.4984                 5.9112

                     49                     50                     51
                      A                      A                      A
 Frequencies --   1187.9244              1197.8225              1213.6056
 Red. masses --      1.8425                 1.1058                 2.0579
 Frc consts  --      1.5319                 0.9348                 1.7858
 IR Inten    --    157.9940                 1.5887                14.0953

                     52                     53                     54
                      A                      A                      A
 Frequencies --   1224.6392              1236.7594              1244.5631
 Red. masses --      1.6312                 1.5184                 1.8011
 Frc consts  --      1.4414                 1.3684                 1.6437
 IR Inten    --      6.7456                44.6276                 7.5405

                     55                     56                     57
                      A                      A                      A
 Frequencies --   1256.3830              1300.1676              1340.3637
 Red. masses --      2.0375                 1.5768                 1.4948
 Frc consts  --      1.8949                 1.5705                 1.5823
 IR Inten    --      3.2854                 6.2660                 4.6113

                     58                     59                     60
                      A                      A                      A
 Frequencies --   1347.4095              1353.9870              1366.7917
 Red. masses --      1.4050                 1.4653                 3.3794
 Frc consts  --      1.5029                 1.5828                 3.7196
 IR Inten    --     22.9602                 0.5515                 3.7986

                     61                     62                     63
                      A                      A                      A
 Frequencies --   1381.4735              1402.8442              1418.8229
 Red. masses --      2.5369                 1.2266                 1.4272
 Frc consts  --      2.8526                 1.4222                 1.6928
 IR Inten    --     33.1312                 0.0061                15.3578

                     64                     65                     66
                      A                      A                      A
 Frequencies --   1424.8340              1431.0634              1481.4091
 Red. masses --      1.2685                 1.2799                 1.1711
 Frc consts  --      1.5173                 1.5443                 1.5143
 IR Inten    --     16.9092                14.2130                 0.2642

                     67                     68                     69
                      A                      A                      A
 Frequencies --   1489.7582              1502.9265              1513.5235
 Red. masses --      1.1148                 2.1829                 1.1185
 Frc consts  --      1.4577                 2.9051                 1.5096
 IR Inten    --      8.0382                 8.1094                 9.2298

                     70                     71                     72
                      A                      A                      A
 Frequencies --   1520.0455              1520.9473              1531.7096
 Red. masses --      1.0822                 1.0759                 1.0891
 Frc consts  --      1.4732                 1.4664                 1.5054
 IR Inten    --      4.6491                 3.7486                 7.4685

                     73                     74                     75
                      A                      A                      A
 Frequencies --   1535.5118              1545.9692              1642.0452
 Red. masses --      1.0861                 2.3386                 6.0215
 Frc consts  --      1.5088                 3.2931                 9.5658
 IR Inten    --      4.0402                 9.6859                 0.0672

                     76                     77                     78
                      A                      A                      A
 Frequencies --   1669.9559              1693.1276              1836.9324
 Red. masses --      5.9283                 1.0914                 9.6383
 Frc consts  --      9.7406                 1.8433                19.1618
 IR Inten    --      0.9343                16.3871               308.9086

                     79                     80                     81
                      A                      A                      A
 Frequencies --   2913.4764              2930.5203              2949.8335
 Red. masses --      1.0732                 1.0739                 1.0619
 Frc consts  --      5.3673                 5.4339                 5.4444
 IR Inten    --     54.6755                66.6636               127.8043

                     82                     83                     84
                      A                      A                      A
 Frequencies --   3034.7304              3053.4876              3075.8865
 Red. masses --      1.0714                 1.0702                 1.0873
 Frc consts  --      5.8134                 5.8790                 6.0609
 IR Inten    --     55.6387                15.5443                31.3408

                     85                     86                     87
                      A                      A                      A
 Frequencies --   3096.8653              3109.1418              3130.8323
 Red. masses --      1.0741                 1.0834                 1.0947
 Frc consts  --      6.0692                 6.1707                 6.3222
 IR Inten    --     35.4502                 9.7394                 3.2867

                     88                     89                     90
                      A                      A                      A
 Frequencies --   3135.0706              3151.7454              3177.3232
 Red. masses --      1.0906                 1.1005                 1.0860
 Frc consts  --      6.3153                 6.4410                 6.4594
 IR Inten    --     13.3231                19.7923                10.7048

                     91                     92                     93
                      A                      A                      A
 Frequencies --   3181.7594              3195.6087              3210.2403
 Red. masses --      1.0888                 1.0918                 1.0975
 Frc consts  --      6.4945                 6.5688                 6.6640
 IR Inten    --      2.3410                27.5678                28.7971

                     94                     95                     96
                      A                      A                      A
 Frequencies --   3475.3777              3575.5829              3688.8677
 Red. masses --      1.0501                 1.0917                 1.0638
 Frc consts  --      7.4728                 8.2230                 8.5292
 IR Inten    --      2.7744                 1.0486                46.2445

 - Thermochemistry -
 -------------------
 Temperature   298.150 Kelvin.  Pressure   1.00000 Atm.
 Atom     1 has atomic number  6 and mass  12.00000

 Molecular mass:   222.13683 amu.
 Principal axes and moments of inertia in atomic units:
                           1         2         3
     Eigenvalues --  2317.184814451.549375236.02138
           X            0.99978   0.02078  -0.00101
           Y           -0.02080   0.99936  -0.02919
           Z            0.00040   0.02921   0.99957
 This molecule is an asymmetric top.
 Rotational symmetry number  1.
 Warning -- assumption of classical behavior for rotation
           may cause significant error
 Rotational temperatures (Kelvin)      0.03738     0.01946     0.01654
 Rotational constants (GHZ):           0.77885     0.40542     0.34468
 Zero-point vibrational energy     771026.1 (Joules/Mol)
                                  184.27966 (Kcal/Mol)
 Warning -- explicit consideration of  24 degrees of freedom as
           vibrations may cause significant error
 Vibrational temperatures:     56.35    97.09   116.83   134.42   143.74
          (Kelvin)            157.34   177.30   214.86   285.53   334.34
                              364.48   418.77   439.49   461.32   504.16
                              519.38   555.97   605.51   632.53   696.19
                              721.72   742.18   758.86   859.60   907.84
                              929.49  1001.42  1077.02  1094.03  1146.52
                             1165.59  1222.61  1241.02  1269.82  1288.25
                             1305.29  1350.57  1360.23  1369.27  1417.63
                             1443.56  1458.31  1555.03  1563.32  1596.58
                             1629.07  1665.57  1676.92  1709.16  1723.40
                             1746.11  1761.98  1779.42  1790.65  1807.65
                             1870.65  1928.48  1938.62  1948.09  1966.51
                             1987.63  2018.38  2041.37  2050.02  2058.98
                             2131.42  2143.43  2162.38  2177.62  2187.01
                             2188.30  2203.79  2209.26  2224.30  2362.54
                             2402.69  2436.03  2642.94  4191.84  4216.37
                             4244.15  4366.30  4393.29  4425.51  4455.70
                             4473.36  4504.57  4510.67  4534.66  4571.46
                             4577.84  4597.77  4618.82  5000.29  5144.47
                             5307.46

 Zero-point correction=                           0.293668 (Hartree/Particle)
 Thermal correction to Energy=                    0.309545
 Thermal correction to Enthalpy=                  0.310489
 Thermal correction to Gibbs Free Energy=         0.250567
 Sum of electronic and zero-point Energies=           -727.832430
 Sum of electronic and thermal Energies=              -727.816554
 Sum of electronic and thermal Enthalpies=            -727.815609
 Sum of electronic and thermal Free Energies=         -727.875532

                     E (Thermal)             CV                S
                      KCal/Mol        Cal/Mol-Kelvin    Cal/Mol-Kelvin
 Total                  194.242             60.780            126.117
 Electronic               0.000              0.000              0.000
 Translational            0.889              2.981             42.097
 Rotational               0.889              2.981             32.357
 Vibrational            192.465             54.818             51.662
 Vibration     1          0.594              1.981              5.301
 Vibration     2          0.598              1.970              4.226
 Vibration     3          0.600              1.962              3.862
 Vibration     4          0.602              1.954              3.587
 Vibration     5          0.604              1.949              3.456
 Vibration     6          0.606              1.942              3.280
 Vibration     7          0.610              1.930              3.049
 Vibration     8          0.618              1.903              2.681
 Vibration     9          0.637              1.842              2.147
 Vibration    10          0.653              1.791              1.860
 Vibration    11          0.664              1.757              1.707
 Vibration    12          0.687              1.690              1.468
 Vibration    13          0.696              1.663              1.387
 Vibration    14          0.706              1.634              1.307
 Vibration    15          0.727              1.574              1.164
 Vibration    16          0.735              1.553              1.118
 Vibration    17          0.755              1.499              1.014
 Vibration    18          0.783              1.425              0.889
 Vibration    19          0.800              1.384              0.828
 Vibration    20          0.840              1.286              0.700
 Vibration    21          0.857              1.246              0.654
 Vibration    22          0.871              1.215              0.620
 Vibration    23          0.882              1.189              0.593
 Vibration    24          0.955              1.037              0.454

 Optimization completed.
    -- Stationary point found.
 Normal termination of Gaussian 16 at Fri Dec 11 00:12:31 2020.

 ----------------------------------------------------------------------
 # B3LYP/6-311++G(d,p) empiricaldispersion=gd3bj scf=xqc pop=npa geom=c
 heck
 ----------------------------------------------------------------------

 ---------------------------------------
 CID_115463018_JID_6625_Energie_neutraal
 ---------------------------------------
 Structure from the checkpoint file:  "JID_6625.chk"
 Charge =  0 Multiplicity = 1

 SCF Done:  E(RB3LYP) =  -728.343180860     A.U. after   15 cycles
 Normal termination of Gaussian 16 at Fri Dec 11 00:17:51 2020.

 ----------------------------------------------------------------------
 # B3LYP/6-311++G(d,p) empiricaldispersion=gd3bj scf=xqc pop=npa geom=c
 heck
 ----------------------------------------------------------------------

 -------------------------------------
 CID_115463018_JID_6625_Energie_kation
 -------------------------------------
 Structure from the checkpoint file:  "JID_6625.chk"
 Charge =  1 Multiplicity = 2

 SCF Done:  E(UB3LYP) =  -728.053683816     A.U. after   25 cycles
 Normal termination of Gaussian 16 at Fri Dec 11 00:29:33 2020.
 Gaussian 16:  ES64L-G16RevA.03 25-Dec-2016

 ----------------------------------------------------------------------
 # B3LYP/6-311++G(d,p) empiricaldispersion=gd3bj scf=xqc pop=npa geom=c
 heck
 ----------------------------------------------------------------------

 ------------------------------------
 CID_115463018_JID_6625_Energie_anion
 ------------------------------------
 Structure from the checkpoint file:  "JID_6625.chk"
 Charge = -1 Multiplicity = 2

                         Standard orientation:
 ---------------------------------------------------------------------
 Center     Atomic      Atomic             Coordinates (Angstroms)
 Number     Number       Type             X           Y           Z
 ---------------------------------------------------------------------
      1          6           0       -0.637848   -0.775719    2.140785
      2          7           0       -1.111731   -0.692602    0.762835
      3          6           0       -2.526951   -1.066579    0.657174
      4          6           0       -3.304385   -0.439397   -0.513881
      5          7           0       -3.051882   -0.913616   -1.877885
      6          6           0       -0.252413   -1.477422   -0.126472
      7          6           0        1.147042   -0.913580   -0.229970
      8          6           0        2.242441   -1.715828    0.100578
      9          6           0        3.548464   -1.234179    0.014004
     10          6           0        3.769397    0.075696   -0.405176
     11          6           0        2.682823    0.884616   -0.735560
     12          6           0        1.370800    0.410606   -0.655019
     13          6           0        0.230810    1.329008   -1.028218
     14          6           0       -0.495489    2.008002    0.120443
     15          8           0       -1.615020    2.466841    0.054574
     16          8           0        0.289408    2.168106    1.212989
     17          1           0       -1.238443   -0.114437    2.772778
     18          1           0        0.401672   -0.444981    2.191823
     19          1           0       -0.699691   -1.801355    2.552477
     20          1           0       -2.646506   -2.169606    0.641523
     21          1           0       -3.016605   -0.720041    1.574543
     22          1           0       -4.369554   -0.608863   -0.303692
     23          1           0       -3.141761    0.641767   -0.499385
     24          1           0       -2.173398   -0.550382   -2.236338
     25          1           0       -2.989733   -1.930163   -1.905284
     26          1           0       -0.195621   -2.534103    0.201127
     27          1           0       -0.722198   -1.490036   -1.113463
     28          1           0        2.063619   -2.734746    0.435188
     29          1           0        4.383983   -1.877194    0.275600
     30          1           0        4.779773    0.468156   -0.476159
     31          1           0        2.853418    1.907518   -1.062080
     32          1           0        0.611710    2.141197   -1.661795
     33          1           0       -0.538069    0.819762   -1.612569
     34          1           0       -0.260559    2.650116    1.858420
 ---------------------------------------------------------------------

 SCF Done:  E(UB3LYP) =  -728.330693149     A.U. after   33 cycles
 SCF Done:  E(UB3LYP) =  -728.330693149     a.u. after    1 cycles

 The electronic state is 2-A.
 Alpha  occ. eigenvalues --  -19.07087 -19.01541 -14.21547 -14.20234 -10.21302
 Alpha  occ. eigenvalues --  -10.10459 -10.09910 -10.09841 -10.09525 -10.09415
 Alpha  occ. eigenvalues --  -10.08956 -10.08601 -10.08213 -10.08166 -10.08124
 Alpha  occ. eigenvalues --  -10.08034  -1.01233  -0.92231  -0.83727  -0.78769
 Alpha  occ. eigenvalues --   -0.77055  -0.69933  -0.67712  -0.63526  -0.62701
 Alpha  occ. eigenvalues --   -0.60290  -0.54745  -0.52527  -0.50930  -0.50036
 Alpha  occ. eigenvalues --   -0.47745  -0.42235  -0.41634  -0.40086  -0.39192
 Alpha  occ. eigenvalues --   -0.38607  -0.37441  -0.37141  -0.36520  -0.35837
 Alpha  occ. eigenvalues --   -0.34625  -0.32897  -0.32418  -0.31609  -0.30623
 Alpha  occ. eigenvalues --   -0.30264  -0.29457  -0.28384  -0.27883  -0.27244
 Alpha  occ. eigenvalues --   -0.26500  -0.25988  -0.25156  -0.24346  -0.22607
 Alpha  occ. eigenvalues --   -0.19266  -0.16231  -0.15600  -0.15073  -0.12809
 Alpha  occ. eigenvalues --    0.04174
 Alpha virt. eigenvalues --    0.06146   0.06364   0.06740   0.07401   0.07778
 Alpha virt. eigenvalues --    0.08035   0.08448   0.08994   0.09348   0.10118
 Alpha virt. eigenvalues --    0.10684   0.10991   0.11216   0.12063   0.12900

  Beta  occ. eigenvalues --  -19.07048 -19.01532 -14.21535 -14.20209 -10.21300
  Beta  occ. eigenvalues --  -10.10441 -10.09898 -10.09823 -10.09519 -10.09413
  Beta  occ. eigenvalues --  -10.08955 -10.08572 -10.08201 -10.08154 -10.08111
  Beta  occ. eigenvalues --  -10.08021  -1.01182  -0.92191  -0.83702  -0.78725
  Beta  occ. eigenvalues --   -0.77036  -0.69904  -0.67688  -0.63491  -0.62662
  Beta  occ. eigenvalues --   -0.60247  -0.54703  -0.52464  -0.50884  -0.49989
  Beta  occ. eigenvalues --   -0.47693  -0.42190  -0.41603  -0.40059  -0.39170
  Beta  occ. eigenvalues --   -0.38575  -0.37411  -0.37103  -0.36487  -0.35809
  Beta  occ. eigenvalues --   -0.34591  -0.32862  -0.32386  -0.31575  -0.30584
  Beta  occ. eigenvalues --   -0.30228  -0.29428  -0.28360  -0.27857  -0.27216
  Beta  occ. eigenvalues --   -0.26476  -0.25965  -0.25126  -0.24320  -0.22579
  Beta  occ. eigenvalues --   -0.19232  -0.16215  -0.15577  -0.15044  -0.12745
  Beta virt. eigenvalues --    0.06314   0.06762   0.07169   0.07411   0.07456
  Beta virt. eigenvalues --    0.08187   0.08294   0.09046   0.09357   0.09804
  Beta virt. eigenvalues --    0.10369   0.10986   0.11152   0.11573   0.12299

 Mulliken charges and spin densities:
               1          2
     1  C    0.298951  -0.802033
     2  N    0.083388   0.143430
     3  C   -0.282993   0.074999
     4  C   -0.091455  -0.450715
     5  N   -0.306390  -0.018225
     6  C    1.541103  -2.285535
     7  C   -1.050640   1.802165
     8  C    0.206603  -0.528178
     9  C    0.875233  -1.311510
    10  C    1.078720  -1.566295
    11  C   -0.397917   0.027611
    12  C   -0.834608   1.595806
    13  C    0.054285  -0.326465
    14  C   -0.044144  -0.335880
    15  O   -0.222958   0.025566
    16  O   -0.136678   0.037397
    17  H   -0.193160   0.357247
    18  H    0.283979  -0.141115
    19  H   -0.217149   0.354209
    20  H    0.020053   0.103292
    21  H    0.049715   0.099089
    22  H    0.043030   0.104796
    23  H    0.207145   0.024040
    24  H    0.103064   0.105071
    25  H    0.065264   0.164334
    26  H   -0.235944   0.389473
    27  H   -0.056986   0.173133
    28  H   -0.468624   0.628652
    29  H   -0.513546   0.688541
    30  H   -0.381248   0.545227
    31  H   -0.260415   0.408864
    32  H   -0.065183   0.278143
    33  H    0.051162   0.129689
    34  H   -0.201656   0.505181
 Sum of Mulliken charges =  -1.00000   1.00000

 Dipole moment (field-independent basis, Debye):
    X=             -1.9158    Y=              0.4491    Z=             -1.3682  Tot=              2.3967
 Quadrupole moment (field-independent basis, Debye-Ang):
   XX=           -167.1271   YY=           -147.2287   ZZ=           -138.2855
   XY=              6.9726   XZ=             -4.1196   YZ=             -2.3275

 Summary of Natural Population Analysis:

                                       Natural Population
                Natural  -----------------------------------------------
    Atom  No    Charge         Core      Valence    Rydberg      Total
 -----------------------------------------------------------------------
      C    1   -0.17819      0.99963     2.16961    0.00895     3.17819
      N    2   -0.29120      0.99972     2.77613    0.01535     3.79120
      C    3   -0.08710      0.99959     2.07671    0.01080     3.08710
      C    4   -0.10128      0.99962     2.09058    0.01108     3.10128
      N    5   -0.41843      0.99978     2.90931    0.00933     3.91843
      C    6   -0.09302      0.99957     2.08101    0.01243     3.09302
      C    7   -0.01949      0.99945     2.00799    0.01205     3.01949
      C    8   -0.09467      0.99951     2.08490    0.01026     3.09467
      C    9   -0.09835      0.99956     2.08859    0.01020     3.09835
      C   10   -0.10745      0.99959     2.09616    0.01170     3.10745
      C   11   -0.06909      0.99951     2.06392    0.00566     3.06909
      C   12   -0.01882      0.99948     2.00635    0.01300     3.01882
      C   13   -0.24349      0.99953     2.23313    0.01082     3.24349
      C   14    0.41742      0.99971     1.55604    0.02683     2.58258
      O   15   -0.31561      0.99986     3.30963    0.00612     4.31561
      O   16   -0.34210      0.99987     3.33457    0.00765     4.34210
      H   17    0.09711      0.00000     0.40143    0.00146     0.40289
      H   18    0.10484      0.00000     0.39354    0.00162     0.39516
      H   19    0.08229      0.00000     0.41645    0.00125     0.41771
      H   20    0.07925      0.00000     0.41901    0.00175     0.42075
      H   21    0.09871      0.00000     0.39987    0.00142     0.40129
      H   22    0.08510      0.00000     0.41389    0.00102     0.41490
      H   23    0.10813      0.00000     0.39025    0.00162     0.39187
      H   24    0.17127      0.00000     0.32662    0.00211     0.32873
      H   25    0.17105      0.00000     0.32710    0.00185     0.32895
      H   26    0.08905      0.00000     0.40897    0.00198     0.41095
      H   27    0.10103      0.00000     0.39698    0.00199     0.39897
      H   28    0.10176      0.00000     0.39635    0.00189     0.39824
      H   29    0.10225      0.00000     0.39617    0.00158     0.39775
      H   30    0.10094      0.00000     0.39748    0.00158     0.39906
      H   31    0.09669      0.00000     0.40163    0.00168     0.40331
      H   32    0.11532      0.00000     0.38346    0.00122     0.38468
      H   33    0.11320      0.00000     0.38533    0.00147     0.38680
      H   34    0.24293      0.00000     0.25001    0.00706     0.25707
 =======================================================================
   * Total *    0.00004     15.99399    43.78917    0.21680    59.99996

 Normal termination of Gaussian 16 at Fri Dec 11 00:45:13 2020.
