 Gaussian 16, Revision A.03,

 -----------------------------------------------------------
 # opt freq B3LYP/6-31G(d) empiricaldispersion=gd3bj scf=xqc
 -----------------------------------------------------------

 ------------------------------
 CID_62127662_JID_5821_neutraal
 ------------------------------
 Symbolic Z-matrix:
 Charge =  0 Multiplicity = 1

 SCF Done:  E(RB3LYP) =  -665.290700088     A.U. after   15 cycles
 SCF Done:  E(RB3LYP) =  -665.292866109     A.U. after   13 cycles
 SCF Done:  E(RB3LYP) =  -665.292648067     A.U. after   12 cycles
 SCF Done:  E(RB3LYP) =  -665.293406759     A.U. after   12 cycles
 SCF Done:  E(RB3LYP) =  -665.293641805     A.U. after   11 cycles
 SCF Done:  E(RB3LYP) =  -665.293699258     A.U. after   11 cycles
 SCF Done:  E(RB3LYP) =  -665.293724051     A.U. after   11 cycles
 SCF Done:  E(RB3LYP) =  -665.293729865     A.U. after   10 cycles
 SCF Done:  E(RB3LYP) =  -665.293730561     A.U. after    8 cycles
 SCF Done:  E(RB3LYP) =  -665.293730844     A.U. after    8 cycles
 SCF Done:  E(RB3LYP) =  -665.293760826     A.U. after   11 cycles
 SCF Done:  E(RB3LYP) =  -665.293765719     A.U. after   10 cycles
 SCF Done:  E(RB3LYP) =  -665.293766315     A.U. after    9 cycles
 SCF Done:  E(RB3LYP) =  -665.293766679     A.U. after    9 cycles
 SCF Done:  E(RB3LYP) =  -665.293766693     A.U. after    7 cycles
 SCF Done:  E(RB3LYP) =  -665.293766699     A.U. after    6 cycles
 Optimization completed.
    -- Stationary point found.
 Normal termination of Gaussian 16 at Thu Dec 10 17:55:24 2020.

 --------------------------------------------------------------------
 #N Geom=AllCheck Guess=TCheck SCRF=Check GenChk RB3LYP/6-31G(d) Freq
 --------------------------------------------------------------------

 Structure from the checkpoint file:  "JID_5821.chk"
 ------------------------------
 CID_62127662_JID_5821_neutraal
 ------------------------------
 Charge =  0 Multiplicity = 1

 SCF Done:  E(RB3LYP) =  -665.293766699     A.U. after    1 cycles

  Exact polarizability: 149.611   8.987 133.747 -13.694 -12.443  95.604
 Approx polarizability: 205.499  17.061 235.008 -26.477 -33.040 167.670

                      1                      2                      3
                      A                      A                      A
 Frequencies --     25.7170                27.3765                48.5213
 Red. masses --      3.7266                 6.2020                 3.7756
 Frc consts  --      0.0015                 0.0027                 0.0052
 IR Inten    --      1.1947                 0.9354                 0.2886

                      4                      5                      6
                      A                      A                      A
 Frequencies --     60.2493                86.8982               150.5607
 Red. masses --      1.0836                 7.0088                 5.8269
 Frc consts  --      0.0023                 0.0312                 0.0778
 IR Inten    --      0.3253                 1.2812                 4.6144

                      7                      8                      9
                      A                      A                      A
 Frequencies --    163.6228               203.2510               256.3924
 Red. masses --      4.1814                 4.2189                 3.4271
 Frc consts  --      0.0660                 0.1027                 0.1327
 IR Inten    --      0.8941                 6.2664                 4.3538

                     10                     11                     12
                      A                      A                      A
 Frequencies --    290.7788               380.8230               388.3929
 Red. masses --      6.0880                 3.6587                 2.6545
 Frc consts  --      0.3033                 0.3126                 0.2359
 IR Inten    --      2.0342                 0.2666                 0.1884

                     13                     14                     15
                      A                      A                      A
 Frequencies --    410.6832               444.6217               482.7557
 Red. masses --      2.9191                 5.0756                 4.2472
 Frc consts  --      0.2901                 0.5912                 0.5832
 IR Inten    --      2.5986                 2.0045                 3.9873

                     16                     17                     18
                      A                      A                      A
 Frequencies --    566.1262               625.6116               634.7135
 Red. masses --      4.6686                 4.2447                 4.4912
 Frc consts  --      0.8816                 0.9788                 1.0660
 IR Inten    --     14.5898                10.6420                22.7528

                     19                     20                     21
                      A                      A                      A
 Frequencies --    669.4700               684.9961               722.8214
 Red. masses --      4.4156                 6.9152                 4.4085
 Frc consts  --      1.1660                 1.9118                 1.3571
 IR Inten    --     15.9373                 1.5831                29.0655

                     22                     23                     24
                      A                      A                      A
 Frequencies --    749.2674               762.2260               776.6418
 Red. masses --      4.1622                 3.1605                 1.6500
 Frc consts  --      1.3767                 1.0819                 0.5864
 IR Inten    --      0.5107                15.2026                13.2825

                     25                     26                     27
                      A                      A                      A
 Frequencies --    796.6856               857.5837               878.3699
 Red. masses --      1.7404                 1.7642                 1.5146
 Frc consts  --      0.6508                 0.7645                 0.6885
 IR Inten    --      9.8976                13.4233                 7.3907

                     28                     29                     30
                      A                      A                      A
 Frequencies --    899.4522               954.6783               982.7984
 Red. masses --      1.2715                 2.2619                 1.3774
 Frc consts  --      0.6061                 1.2146                 0.7839
 IR Inten    --      1.1275                 5.4738                 1.8629

                     31                     32                     33
                      A                      A                      A
 Frequencies --   1004.7351              1010.1287              1016.6092
 Red. masses --      1.4080                 3.6993                 7.1662
 Frc consts  --      0.8374                 2.2240                 4.3636
 IR Inten    --      0.6142                32.9749                 4.5601

                     34                     35                     36
                      A                      A                      A
 Frequencies --   1045.2125              1066.7378              1082.9854
 Red. masses --      4.3137                 3.1778                 1.6237
 Frc consts  --      2.7766                 2.1305                 1.1220
 IR Inten    --     16.5243                12.3506                10.1271

                     37                     38                     39
                      A                      A                      A
 Frequencies --   1099.0965              1123.3153              1157.9695
 Red. masses --      1.7253                 1.6140                 1.3388
 Frc consts  --      1.2280                 1.1999                 1.0577
 IR Inten    --      4.7285                 1.5200                11.3443

                     40                     41                     42
                      A                      A                      A
 Frequencies --   1175.0589              1191.0896              1237.3425
 Red. masses --      1.4247                 1.7513                 1.5201
 Frc consts  --      1.1590                 1.4638                 1.3712
 IR Inten    --     15.1974                10.9860                18.4731

                     43                     44                     45
                      A                      A                      A
 Frequencies --   1254.5123              1302.3586              1308.1364
 Red. masses --      1.2875                 6.0173                 3.1220
 Frc consts  --      1.1938                 6.0133                 3.1477
 IR Inten    --      2.5556                42.2234               123.5049

                     46                     47                     48
                      A                      A                      A
 Frequencies --   1318.3503              1349.4028              1367.2441
 Red. masses --      1.6517                 3.4405                 1.4058
 Frc consts  --      1.6914                 3.6911                 1.5483
 IR Inten    --      9.5408                10.6225                11.9275

                     49                     50                     51
                      A                      A                      A
 Frequencies --   1408.3488              1436.6753              1456.1996
 Red. masses --      6.3385                 3.7115                 1.9649
 Frc consts  --      7.4072                 4.5135                 2.4549
 IR Inten    --      8.4727                 9.9282                18.8100

                     52                     53                     54
                      A                      A                      A
 Frequencies --   1467.7985              1493.3198              1505.6580
 Red. masses --      1.7194                 1.8283                 1.1329
 Frc consts  --      2.1825                 2.4022                 1.5131
 IR Inten    --     34.8601                17.5088                 6.5984

                     55                     56                     57
                      A                      A                      A
 Frequencies --   1509.5599              1540.3541              1545.6733
 Red. masses --      1.0638                 2.1005                 1.1893
 Frc consts  --      1.4282                 2.9364                 1.6741
 IR Inten    --      8.8688                 2.2470                 7.1465

                     58                     59                     60
                      A                      A                      A
 Frequencies --   1616.0335              1617.0257              1650.8698
 Red. masses --      5.3085                 6.8924                 5.2821
 Frc consts  --      8.1681                10.6183                 8.4817
 IR Inten    --      3.1015                24.6657                 4.4433

                     61                     62                     63
                      A                      A                      A
 Frequencies --   1783.4140              3064.0773              3067.9651
 Red. masses --     11.6249                 1.0590                 1.0368
 Frc consts  --     21.7843                 5.8579                 5.7497
 IR Inten    --    148.5163                18.0085                49.8628

                     64                     65                     66
                      A                      A                      A
 Frequencies --   3110.4587              3140.4171              3172.6924
 Red. masses --      1.1047                 1.1004                 1.1055
 Frc consts  --      6.2969                 6.3939                 6.5564
 IR Inten    --     10.0235                14.1737                 6.6553

                     67                     68                     69
                      A                      A                      A
 Frequencies --   3176.0225              3181.5181              3234.7151
 Red. masses --      1.0890                 1.0913                 1.0926
 Frc consts  --      6.4721                 6.5083                 6.7356
 IR Inten    --     29.9924                23.1225                 4.4089

                     70                     71                     72
                      A                      A                      A
 Frequencies --   3237.0676              3259.1410              3264.9885
 Red. masses --      1.0918                 1.0961                 1.0978
 Frc consts  --      6.7405                 6.8598                 6.8949
 IR Inten    --      7.1251                 1.8756                 0.4702

 - Thermochemistry -
 -------------------
 Temperature   298.150 Kelvin.  Pressure   1.00000 Atm.
 Atom     1 has atomic number  6 and mass  12.00000

 Molecular mass:   201.09021 amu.
 Principal axes and moments of inertia in atomic units:
                           1         2         3
     Eigenvalues --  1690.037634918.407305876.15148
           X            0.99982   0.01805  -0.00656
           Y           -0.01810   0.99980  -0.00796
           Z            0.00642   0.00808   0.99995
 This molecule is an asymmetric top.
 Rotational symmetry number  1.
 Warning -- assumption of classical behavior for rotation
           may cause significant error
 Rotational temperatures (Kelvin)      0.05125     0.01761     0.01474
 Rotational constants (GHZ):           1.06787     0.36694     0.30713
 Zero-point vibrational energy     544494.5 (Joules/Mol)
                                  130.13730 (Kcal/Mol)
 Warning -- explicit consideration of  16 degrees of freedom as
           vibrations may cause significant error
 Vibrational temperatures:     37.00    39.39    69.81    86.69   125.03
          (Kelvin)            216.62   235.42   292.43   368.89   418.37
                              547.92   558.81   590.88   639.71   694.58
                              814.53   900.12   913.21   963.22   985.56
                             1039.98  1078.03  1096.67  1117.41  1146.25
                             1233.87  1263.78  1294.11  1373.57  1414.03
                             1445.59  1453.35  1462.67  1503.83  1534.80
                             1558.17  1581.35  1616.20  1666.06  1690.65
                             1713.71  1780.26  1804.96  1873.80  1882.12
                             1896.81  1941.49  1967.16  2026.30  2067.06
                             2095.15  2111.83  2148.55  2166.31  2171.92
                             2216.23  2223.88  2325.11  2326.54  2375.23
                             2565.94  4408.52  4414.12  4475.26  4518.36
                             4564.80  4569.59  4577.49  4654.03  4657.42
                             4689.18  4697.59

 Zero-point correction=                           0.207387 (Hartree/Particle)
 Thermal correction to Energy=                    0.220438
 Thermal correction to Enthalpy=                  0.221383
 Thermal correction to Gibbs Free Energy=         0.164792
 Sum of electronic and zero-point Energies=           -665.086380
 Sum of electronic and thermal Energies=              -665.073328
 Sum of electronic and thermal Enthalpies=            -665.072384
 Sum of electronic and thermal Free Energies=         -665.128975

                     E (Thermal)             CV                S
                      KCal/Mol        Cal/Mol-Kelvin    Cal/Mol-Kelvin
 Total                  138.327             47.971            119.105
 Electronic               0.000              0.000              0.000
 Translational            0.889              2.981             41.800
 Rotational               0.889              2.981             32.257
 Vibrational            136.550             42.009             45.047
 Vibration     1          0.593              1.985              6.135
 Vibration     2          0.593              1.984              6.011
 Vibration     3          0.595              1.978              4.877
 Vibration     4          0.597              1.973              4.449
 Vibration     5          0.601              1.958              3.729
 Vibration     6          0.618              1.902              2.665
 Vibration     7          0.623              1.887              2.507
 Vibration     8          0.639              1.835              2.103
 Vibration     9          0.666              1.752              1.686
 Vibration    10          0.687              1.691              1.469
 Vibration    11          0.751              1.511              1.036
 Vibration    12          0.757              1.495              1.006
 Vibration    13          0.775              1.447              0.924
 Vibration    14          0.804              1.373              0.812
 Vibration    15          0.839              1.288              0.703
 Vibration    16          0.922              1.105              0.512

 Optimization completed.
    -- Stationary point found.
 Normal termination of Gaussian 16 at Thu Dec 10 18:02:30 2020.

 ----------------------------------------------------------------------
 # B3LYP/6-311++G(d,p) empiricaldispersion=gd3bj scf=xqc pop=npa geom=c
 heck
 ----------------------------------------------------------------------

 --------------------------------------
 CID_62127662_JID_5821_Energie_neutraal
 --------------------------------------
 Structure from the checkpoint file:  "JID_5821.chk"
 Charge =  0 Multiplicity = 1

 SCF Done:  E(RB3LYP) =  -665.470152997     A.U. after   15 cycles
 Normal termination of Gaussian 16 at Thu Dec 10 18:05:33 2020.

 ----------------------------------------------------------------------
 # B3LYP/6-311++G(d,p) empiricaldispersion=gd3bj scf=xqc pop=npa geom=c
 heck
 ----------------------------------------------------------------------

 ------------------------------------
 CID_62127662_JID_5821_Energie_kation
 ------------------------------------
 Structure from the checkpoint file:  "JID_5821.chk"
 Charge =  1 Multiplicity = 2

 SCF Done:  E(UB3LYP) =  -665.156421888     A.U. after   30 cycles
 Normal termination of Gaussian 16 at Thu Dec 10 18:13:58 2020.
 Gaussian 16:  ES64L-G16RevA.03 25-Dec-2016

 ----------------------------------------------------------------------
 # B3LYP/6-311++G(d,p) empiricaldispersion=gd3bj scf=xqc pop=npa geom=c
 heck
 ----------------------------------------------------------------------

 -----------------------------------
 CID_62127662_JID_5821_Energie_anion
 -----------------------------------
 Structure from the checkpoint file:  "JID_5821.chk"
 Charge = -1 Multiplicity = 2

                         Standard orientation:
 ---------------------------------------------------------------------
 Center     Atomic      Atomic             Coordinates (Angstroms)
 Number     Number       Type             X           Y           Z
 ---------------------------------------------------------------------
      1          6           0       -4.164964   -1.600832   -0.190560
      2          7           0       -3.090201   -0.629043   -0.175086
      3          6           0       -2.285396   -0.287634    0.866305
      4          6           0       -1.476014    0.748702    0.430148
      5          6           0       -1.882392    0.957654   -0.910541
      6          7           0       -2.860696    0.127336   -1.270960
      7          6           0       -0.394019    1.474033    1.182883
      8          6           0        0.878759    1.564287    0.344526
      9          8           0        1.193502    2.614120   -0.190331
     10          6           0        1.722346    0.335630    0.158632
     11          6           0        1.394843   -0.916234    0.689044
     12          6           0        2.261262   -1.986023    0.463682
     13          7           0        3.399415   -1.889352   -0.232698
     14          6           0        3.703954   -0.685795   -0.738835
     15          6           0        2.908429    0.444613   -0.575392
     16          1           0       -5.135328   -1.114029   -0.046238
     17          1           0       -4.161459   -2.111136   -1.155278
     18          1           0       -4.001789   -2.327493    0.608429
     19          1           0       -2.347678   -0.791623    1.820890
     20          1           0       -1.490103    1.674130   -1.620449
     21          1           0       -0.687731    2.504367    1.407083
     22          1           0       -0.190062    0.967606    2.133051
     23          1           0        0.479535   -1.072165    1.247074
     24          1           0        2.027362   -2.971288    0.862638
     25          1           0        4.632577   -0.627203   -1.303006
     26          1           0        3.186182    1.402883   -0.999688
 ---------------------------------------------------------------------

 SCF Done:  E(UB3LYP) =  -665.496618838     A.U. after   25 cycles

 The electronic state is 2-A.
 Alpha  occ. eigenvalues --  -18.92412 -14.28427 -14.22070 -14.14061 -10.12959
 Alpha  occ. eigenvalues --  -10.09499 -10.07488 -10.06920 -10.06100 -10.04986
 Alpha  occ. eigenvalues --  -10.04801 -10.04644 -10.02214 -10.01823 -10.01402
 Alpha  occ. eigenvalues --   -0.94531  -0.86735  -0.78354  -0.74242  -0.69097
 Alpha  occ. eigenvalues --   -0.65149  -0.62610  -0.60470  -0.57774  -0.49493
 Alpha  occ. eigenvalues --   -0.47832  -0.47278  -0.46668  -0.42358  -0.40348
 Alpha  occ. eigenvalues --   -0.38521  -0.35511  -0.34140  -0.33137  -0.32872
 Alpha  occ. eigenvalues --   -0.31403  -0.30758  -0.29936  -0.29313  -0.27703
 Alpha  occ. eigenvalues --   -0.27561  -0.26123  -0.25019  -0.23501  -0.21725
 Alpha  occ. eigenvalues --   -0.20527  -0.18694  -0.15011  -0.13940  -0.12763
 Alpha  occ. eigenvalues --   -0.11473  -0.10730  -0.08513   0.03555
 Alpha virt. eigenvalues --    0.06160   0.08570   0.08956   0.10311   0.10723
 Alpha virt. eigenvalues --    0.11270   0.11633   0.11920   0.12068   0.12701
 Alpha virt. eigenvalues --    0.13365   0.13963   0.14292   0.15265   0.15561

  Beta  occ. eigenvalues --  -18.91837 -14.28388 -14.22064 -14.13624 -10.12960
  Beta  occ. eigenvalues --  -10.09471 -10.07494 -10.06596 -10.06074 -10.05014
  Beta  occ. eigenvalues --  -10.04840 -10.04673 -10.02098 -10.01633 -10.01265
  Beta  occ. eigenvalues --   -0.94484  -0.85694  -0.77794  -0.74212  -0.69010
  Beta  occ. eigenvalues --   -0.64572  -0.62490  -0.60198  -0.57652  -0.48875
  Beta  occ. eigenvalues --   -0.47585  -0.47123  -0.46604  -0.42243  -0.39997
  Beta  occ. eigenvalues --   -0.38442  -0.35354  -0.33983  -0.32987  -0.32632
  Beta  occ. eigenvalues --   -0.31213  -0.30652  -0.29665  -0.29135  -0.27590
  Beta  occ. eigenvalues --   -0.27419  -0.25773  -0.23828  -0.23107  -0.20384
  Beta  occ. eigenvalues --   -0.19481  -0.18388  -0.14895  -0.13266  -0.11174
  Beta  occ. eigenvalues --   -0.10574  -0.10218  -0.08007
  Beta virt. eigenvalues --    0.06085   0.08506   0.08646   0.10249   0.10402
  Beta virt. eigenvalues --    0.10697   0.11215   0.11728   0.12010   0.12043
  Beta virt. eigenvalues --    0.12727   0.13577   0.13941   0.14257   0.15257

 Mulliken charges and spin densities:
               1          2
     1  C   -0.293337  -0.008584
     2  N    0.207165   0.001049
     3  C   -0.200930  -0.026550
     4  C    0.265654  -0.027264
     5  C   -0.235190  -0.018910
     6  N   -0.204253   0.007148
     7  C   -0.498920   0.062223
     8  C   -0.477307   0.182581
     9  O   -0.375961   0.208030
    10  C    0.584801   0.029999
    11  C   -0.450804   0.171739
    12  C   -0.682572  -0.034398
    13  N   -0.135162   0.203161
    14  C   -0.636152  -0.035893
    15  C    0.672836   0.203428
    16  H    0.143982   0.012525
    17  H    0.160907   0.000939
    18  H    0.130126  -0.001100
    19  H    0.118129   0.031215
    20  H    0.163469  -0.001087
    21  H    0.161017   0.025965
    22  H    0.104133   0.036150
    23  H    0.064095  -0.011355
    24  H    0.115884  -0.001636
    25  H    0.111360  -0.000610
    26  H    0.187033  -0.008767
 Sum of Mulliken charges =  -1.00000   1.00000

 Dipole moment (field-independent basis, Debye):
    X=             -8.3791    Y=             -2.6757    Z=              2.5837  Tot=              9.1676
 Quadrupole moment (field-independent basis, Debye-Ang):
   XX=           -125.6851   YY=           -115.3385   ZZ=            -97.4448
   XY=             13.4239   XZ=             -5.1712   YZ=             -1.6314

 Summary of Natural Population Analysis:

                                       Natural Population
                Natural  -----------------------------------------------
    Atom  No    Charge         Core      Valence    Rydberg      Total
 -----------------------------------------------------------------------
      C    1   -0.17033      0.99966     2.16408    0.00660     3.17033
      N    2   -0.10852      0.99966     2.59653    0.01233     3.60852
      C    3   -0.01218      0.99950     2.00143    0.01125     3.01218
      C    4   -0.05737      0.99952     2.04613    0.01172     3.05737
      C    5   -0.00719      0.99958     1.99460    0.01301     3.00719
      N    6   -0.15842      0.99973     2.64745    0.01124     3.65842
      C    7   -0.23954      0.99958     2.23014    0.00982     3.23954
      C    8    0.31303      0.99963     1.66674    0.02060     2.68697
      O    9   -0.24318      0.99988     3.23709    0.00621     4.24318
      C   10   -0.02045      0.99947     2.00939    0.01159     3.02045
      C   11   -0.09959      0.99953     2.08822    0.01184     3.09959
      C   12    0.00532      0.99961     1.98048    0.01460     2.99468
      N   13   -0.18617      0.99971     2.67343    0.01302     3.68617
      C   14    0.00168      0.99960     1.98378    0.01494     2.99832
      C   15   -0.07806      0.99952     2.07058    0.00795     3.07806
      H   16    0.09227      0.00000     0.40651    0.00122     0.40773
      H   17    0.10362      0.00000     0.39540    0.00097     0.39638
      H   18    0.09568      0.00000     0.40353    0.00079     0.40432
      H   19    0.09866      0.00000     0.40028    0.00106     0.40134
      H   20    0.10436      0.00000     0.39478    0.00086     0.39564
      H   21    0.10876      0.00000     0.38936    0.00188     0.39124
      H   22    0.10235      0.00000     0.39574    0.00191     0.39765
      H   23    0.09353      0.00000     0.40515    0.00131     0.40647
      H   24    0.07738      0.00000     0.42121    0.00141     0.42262
      H   25    0.07823      0.00000     0.42044    0.00132     0.42177
      H   26    0.10614      0.00000     0.39270    0.00117     0.39386
 =======================================================================
   * Total *   -0.00000     14.99418    37.81520    0.19063    53.00000

 Normal termination of Gaussian 16 at Thu Dec 10 18:21:06 2020.
