 Gaussian 16, Revision A.03,

 -----------------------------------------------------------
 # opt freq B3LYP/6-31G(d) empiricaldispersion=gd3bj scf=xqc
 -----------------------------------------------------------

 -------------------------------
 CID_91805493_JID_10314_neutraal
 -------------------------------
 Symbolic Z-matrix:
 Charge =  0 Multiplicity = 1

 SCF Done:  E(RB3LYP) =  -881.780255602     A.U. after   15 cycles
 SCF Done:  E(RB3LYP) =  -881.785916037     A.U. after   12 cycles
 SCF Done:  E(RB3LYP) =  -881.786291470     A.U. after   11 cycles
 SCF Done:  E(RB3LYP) =  -881.786168430     A.U. after   11 cycles
 SCF Done:  E(RB3LYP) =  -881.786520990     A.U. after   11 cycles
 SCF Done:  E(RB3LYP) =  -881.786549204     A.U. after   10 cycles
 SCF Done:  E(RB3LYP) =  -881.786585893     A.U. after   11 cycles
 SCF Done:  E(RB3LYP) =  -881.786615152     A.U. after   12 cycles
 SCF Done:  E(RB3LYP) =  -881.786628387     A.U. after   11 cycles
 SCF Done:  E(RB3LYP) =  -881.786720401     A.U. after   14 cycles
 SCF Done:  E(RB3LYP) =  -881.787225865     A.U. after    9 cycles
 SCF Done:  E(RB3LYP) =  -881.787228590     A.U. after   11 cycles
 SCF Done:  E(RB3LYP) =  -881.787228819     A.U. after    9 cycles
 SCF Done:  E(RB3LYP) =  -881.787228902     A.U. after    7 cycles
 SCF Done:  E(RB3LYP) =  -881.787229024     A.U. after    8 cycles
 Optimization completed.
    -- Stationary point found.
 Normal termination of Gaussian 16 at Sun Dec 13 20:31:09 2020.

 --------------------------------------------------------------------
 #N Geom=AllCheck Guess=TCheck SCRF=Check GenChk RB3LYP/6-31G(d) Freq
 --------------------------------------------------------------------

 Structure from the checkpoint file:  "JID_10314.chk"
 -------------------------------
 CID_91805493_JID_10314_neutraal
 -------------------------------
 Charge =  0 Multiplicity = 1

 SCF Done:  E(RB3LYP) =  -881.787229024     A.U. after    1 cycles

  Exact polarizability: 259.395  -1.625 156.568 -22.678   6.059 145.008
 Approx polarizability: 321.522  -7.948 244.306 -49.475  10.873 246.262

                      1                      2                      3
                      A                      A                      A
 Frequencies --      9.7985                11.1174                19.3628
 Red. masses --      4.3211                 2.2921                 3.9060
 Frc consts  --      0.0002                 0.0002                 0.0009
 IR Inten    --      0.0331                 0.0177                 0.0837

                      4                      5                      6
                      A                      A                      A
 Frequencies --     27.9915                48.5833                58.6234
 Red. masses --      3.8723                 3.1419                 4.6240
 Frc consts  --      0.0018                 0.0044                 0.0094
 IR Inten    --      0.4506                 0.1804                 2.2584

                      7                      8                      9
                      A                      A                      A
 Frequencies --     96.1492               110.7835               121.1641
 Red. masses --      4.9456                 3.4932                 4.2562
 Frc consts  --      0.0269                 0.0253                 0.0368
 IR Inten    --      0.7459                 0.9193                 0.6713

                     10                     11                     12
                      A                      A                      A
 Frequencies --    159.7845               186.2374               195.6839
 Red. masses --      2.5726                 2.5244                 1.2123
 Frc consts  --      0.0387                 0.0516                 0.0274
 IR Inten    --      1.9532                 0.5480                 0.2996

                     13                     14                     15
                      A                      A                      A
 Frequencies --    229.0572               245.9808               258.2154
 Red. masses --      1.9064                 2.2416                 2.7415
 Frc consts  --      0.0589                 0.0799                 0.1077
 IR Inten    --      1.2152                 2.9150                 0.3797

                     16                     17                     18
                      A                      A                      A
 Frequencies --    264.8770               302.8507               309.1046
 Red. masses --      1.6528                 3.5266                 2.7896
 Frc consts  --      0.0683                 0.1906                 0.1570
 IR Inten    --      0.0542                 0.2322                 0.3024

                     19                     20                     21
                      A                      A                      A
 Frequencies --    326.2500               333.8495               353.2911
 Red. masses --      2.7996                 2.0073                 3.0655
 Frc consts  --      0.1756                 0.1318                 0.2254
 IR Inten    --      3.2997                 2.6591                16.6930

                     22                     23                     24
                      A                      A                      A
 Frequencies --    407.8291               417.5014               446.5624
 Red. masses --      3.8446                 3.0321                 3.4340
 Frc consts  --      0.3768                 0.3114                 0.4035
 IR Inten    --      1.5619                 0.1981                 3.0207

                     25                     26                     27
                      A                      A                      A
 Frequencies --    474.0802               504.0601               533.5331
 Red. masses --      4.0325                 3.0871                 4.1883
 Frc consts  --      0.5340                 0.4621                 0.7024
 IR Inten    --      3.1086                 5.1457                 4.3194

                     28                     29                     30
                      A                      A                      A
 Frequencies --    571.1538               636.5153               650.6088
 Red. masses --      3.9087                 7.0983                 5.8928
 Frc consts  --      0.7513                 1.6944                 1.4696
 IR Inten    --      3.9541                 2.5709                 1.9352

                     31                     32                     33
                      A                      A                      A
 Frequencies --    669.4788               683.0389               710.4106
 Red. masses --      5.0129                 4.1785                 3.0610
 Frc consts  --      1.3238                 1.1486                 0.9102
 IR Inten    --      2.3943                 3.3931                 0.8831

                     34                     35                     36
                      A                      A                      A
 Frequencies --    744.9136               758.1837               761.6031
 Red. masses --      2.8508                 8.3382                 2.0251
 Frc consts  --      0.9320                 2.8241                 0.6921
 IR Inten    --      0.2548                20.1616                22.7147

                     37                     38                     39
                      A                      A                      A
 Frequencies --    795.0682               797.2816               840.4583
 Red. masses --      1.7454                 1.6991                 2.2310
 Frc consts  --      0.6500                 0.6363                 0.9285
 IR Inten    --      4.6896                 9.8247                 8.4615

                     40                     41                     42
                      A                      A                      A
 Frequencies --    855.0711               857.3262               863.7717
 Red. masses --      1.9536                 1.3145                 2.7525
 Frc consts  --      0.8416                 0.5693                 1.2100
 IR Inten    --     11.9670                 5.1488                18.6695

                     43                     44                     45
                      A                      A                      A
 Frequencies --    893.8484               896.6005               940.2342
 Red. masses --      2.2979                 1.5804                 1.7834
 Frc consts  --      1.0817                 0.7485                 0.9289
 IR Inten    --      3.4732                 6.4724                21.6458

                     46                     47                     48
                      A                      A                      A
 Frequencies --    954.9158               962.3106               972.2263
 Red. masses --      2.1150                 1.3770                 1.4244
 Frc consts  --      1.1363                 0.7513                 0.7933
 IR Inten    --     63.7517                 2.4585                 3.2783

                     49                     50                     51
                      A                      A                      A
 Frequencies --   1000.2861              1035.8056              1045.4463
 Red. masses --      1.9275                 3.0158                 2.7929
 Frc consts  --      1.1363                 1.9064                 1.7985
 IR Inten    --      2.1154                 8.1874                 5.8529

                     52                     53                     54
                      A                      A                      A
 Frequencies --   1077.6774              1083.8956              1113.8768
 Red. masses --      1.4667                 2.0796                 2.4128
 Frc consts  --      1.0036                 1.4395                 1.7638
 IR Inten    --      0.8075                 0.6042               112.9528

                     55                     56                     57
                      A                      A                      A
 Frequencies --   1119.8706              1133.6752              1146.4150
 Red. masses --      1.5470                 2.0170                 3.1542
 Frc consts  --      1.1431                 1.5273                 2.4424
 IR Inten    --      0.3721                68.4321                97.2670

                     58                     59                     60
                      A                      A                      A
 Frequencies --   1159.2721              1182.8813              1210.3628
 Red. masses --      1.5448                 1.9576                 1.7522
 Frc consts  --      1.2232                 1.6139                 1.5124
 IR Inten    --      1.3003                17.5262                15.1558

                     61                     62                     63
                      A                      A                      A
 Frequencies --   1217.6213              1229.2233              1234.8390
 Red. masses --      1.8214                 1.6707                 1.9885
 Frc consts  --      1.5911                 1.4873                 1.7865
 IR Inten    --      0.7650                 1.9652                12.4095

                     64                     65                     66
                      A                      A                      A
 Frequencies --   1252.7392              1260.0570              1312.7405
 Red. masses --      1.4937                 2.7144                 2.9668
 Frc consts  --      1.3811                 2.5393                 3.0123
 IR Inten    --     80.2515                52.5832               190.6928

                     67                     68                     69
                      A                      A                      A
 Frequencies --   1312.9309              1337.2833              1344.1408
 Red. masses --      1.2228                 2.6789                 1.5753
 Frc consts  --      1.2420                 2.8226                 1.6768
 IR Inten    --     17.9766                17.2682                 8.0029

                     70                     71                     72
                      A                      A                      A
 Frequencies --   1345.4170              1380.2032              1392.4339
 Red. masses --      1.2575                 1.7705                 1.7079
 Frc consts  --      1.3411                 1.9872                 1.9511
 IR Inten    --     44.4629                46.3418                20.5123

                     73                     74                     75
                      A                      A                      A
 Frequencies --   1401.6225              1425.9558              1431.7017
 Red. masses --      1.9242                 3.5884                 1.6295
 Frc consts  --      2.2272                 4.2989                 1.9680
 IR Inten    --    329.4592                14.8323               307.5196

                     76                     77                     78
                      A                      A                      A
 Frequencies --   1439.6258              1450.7509              1454.7407
 Red. masses --      1.2974                 1.6079                 1.5164
 Frc consts  --      1.5843                 1.9939                 1.8907
 IR Inten    --      1.4687               119.3009                40.9920

                     79                     80                     81
                      A                      A                      A
 Frequencies --   1471.5517              1502.3209              1504.7078
 Red. masses --      2.4307                 1.1274                 1.0584
 Frc consts  --      3.1012                 1.4991                 1.4118
 IR Inten    --      9.1257                 2.5313                 2.8891

                     82                     83                     84
                      A                      A                      A
 Frequencies --   1509.4458              1511.0135              1515.9003
 Red. masses --      1.2800                 1.1102                 1.0525
 Frc consts  --      1.7183                 1.4934                 1.4249
 IR Inten    --      6.6113                 2.2761                12.8241

                     85                     86                     87
                      A                      A                      A
 Frequencies --   1520.1443              1527.7597              1531.1402
 Red. masses --      1.1206                 2.5669                 1.0402
 Frc consts  --      1.5258                 3.5299                 1.4368
 IR Inten    --      9.1474                64.6826                 5.6663

                     88                     89                     90
                      A                      A                      A
 Frequencies --   1538.6399              1539.8449              1568.4550
 Red. masses --      1.0799                 1.0556                 2.4507
 Frc consts  --      1.5063                 1.4747                 3.5522
 IR Inten    --     19.7915                 5.4938                24.5346

                     91                     92                     93
                      A                      A                      A
 Frequencies --   1633.8346              1658.1001              1679.2932
 Red. masses --      6.0327                 6.4264                 5.7639
 Frc consts  --      9.4881                10.4098                 9.5767
 IR Inten    --      2.4314                 4.5767                 0.7986

                     94                     95                     96
                      A                      A                      A
 Frequencies --   1813.2486              3026.1892              3037.3435
 Red. masses --     11.3001                 1.0607                 1.0596
 Frc consts  --     21.8901                 5.7231                 5.7595
 IR Inten    --    281.5907                26.9109                27.7866

                     97                     98                     99
                      A                      A                      A
 Frequencies --   3050.3187              3052.1180              3063.5262
 Red. masses --      1.1016                 1.0356                 1.0361
 Frc consts  --      6.0390                 5.6841                 5.7290
 IR Inten    --     16.7389                21.4900                16.9951

                    100                    101                    102
                      A                      A                      A
 Frequencies --   3067.1534              3071.2384              3099.6213
 Red. masses --      1.0937                 1.0427                 1.0597
 Frc consts  --      6.0622                 5.7948                 5.9984
 IR Inten    --      8.2835                22.5948                23.0109

                    103                    104                    105
                      A                      A                      A
 Frequencies --   3118.3883              3122.5583              3132.1404
 Red. masses --      1.1028                 1.1021                 1.1002
 Frc consts  --      6.3186                 6.3312                 6.3590
 IR Inten    --     35.4658                42.7844                27.4792

                    106                    107                    108
                      A                      A                      A
 Frequencies --   3132.3357              3142.2828              3146.2530
 Red. masses --      1.1010                 1.1048                 1.1031
 Frc consts  --      6.3644                 6.4271                 6.4337
 IR Inten    --      8.9904                 3.4885                22.7072

                    109                    110                    111
                      A                      A                      A
 Frequencies --   3163.9111              3166.0437              3184.2549
 Red. masses --      1.1086                 1.0864                 1.0939
 Frc consts  --      6.5382                 6.4164                 6.5348
 IR Inten    --     26.2343                15.3876                34.2840

                    112                    113                    114
                      A                      A                      A
 Frequencies --   3186.7005              3211.9601              3249.6679
 Red. masses --      1.0882                 1.0920                 1.0960
 Frc consts  --      6.5109                 6.6373                 6.8195
 IR Inten    --      7.7941                13.2029                 6.3473

 - Thermochemistry -
 -------------------
 Temperature   298.150 Kelvin.  Pressure   1.00000 Atm.
 Atom     1 has atomic number  6 and mass  12.00000

 Molecular mass:   272.15248 amu.
 Principal axes and moments of inertia in atomic units:
                           1         2         3
     Eigenvalues --  2126.64902********************
           X            0.99998   0.00666   0.00138
           Y           -0.00667   0.99995   0.00746
           Z           -0.00133  -0.00747   0.99997
 This molecule is an asymmetric top.
 Rotational symmetry number  1.
 Warning -- assumption of classical behavior for rotation
           may cause significant error
 Rotational temperatures (Kelvin)      0.04073     0.00590     0.00565
 Rotational constants (GHZ):           0.84863     0.12286     0.11767
 Zero-point vibrational energy     886733.3 (Joules/Mol)
                                  211.93436 (Kcal/Mol)
 Warning -- explicit consideration of  28 degrees of freedom as
           vibrations may cause significant error
 Vibrational temperatures:     14.10    16.00    27.86    40.27    69.90
          (Kelvin)             84.35   138.34   159.39   174.33   229.89
                              267.95   281.55   329.56   353.91   371.51
                              381.10   435.73   444.73   469.40   480.33
                              508.31   586.78   600.69   642.50   682.10
                              725.23   767.64   821.76   915.80   936.08
                              963.23   982.74  1022.12  1071.76  1090.86
                             1095.78  1143.93  1147.11  1209.23  1230.26
                             1233.50  1242.77  1286.05  1290.01  1352.79
                             1373.91  1384.55  1398.82  1439.19  1490.29
                             1504.16  1550.54  1559.48  1602.62  1611.24
                             1631.11  1649.44  1667.93  1701.90  1741.44
                             1751.89  1768.58  1776.66  1802.41  1812.94
                             1888.74  1889.01  1924.05  1933.92  1935.76
                             1985.80  2003.40  2016.62  2051.63  2059.90
                             2071.30  2087.31  2093.05  2117.23  2161.50
                             2164.94  2171.76  2174.01  2181.04  2187.15
                             2198.11  2202.97  2213.76  2215.49  2256.66
                             2350.72  2385.64  2416.13  2608.86  4354.01
                             4370.06  4388.73  4391.32  4407.73  4412.95
                             4418.83  4459.66  4486.67  4492.66  4506.45
                             4506.73  4521.04  4526.76  4552.16  4555.23
                             4581.43  4584.95  4621.29  4675.55

 Zero-point correction=                           0.337739 (Hartree/Particle)
 Thermal correction to Energy=                    0.357523
 Thermal correction to Enthalpy=                  0.358468
 Thermal correction to Gibbs Free Energy=         0.284310
 Sum of electronic and zero-point Energies=           -881.449490
 Sum of electronic and thermal Energies=              -881.429706
 Sum of electronic and thermal Enthalpies=            -881.428761
 Sum of electronic and thermal Free Energies=         -881.502919

                     E (Thermal)             CV                S
                      KCal/Mol        Cal/Mol-Kelvin    Cal/Mol-Kelvin
 Total                  224.349             73.121            156.078
 Electronic               0.000              0.000              0.000
 Translational            0.889              2.981             42.702
 Rotational               0.889              2.981             34.526
 Vibrational            222.572             67.159             78.850
 Vibration     1          0.593              1.987              8.051
 Vibration     2          0.593              1.987              7.801
 Vibration     3          0.593              1.986              6.698
 Vibration     4          0.593              1.984              5.967
 Vibration     5          0.595              1.978              4.874
 Vibration     6          0.596              1.974              4.503
 Vibration     7          0.603              1.952              3.531
 Vibration     8          0.607              1.941              3.255
 Vibration     9          0.609              1.932              3.082
 Vibration    10          0.622              1.892              2.552
 Vibration    11          0.632              1.859              2.265
 Vibration    12          0.636              1.846              2.173
 Vibration    13          0.652              1.797              1.886
 Vibration    14          0.660              1.769              1.759
 Vibration    15          0.667              1.749              1.674
 Vibration    16          0.671              1.737              1.629
 Vibration    17          0.694              1.668              1.401
 Vibration    18          0.698              1.656              1.367
 Vibration    19          0.710              1.623              1.279
 Vibration    20          0.715              1.608              1.241
 Vibration    21          0.729              1.569              1.151
 Vibration    22          0.772              1.453              0.934
 Vibration    23          0.781              1.432              0.900
 Vibration    24          0.806              1.368              0.806
 Vibration    25          0.831              1.308              0.726
 Vibration    26          0.859              1.241              0.648
 Vibration    27          0.889              1.176              0.579
 Vibration    28          0.927              1.094              0.502

                           ! Non-Optimized Parameters !
 Normal termination of Gaussian 16 at Sun Dec 13 20:50:36 2020.

 ----------------------------------------------------------------------
 # B3LYP/6-311++G(d,p) empiricaldispersion=gd3bj scf=xqc pop=npa geom=c
 heck
 ----------------------------------------------------------------------

 ---------------------------------------
 CID_91805493_JID_10314_Energie_neutraal
 ---------------------------------------
 Structure from the checkpoint file:  "JID_10314.chk"
 Charge =  0 Multiplicity = 1

 SCF Done:  E(RB3LYP) =  -882.022557620     A.U. after   15 cycles
 Normal termination of Gaussian 16 at Sun Dec 13 20:59:54 2020.

 ----------------------------------------------------------------------
 # B3LYP/6-311++G(d,p) empiricaldispersion=gd3bj scf=xqc pop=npa geom=c
 heck
 ----------------------------------------------------------------------

 -------------------------------------
 CID_91805493_JID_10314_Energie_kation
 -------------------------------------
 Structure from the checkpoint file:  "JID_10314.chk"
 Charge =  1 Multiplicity = 2

 SCF Done:  E(UB3LYP) =  -881.729259405     A.U. after   26 cycles
 Normal termination of Gaussian 16 at Sun Dec 13 21:23:05 2020.
 Gaussian 16:  ES64L-G16RevA.03 25-Dec-2016

 ----------------------------------------------------------------------
 # B3LYP/6-311++G(d,p) empiricaldispersion=gd3bj scf=xqc pop=npa geom=c
 heck
 ----------------------------------------------------------------------

 ------------------------------------
 CID_91805493_JID_10314_Energie_anion
 ------------------------------------
 Structure from the checkpoint file:  "JID_10314.chk"
 Charge = -1 Multiplicity = 2

                         Standard orientation:
 ---------------------------------------------------------------------
 Center     Atomic      Atomic             Coordinates (Angstroms)
 Number     Number       Type             X           Y           Z
 ---------------------------------------------------------------------
      1          6           0        5.959240    2.397522    0.720410
      2          6           0        5.908392    1.133217   -0.138294
      3          6           0        4.603658    0.357771   -0.104902
      4          6           0        4.499868   -0.840223   -0.824480
      5          6           0        3.320849   -1.580461   -0.829902
      6          6           0        2.200207   -1.150535   -0.111221
      7          6           0        2.297597    0.045221    0.604605
      8          6           0        3.479763    0.785771    0.609815
      9          6           0        0.921433   -1.971107   -0.095407
     10          6           0       -0.317592   -1.151121   -0.310890
     11          6           0       -1.406548   -0.999789    0.518966
     12          7           0       -2.264401   -0.125615   -0.145257
     13          7           0       -1.760273    0.285062   -1.355197
     14          6           0       -0.599320   -0.328854   -1.443238
     15          6           0       -3.513481    0.322791    0.311541
     16          8           0       -3.987224   -0.026162    1.374091
     17          8           0       -4.075091    1.160271   -0.561210
     18          6           0       -5.385579    1.655235   -0.192301
     19          6           0       -6.470194    0.652031   -0.546416
     20          6           0       -1.689762   -1.598964    1.856269
     21          1           0        5.206962    3.128913    0.404734
     22          1           0        6.941445    2.874161    0.638264
     23          1           0        5.784438    2.171243    1.778234
     24          1           0        6.129495    1.400476   -1.181331
     25          1           0        6.721315    0.459712    0.166817
     26          1           0        5.356871   -1.194671   -1.393707
     27          1           0        3.268491   -2.505403   -1.400039
     28          1           0        1.434245    0.407523    1.156496
     29          1           0        3.517160    1.709737    1.177629
     30          1           0        0.990834   -2.748751   -0.866994
     31          1           0        0.842379   -2.507011    0.859175
     32          1           0        0.026413   -0.170595   -2.312858
     33          1           0       -5.387698    1.887074    0.875294
     34          1           0       -5.484461    2.578182   -0.766903
     35          1           0       -6.358385   -0.258987    0.047484
     36          1           0       -7.455737    1.082296   -0.335921
     37          1           0       -6.424702    0.393732   -1.608967
     38          1           0       -0.847068   -2.227195    2.156787
     39          1           0       -1.845529   -0.829558    2.617631
     40          1           0       -2.596413   -2.210904    1.840980
 ---------------------------------------------------------------------

 SCF Done:  E(UB3LYP) =  -882.012919879     A.U. after   33 cycles
 SCF Done:  E(UB3LYP) =  -882.012919879     a.u. after    1 cycles

 The electronic state is 2-A.
 Alpha  occ. eigenvalues --  -19.06964 -19.00368 -14.29072 -14.22163 -10.22101
 Alpha  occ. eigenvalues --  -10.14059 -10.11053 -10.09271 -10.09040 -10.09036
 Alpha  occ. eigenvalues --  -10.08740 -10.08635 -10.08304 -10.08231 -10.08146
 Alpha  occ. eigenvalues --  -10.08074 -10.08019 -10.07832 -10.07520 -10.07260
 Alpha  occ. eigenvalues --   -1.02320  -0.94012  -0.92349  -0.77376  -0.74238
 Alpha  occ. eigenvalues --   -0.72509  -0.70296  -0.68009  -0.65807  -0.65550
 Alpha  occ. eigenvalues --   -0.61884  -0.59686  -0.57064  -0.54228  -0.52577
 Alpha  occ. eigenvalues --   -0.51723  -0.48685  -0.47430  -0.45159  -0.42709
 Alpha  occ. eigenvalues --   -0.41024  -0.39815  -0.38474  -0.37682  -0.37013
 Alpha  occ. eigenvalues --   -0.36550  -0.36317  -0.35153  -0.34994  -0.34432
 Alpha  occ. eigenvalues --   -0.33761  -0.32925  -0.31902  -0.30956  -0.30844
 Alpha  occ. eigenvalues --   -0.30419  -0.29404  -0.28944  -0.28475  -0.28164
 Alpha  occ. eigenvalues --   -0.28060  -0.27106  -0.25746  -0.25365  -0.24861
 Alpha  occ. eigenvalues --   -0.24441  -0.21373  -0.19657  -0.18505  -0.16849
 Alpha  occ. eigenvalues --   -0.16438  -0.15166  -0.13973   0.04000
 Alpha virt. eigenvalues --    0.05057   0.05889   0.06369   0.06801   0.07255
 Alpha virt. eigenvalues --    0.07755   0.08131   0.08304   0.08579   0.09046
 Alpha virt. eigenvalues --    0.09278   0.09631   0.09994   0.10601   0.11046

  Beta  occ. eigenvalues --  -19.06949 -19.00233 -14.29104 -14.22003 -10.21915
  Beta  occ. eigenvalues --  -10.14053 -10.10887 -10.09270 -10.09031 -10.09027
  Beta  occ. eigenvalues --  -10.08695 -10.08618 -10.08283 -10.08222 -10.08155
  Beta  occ. eigenvalues --  -10.08068 -10.08003 -10.07799 -10.07492 -10.07274
  Beta  occ. eigenvalues --   -1.02154  -0.93900  -0.92151  -0.77344  -0.74057
  Beta  occ. eigenvalues --   -0.72377  -0.70195  -0.67968  -0.65753  -0.65503
  Beta  occ. eigenvalues --   -0.61821  -0.59607  -0.56958  -0.54170  -0.52412
  Beta  occ. eigenvalues --   -0.51686  -0.48631  -0.47387  -0.45064  -0.42590
  Beta  occ. eigenvalues --   -0.40970  -0.39450  -0.38350  -0.37518  -0.36936
  Beta  occ. eigenvalues --   -0.36517  -0.36281  -0.35024  -0.34871  -0.34370
  Beta  occ. eigenvalues --   -0.33713  -0.32892  -0.31731  -0.30921  -0.30735
  Beta  occ. eigenvalues --   -0.30375  -0.29230  -0.28897  -0.28418  -0.28041
  Beta  occ. eigenvalues --   -0.27826  -0.27051  -0.25697  -0.25310  -0.24831
  Beta  occ. eigenvalues --   -0.24412  -0.21021  -0.19530  -0.18335  -0.16657
  Beta  occ. eigenvalues --   -0.16170  -0.14808  -0.13514
  Beta virt. eigenvalues --    0.05855   0.06175   0.06559   0.06892   0.07136
  Beta virt. eigenvalues --    0.07385   0.08204   0.08287   0.08417   0.08826
  Beta virt. eigenvalues --    0.09205   0.09555   0.09688   0.10083   0.10641

 Mulliken charges and spin densities:
               1          2
     1  C    0.177752  -0.745313
     2  C   -0.048098  -0.546478
     3  C    0.629926   0.337130
     4  C   -0.328739   0.237016
     5  C   -1.093619   0.921263
     6  C    1.575523  -0.203102
     7  C   -0.518789  -0.533542
     8  C   -0.417153  -0.443223
     9  C   -0.851882  -0.516351
    10  C    1.183922  -0.039861
    11  C   -0.205717   0.145026
    12  N    0.042154  -0.025345
    13  N   -0.229300   0.093767
    14  C   -0.164684  -0.105083
    15  C   -0.069125   0.043485
    16  O   -0.305057   0.046638
    17  O    0.004507   0.015748
    18  C   -0.233890   0.148334
    19  C    0.346252  -0.724789
    20  C   -0.440839  -0.231453
    21  H    0.053322   0.088962
    22  H   -0.671835   0.841969
    23  H    0.002242   0.138142
    24  H    0.063021   0.093418
    25  H   -0.125537   0.283396
    26  H   -0.124430   0.286045
    27  H   -0.040557   0.186932
    28  H    0.055683   0.129206
    29  H    0.158485  -0.013791
    30  H    0.174493  -0.014816
    31  H    0.060480   0.071012
    32  H    0.131826  -0.000494
    33  H    0.161153   0.004734
    34  H   -0.022855   0.184410
    35  H   -0.012111   0.181157
    36  H   -0.386663   0.526146
    37  H    0.083338   0.057235
    38  H    0.063558   0.032705
    39  H    0.155702   0.033498
    40  H    0.167539   0.016265
 Sum of Mulliken charges =  -1.00000   1.00000

 Dipole moment (field-independent basis, Debye):
    X=             -1.5380    Y=             -3.3919    Z=              0.1738  Tot=              3.7284
 Quadrupole moment (field-independent basis, Debye-Ang):
   XX=           -291.3246   YY=           -147.4845   ZZ=           -144.4981
   XY=            -10.5629   XZ=             -5.8232   YZ=              1.7970

 Summary of Natural Population Analysis:

                                       Natural Population
                Natural  -----------------------------------------------
    Atom  No    Charge         Core      Valence    Rydberg      Total
 -----------------------------------------------------------------------
      C    1   -0.28817      0.99967     2.28270    0.00579     3.28817
      C    2   -0.19787      0.99961     2.18969    0.00857     3.19787
      C    3   -0.01437      0.99951     2.00476    0.01010     3.01437
      C    4   -0.09795      0.99952     2.08927    0.00915     3.09795
      C    5   -0.09686      0.99951     2.08822    0.00912     3.09686
      C    6   -0.01534      0.99950     2.00604    0.00980     3.01534
      C    7   -0.09559      0.99952     2.08839    0.00768     3.09559
      C    8   -0.09950      0.99952     2.09204    0.00795     3.09950
      C    9   -0.20214      0.99957     2.19386    0.00871     3.20214
      C   10   -0.07450      0.99945     2.06614    0.00891     3.07450
      C   11    0.12349      0.99946     1.86790    0.00915     2.87651
      N   12   -0.14813      0.99958     2.63698    0.01156     3.64813
      N   13   -0.11968      0.99972     2.60870    0.01126     3.61968
      C   14    0.00988      0.99959     1.97591    0.01462     2.99012
      C   15    0.49467      0.99970     1.48140    0.02424     2.50533
      O   16   -0.31316      0.99987     3.30841    0.00488     4.31316
      O   17   -0.26730      0.99986     3.25994    0.00751     4.26730
      C   18   -0.01642      0.99959     2.00429    0.01255     3.01642
      C   19   -0.30153      0.99966     2.29694    0.00493     3.30153
      C   20   -0.30093      0.99963     2.29669    0.00461     3.30093
      H   21    0.09671      0.00000     0.40225    0.00103     0.40329
      H   22    0.10320      0.00000     0.39549    0.00131     0.39680
      H   23    0.09777      0.00000     0.40118    0.00105     0.40223
      H   24    0.10095      0.00000     0.39799    0.00106     0.39905
      H   25    0.10242      0.00000     0.39604    0.00154     0.39758
      H   26    0.09723      0.00000     0.40144    0.00133     0.40277
      H   27    0.09637      0.00000     0.40220    0.00144     0.40363
      H   28    0.10310      0.00000     0.39543    0.00147     0.39690
      H   29    0.10098      0.00000     0.39796    0.00106     0.39902
      H   30    0.10303      0.00000     0.39580    0.00117     0.39697
      H   31    0.10619      0.00000     0.39256    0.00125     0.39381
      H   32    0.09597      0.00000     0.40304    0.00099     0.40403
      H   33    0.09446      0.00000     0.40440    0.00114     0.40554
      H   34    0.08938      0.00000     0.40951    0.00111     0.41062
      H   35    0.10685      0.00000     0.39214    0.00100     0.39315
      H   36    0.10214      0.00000     0.39620    0.00166     0.39786
      H   37    0.10042      0.00000     0.39857    0.00101     0.39958
      H   38    0.09918      0.00000     0.39989    0.00093     0.40082
      H   39    0.11312      0.00000     0.38562    0.00126     0.38688
      H   40    0.11194      0.00000     0.38689    0.00117     0.38806
 =======================================================================
   * Total *    0.00000     19.99206    52.79287    0.21507    73.00000

 Normal termination of Gaussian 16 at Sun Dec 13 21:53:07 2020.
