 Gaussian 16, Revision A.03,

 -----------------------------------------------------------
 # opt freq B3LYP/6-31G(d) empiricaldispersion=gd3bj scf=xqc
 -----------------------------------------------------------

 -------------------------------
 CID_80309676_JID_10233_neutraal
 -------------------------------
 Symbolic Z-matrix:
 Charge =  0 Multiplicity = 1

 SCF Done:  E(RB3LYP) =  -1204.71614242     A.U. after   15 cycles
 SCF Done:  E(RB3LYP) =  -1204.71828562     A.U. after   13 cycles
 SCF Done:  E(RB3LYP) =  -1204.71776079     A.U. after   13 cycles
 SCF Done:  E(RB3LYP) =  -1204.72170222     A.U. after   12 cycles
 SCF Done:  E(RB3LYP) =  -1204.72263272     A.U. after   13 cycles
 SCF Done:  E(RB3LYP) =  -1204.72374158     A.U. after   11 cycles
 SCF Done:  E(RB3LYP) =  -1204.72382392     A.U. after   12 cycles
 SCF Done:  E(RB3LYP) =  -1204.72403552     A.U. after   11 cycles
 SCF Done:  E(RB3LYP) =  -1204.72405946     A.U. after   11 cycles
 SCF Done:  E(RB3LYP) =  -1204.72406578     A.U. after    9 cycles
 SCF Done:  E(RB3LYP) =  -1204.72407178     A.U. after    9 cycles
 SCF Done:  E(RB3LYP) =  -1204.72407238     A.U. after    9 cycles
 SCF Done:  E(RB3LYP) =  -1204.72407272     A.U. after    8 cycles
 SCF Done:  E(RB3LYP) =  -1204.72407283     A.U. after    7 cycles
 Optimization completed.
    -- Stationary point found.
 Normal termination of Gaussian 16 at Sun Dec 13 12:53:27 2020.

 --------------------------------------------------------------------
 #N Geom=AllCheck Guess=TCheck SCRF=Check GenChk RB3LYP/6-31G(d) Freq
 --------------------------------------------------------------------

 Structure from the checkpoint file:  "JID_10233.chk"
 -------------------------------
 CID_80309676_JID_10233_neutraal
 -------------------------------
 Charge =  0 Multiplicity = 1

 SCF Done:  E(RB3LYP) =  -1204.72407283     A.U. after    1 cycles

  Exact polarizability: 201.403 -12.271 168.338  -3.349  11.614 187.925
 Approx polarizability: 290.711 -25.043 258.451  -8.251  28.997 334.644

                      1                      2                      3
                      A                      A                      A
 Frequencies --     13.7094                22.4998                34.1390
 Red. masses --      5.0318                 6.7739                 3.0990
 Frc consts  --      0.0006                 0.0020                 0.0021
 IR Inten    --      0.0611                 0.1125                 0.1686

                      4                      5                      6
                      A                      A                      A
 Frequencies --     49.8979                54.8460                82.5684
 Red. masses --      5.4258                 4.4407                 2.7908
 Frc consts  --      0.0080                 0.0079                 0.0112
 IR Inten    --      0.8493                 1.3274                 0.2066

                      7                      8                      9
                      A                      A                      A
 Frequencies --    127.2104               131.3137               155.0351
 Red. masses --      3.0452                 4.0525                 3.8580
 Frc consts  --      0.0290                 0.0412                 0.0546
 IR Inten    --      0.9126                 1.2949                 1.0857

                     10                     11                     12
                      A                      A                      A
 Frequencies --    169.4115               191.8420               231.9463
 Red. masses --      2.5136                 3.7682                 2.5199
 Frc consts  --      0.0425                 0.0817                 0.0799
 IR Inten    --      1.5015                 3.1428                 2.1860

                     13                     14                     15
                      A                      A                      A
 Frequencies --    236.9686               253.9272               280.8146
 Red. masses --      2.9182                 2.1116                 3.4661
 Frc consts  --      0.0965                 0.0802                 0.1610
 IR Inten    --      1.4766                 3.6440                 2.0818

                     16                     17                     18
                      A                      A                      A
 Frequencies --    312.2551               327.8003               339.1434
 Red. masses --      1.6560                 4.3961                 2.3075
 Frc consts  --      0.0951                 0.2783                 0.1564
 IR Inten    --      3.5557                 6.6283                 5.9624

                     19                     20                     21
                      A                      A                      A
 Frequencies --    428.2559               433.1429               474.7588
 Red. masses --      3.4730                 3.6402                 4.7272
 Frc consts  --      0.3753                 0.4024                 0.6278
 IR Inten    --      0.1466                 0.9976                 0.0608

                     22                     23                     24
                      A                      A                      A
 Frequencies --    501.0564               512.5298               525.9420
 Red. masses --      3.6997                 4.1127                 3.4536
 Frc consts  --      0.5473                 0.6365                 0.5629
 IR Inten    --      0.2685                 6.4012                 3.6897

                     25                     26                     27
                      A                      A                      A
 Frequencies --    552.4671               574.7837               602.7462
 Red. masses --      3.9148                 4.8493                 4.3456
 Frc consts  --      0.7040                 0.9439                 0.9302
 IR Inten    --      3.8349                 3.0356                 6.5593

                     28                     29                     30
                      A                      A                      A
 Frequencies --    620.4774               637.7032               661.9564
 Red. masses --      4.4507                 6.3488                 4.1925
 Frc consts  --      1.0096                 1.5212                 1.0824
 IR Inten    --     19.7815                10.2900                 5.0165

                     31                     32                     33
                      A                      A                      A
 Frequencies --    681.5980               695.2593               724.0719
 Red. masses --      3.3382                 3.7126                 2.4864
 Frc consts  --      0.9137                 1.0574                 0.7680
 IR Inten    --     10.1618                 9.9991                16.5893

                     34                     35                     36
                      A                      A                      A
 Frequencies --    739.6202               756.2542               779.2751
 Red. masses --      1.2578                 1.7960                 6.6137
 Frc consts  --      0.4054                 0.6052                 2.3663
 IR Inten    --     29.8382                28.6493                12.6056

                     37                     38                     39
                      A                      A                      A
 Frequencies --    784.7156               805.1961               833.6762
 Red. masses --      1.2042                 1.5631                 3.4313
 Frc consts  --      0.4369                 0.5971                 1.4051
 IR Inten    --     19.4235                34.4198                12.2238

                     40                     41                     42
                      A                      A                      A
 Frequencies --    880.4564               891.4045               893.2767
 Red. masses --      1.9976                 2.8179                 1.6144
 Frc consts  --      0.9124                 1.3192                 0.7590
 IR Inten    --      1.7426                 0.1105                 1.8204

                     43                     44                     45
                      A                      A                      A
 Frequencies --    902.5135               912.9965               915.3972
 Red. masses --      2.1798                 1.5042                 1.6517
 Frc consts  --      1.0461                 0.7387                 0.8155
 IR Inten    --      1.6365                 2.4035                14.7046

                     46                     47                     48
                      A                      A                      A
 Frequencies --    935.0724               970.0940               980.2496
 Red. masses --      2.1558                 1.2607                 2.1353
 Frc consts  --      1.1106                 0.6990                 1.2089
 IR Inten    --      2.6885                 1.2188                 5.5541

                     49                     50                     51
                      A                      A                      A
 Frequencies --    998.3570              1006.5650              1023.7430
 Red. masses --      2.0148                 2.2021                 2.1048
 Frc consts  --      1.1832                 1.3145                 1.2997
 IR Inten    --      6.7266                 2.1498                14.3401

                     52                     53                     54
                      A                      A                      A
 Frequencies --   1069.0585              1075.5629              1081.6439
 Red. masses --      3.2360                 2.3019                 2.4660
 Frc consts  --      2.1790                 1.5690                 1.6999
 IR Inten    --     47.9322                32.5376                12.9232

                     55                     56                     57
                      A                      A                      A
 Frequencies --   1092.9518              1098.4257              1138.4630
 Red. masses --      1.7521                 1.7606                 1.8065
 Frc consts  --      1.2331                 1.2516                 1.3795
 IR Inten    --      9.6586                14.6903                 3.1073

                     58                     59                     60
                      A                      A                      A
 Frequencies --   1165.9721              1166.8714              1173.7912
 Red. masses --      2.3397                 2.0327                 1.7813
 Frc consts  --      1.8741                 1.6307                 1.4460
 IR Inten    --     27.4009                36.6086                 9.1724

                     61                     62                     63
                      A                      A                      A
 Frequencies --   1182.1330              1191.3961              1198.3677
 Red. masses --      2.1635                 1.3225                 1.8045
 Frc consts  --      1.7813                 1.1060                 1.5268
 IR Inten    --     19.2002                 3.8625                11.1817

                     64                     65                     66
                      A                      A                      A
 Frequencies --   1221.4328              1253.4740              1267.5076
 Red. masses --      2.5055                 1.4094                 2.1163
 Frc consts  --      2.2023                 1.3047                 2.0032
 IR Inten    --     21.3978                21.5090                21.7952

                     67                     68                     69
                      A                      A                      A
 Frequencies --   1276.8462              1278.0852              1286.8791
 Red. masses --      1.7635                 1.3016                 1.3530
 Frc consts  --      1.6939                 1.2527                 1.3202
 IR Inten    --     51.3740                42.6229                66.9143

                     70                     71                     72
                      A                      A                      A
 Frequencies --   1315.4884              1321.1663              1342.8566
 Red. masses --      1.2036                 1.6586                 1.3227
 Frc consts  --      1.2271                 1.7057                 1.4053
 IR Inten    --      5.3128                13.3723                 9.5940

                     73                     74                     75
                      A                      A                      A
 Frequencies --   1349.8422              1358.1567              1382.3501
 Red. masses --      1.7621                 1.9540                 2.4187
 Frc consts  --      1.8917                 2.1236                 2.7231
 IR Inten    --     27.2458                 2.0462                 1.5601

                     76                     77                     78
                      A                      A                      A
 Frequencies --   1394.0659              1403.6526              1406.9957
 Red. masses --      1.3575                 1.3984                 1.4348
 Frc consts  --      1.5543                 1.6233                 1.6735
 IR Inten    --      7.8643                12.3608                10.9108

                     79                     80                     81
                      A                      A                      A
 Frequencies --   1419.6259              1441.4292              1489.9308
 Red. masses --      1.3932                 1.2701                 2.7305
 Frc consts  --      1.6543                 1.5548                 3.5713
 IR Inten    --     15.4515                 9.4979                 5.8116

                     82                     83                     84
                      A                      A                      A
 Frequencies --   1496.6110              1504.1204              1510.1398
 Red. masses --      5.4349                 1.4213                 1.2405
 Frc consts  --      7.1723                 1.8946                 1.6668
 IR Inten    --      4.2776                18.9809                 9.6898

                     85                     86                     87
                      A                      A                      A
 Frequencies --   1515.0494              1518.7320              1526.6338
 Red. masses --      1.1748                 1.3910                 1.1712
 Frc consts  --      1.5887                 1.8904                 1.6082
 IR Inten    --      5.8963                22.6264                20.4220

                     88                     89                     90
                      A                      A                      A
 Frequencies --   1529.8391              1535.8792              1541.8248
 Red. masses --      1.0739                 1.1781                 1.0977
 Frc consts  --      1.4808                 1.6374                 1.5375
 IR Inten    --      7.5439                25.1927                 3.9591

                     91                     92                     93
                      A                      A                      A
 Frequencies --   1545.8096              1573.1297              1640.0350
 Red. masses --      1.0653                 6.4805                 6.7549
 Frc consts  --      1.4998                 9.4491                10.7047
 IR Inten    --      2.4797                19.8178                44.2584

                     94                     95                     96
                      A                      A                      A
 Frequencies --   1664.7806              2948.0672              3006.4423
 Red. masses --      7.2479                 1.0732                 1.0837
 Frc consts  --     11.8352                 5.4953                 5.7711
 IR Inten    --      6.6967                55.1053                36.7708

                     97                     98                     99
                      A                      A                      A
 Frequencies --   3028.1333              3040.0748              3040.7277
 Red. masses --      1.0730                 1.0585                 1.0412
 Frc consts  --      5.7969                 5.7637                 5.6719
 IR Inten    --     30.3328                19.5786                36.5750

                    100                    101                    102
                      A                      A                      A
 Frequencies --   3070.3188              3078.6912              3079.1034
 Red. masses --      1.0595                 1.0578                 1.0996
 Frc consts  --      5.8848                 5.9073                 6.1424
 IR Inten    --     30.4127                37.9574                10.8396

                    103                    104                    105
                      A                      A                      A
 Frequencies --   3092.3416              3108.0466              3113.7173
 Red. masses --      1.0879                 1.1013                 1.1047
 Frc consts  --      6.1294                 6.2679                 6.3105
 IR Inten    --     23.5654                53.8251                37.6037

                    106                    107                    108
                      A                      A                      A
 Frequencies --   3115.2917              3119.2443              3139.7958
 Red. masses --      1.1020                 1.1072                 1.0906
 Frc consts  --      6.3011                 6.3470                 6.3348
 IR Inten    --     48.0500                16.4318                 6.8945

                    109                    110                    111
                      A                      A                      A
 Frequencies --   3189.3397              3211.2848              3217.2080
 Red. masses --      1.0869                 1.0908                 1.0956
 Frc consts  --      6.5139                 6.6275                 6.6815
 IR Inten    --     11.1353                 9.3781                14.1556

                    112                    113                    114
                      A                      A                      A
 Frequencies --   3237.2516              3281.7900              3517.2865
 Red. masses --      1.0914                 1.0981                 1.0740
 Frc consts  --      6.7386                 6.9683                 7.8281
 IR Inten    --      7.2998                 1.3199                 0.9378

 - Thermochemistry -
 -------------------
 Temperature   298.150 Kelvin.  Pressure   1.00000 Atm.
 Atom     1 has atomic number  6 and mass  12.00000

 Molecular mass:   288.12964 amu.
 Principal axes and moments of inertia in atomic units:
                           1         2         3
     Eigenvalues --  3963.714438477.414939633.99711
           X            0.99964  -0.02570   0.00807
           Y            0.02574   0.99966  -0.00396
           Z           -0.00796   0.00417   0.99996
 This molecule is an asymmetric top.
 Rotational symmetry number  1.
 Warning -- assumption of classical behavior for rotation
           may cause significant error
 Rotational temperatures (Kelvin)      0.02185     0.01022     0.00899
 Rotational constants (GHZ):           0.45532     0.21289     0.18733
 Zero-point vibrational energy     886624.9 (Joules/Mol)
                                  211.90843 (Kcal/Mol)
 Warning -- explicit consideration of  28 degrees of freedom as
           vibrations may cause significant error
 Vibrational temperatures:     19.72    32.37    49.12    71.79    78.91
          (Kelvin)            118.80   183.03   188.93   223.06   243.75
                              276.02   333.72   340.94   365.34   404.03
                              449.27   471.63   487.95   616.16   623.20
                              683.07   720.91   737.42   756.71   794.88
                              826.99   867.22   892.73   917.51   952.41
                              980.67  1000.32  1041.78  1064.15  1088.08
                             1121.20  1129.03  1158.50  1199.47  1266.78
                             1282.53  1285.23  1298.52  1313.60  1317.05
                             1345.36  1395.75  1410.36  1436.41  1448.22
                             1472.94  1538.14  1547.50  1556.24  1572.51
                             1580.39  1637.99  1677.57  1678.87  1688.82
                             1700.83  1714.15  1724.18  1757.37  1803.47
                             1823.66  1837.10  1838.88  1851.53  1892.69
                             1900.86  1932.07  1942.12  1954.08  1988.89
                             2005.75  2019.54  2024.35  2042.53  2073.90
                             2143.68  2153.29  2164.09  2172.75  2179.82
                             2185.12  2196.49  2201.10  2209.79  2218.34
                             2224.08  2263.38  2359.64  2395.25  4241.61
                             4325.60  4356.81  4373.99  4374.93  4417.50
                             4429.55  4430.14  4449.19  4471.79  4479.94
                             4482.21  4487.90  4517.47  4588.75  4620.32
                             4628.84  4657.68  4721.76  5060.59

 Zero-point correction=                           0.337698 (Hartree/Particle)
 Thermal correction to Energy=                    0.356203
 Thermal correction to Enthalpy=                  0.357147
 Thermal correction to Gibbs Free Energy=         0.288040
 Sum of electronic and zero-point Energies=          -1204.386375
 Sum of electronic and thermal Energies=             -1204.367870
 Sum of electronic and thermal Enthalpies=           -1204.366926
 Sum of electronic and thermal Free Energies=        -1204.436033

                     E (Thermal)             CV                S
                      KCal/Mol        Cal/Mol-Kelvin    Cal/Mol-Kelvin
 Total                  223.521             71.250            145.448
 Electronic               0.000              0.000              0.000
 Translational            0.889              2.981             42.872
 Rotational               0.889              2.981             34.136
 Vibrational            221.743             65.289             68.439
 Vibration     1          0.593              1.986              7.384
 Vibration     2          0.593              1.985              6.400
 Vibration     3          0.594              1.983              5.573
 Vibration     4          0.595              1.978              4.821
 Vibration     5          0.596              1.976              4.635
 Vibration     6          0.600              1.961              3.829
 Vibration     7          0.611              1.926              2.988
 Vibration     8          0.612              1.922              2.927
 Vibration     9          0.620              1.897              2.610
 Vibration    10          0.625              1.880              2.442
 Vibration    11          0.634              1.851              2.210
 Vibration    12          0.653              1.792              1.864
 Vibration    13          0.656              1.784              1.826
 Vibration    14          0.665              1.756              1.703
 Vibration    15          0.680              1.709              1.529
 Vibration    16          0.701              1.650              1.350
 Vibration    17          0.711              1.620              1.271
 Vibration    18          0.719              1.597              1.216
 Vibration    19          0.790              1.409              0.864
 Vibration    20          0.794              1.398              0.848
 Vibration    21          0.831              1.306              0.724
 Vibration    22          0.856              1.248              0.655
 Vibration    23          0.868              1.222              0.628
 Vibration    24          0.881              1.193              0.596
 Vibration    25          0.908              1.134              0.539
 Vibration    26          0.931              1.086              0.495
 Vibration    27          0.961              1.026              0.445
 Vibration    28          0.981              0.989              0.416

                           ! Non-Optimized Parameters !
 Normal termination of Gaussian 16 at Sun Dec 13 13:19:11 2020.

 ----------------------------------------------------------------------
 # B3LYP/6-311++G(d,p) empiricaldispersion=gd3bj scf=xqc pop=npa geom=c
 heck
 ----------------------------------------------------------------------

 ---------------------------------------
 CID_80309676_JID_10233_Energie_neutraal
 ---------------------------------------
 Structure from the checkpoint file:  "JID_10233.chk"
 Charge =  0 Multiplicity = 1

 SCF Done:  E(RB3LYP) =  -1204.96548118     A.U. after   17 cycles
 Normal termination of Gaussian 16 at Sun Dec 13 13:32:29 2020.

 ----------------------------------------------------------------------
 # B3LYP/6-311++G(d,p) empiricaldispersion=gd3bj scf=xqc pop=npa geom=c
 heck
 ----------------------------------------------------------------------

 -------------------------------------
 CID_80309676_JID_10233_Energie_kation
 -------------------------------------
 Structure from the checkpoint file:  "JID_10233.chk"
 Charge =  1 Multiplicity = 2

 SCF Done:  E(UB3LYP) =  -1204.68269705     A.U. after   33 cycles
 SCF Done:  E(UB3LYP) =  -1204.68269705     a.u. after    1 cycles
 Normal termination of Gaussian 16 at Sun Dec 13 14:09:54 2020.
 Gaussian 16:  ES64L-G16RevA.03 25-Dec-2016

 ----------------------------------------------------------------------
 # B3LYP/6-311++G(d,p) empiricaldispersion=gd3bj scf=xqc pop=npa geom=c
 heck
 ----------------------------------------------------------------------

 ------------------------------------
 CID_80309676_JID_10233_Energie_anion
 ------------------------------------
 Structure from the checkpoint file:  "JID_10233.chk"
 Charge = -1 Multiplicity = 2

                         Standard orientation:
 ---------------------------------------------------------------------
 Center     Atomic      Atomic             Coordinates (Angstroms)
 Number     Number       Type             X           Y           Z
 ---------------------------------------------------------------------
      1          6           0       -5.486846    1.550585   -0.399842
      2          6           0       -4.137659    1.375215   -1.102660
      3          6           0       -3.001996    0.980595   -0.155602
      4          7           0       -3.263322   -0.314219    0.473202
      5          6           0       -2.117038   -0.970395    1.098946
      6          6           0       -1.276141   -0.179053    2.136034
      7          6           0        0.147213   -0.775189    2.054076
      8          6           0        0.222696   -1.295689    0.626995
      9          6           0       -1.070094   -1.409515    0.092001
     10          6           0       -1.311476   -1.907785   -1.181955
     11          6           0       -0.220541   -2.312275   -1.954331
     12          6           0        1.072571   -2.208918   -1.447858
     13          6           0        1.304061   -1.707820   -0.160399
     14          8           0        2.634721   -1.704332    0.218495
     15          6           0        3.138367   -0.624507    0.996132
     16          6           0        2.782432    0.725090    0.441340
     17          7           0        2.310428    1.703574    1.161622
     18          6           0        2.073040    2.818751    0.389720
     19          6           0        2.358355    2.690006   -0.939049
     20         16           0        2.960736    1.097943   -1.265430
     21          1           0       -5.834286    0.605664    0.033389
     22          1           0       -6.258308    1.890806   -1.099224
     23          1           0       -5.419720    2.290799    0.408065
     24          1           0       -4.224527    0.606970   -1.880668
     25          1           0       -3.861035    2.313097   -1.602707
     26          1           0       -2.071867    0.885922   -0.726014
     27          1           0       -2.842751    1.795115    0.575025
     28          1           0       -4.011809   -0.223857    1.154933
     29          1           0       -2.521413   -1.870640    1.586122
     30          1           0       -1.229966    0.872977    1.834595
     31          1           0       -1.700741   -0.218717    3.144161
     32          1           0        0.896825   -0.020184    2.295557
     33          1           0        0.271539   -1.605019    2.764613
     34          1           0       -2.329723   -1.966962   -1.553115
     35          1           0       -0.372299   -2.698821   -2.958337
     36          1           0        1.933896   -2.504308   -2.038197
     37          1           0        2.799413   -0.663189    2.035473
     38          1           0        4.222831   -0.772076    0.988945
     39          1           0        1.676315    3.711122    0.859238
     40          1           0        2.236677    3.418810   -1.728009
 ---------------------------------------------------------------------

 SCF Done:  E(UB3LYP) =  -1204.96052061     A.U. after   33 cycles
 SCF Done:  E(UB3LYP) =  -1204.96052061     a.u. after    1 cycles

 The electronic state is 2-A.
 Alpha  occ. eigenvalues --  -88.75082 -19.03923 -14.19566 -14.18566 -10.12448
 Alpha  occ. eigenvalues --  -10.12357 -10.09855 -10.09638 -10.08786 -10.07931
 Alpha  occ. eigenvalues --  -10.07147 -10.07018 -10.07008 -10.06975 -10.06710
 Alpha  occ. eigenvalues --  -10.06511 -10.06482 -10.06198 -10.06132 -10.06055
 Alpha  occ. eigenvalues --   -7.83738  -5.80012  -5.79667  -5.79361  -0.95401
 Alpha  occ. eigenvalues --   -0.83754  -0.81133  -0.75676  -0.70551  -0.67553
 Alpha  occ. eigenvalues --   -0.67302  -0.66278  -0.63142  -0.61334  -0.59490
 Alpha  occ. eigenvalues --   -0.57328  -0.55605  -0.50348  -0.49273  -0.48403
 Alpha  occ. eigenvalues --   -0.47069  -0.45719  -0.43595  -0.40469  -0.40395
 Alpha  occ. eigenvalues --   -0.38526  -0.37770  -0.37408  -0.37234  -0.35179
 Alpha  occ. eigenvalues --   -0.33777  -0.33399  -0.33163  -0.32015  -0.31163
 Alpha  occ. eigenvalues --   -0.30753  -0.29475  -0.28766  -0.27855  -0.27723
 Alpha  occ. eigenvalues --   -0.26997  -0.26059  -0.25223  -0.24980  -0.24407
 Alpha  occ. eigenvalues --   -0.24320  -0.24093  -0.23736  -0.22854  -0.22299
 Alpha  occ. eigenvalues --   -0.19759  -0.16547  -0.15702  -0.13889  -0.12984
 Alpha  occ. eigenvalues --   -0.12585  -0.12014   0.04403
 Alpha virt. eigenvalues --    0.05857   0.07125   0.07780   0.08023   0.08626
 Alpha virt. eigenvalues --    0.08951   0.09148   0.09497   0.09856   0.10327
 Alpha virt. eigenvalues --    0.10410   0.10691   0.10886   0.11766   0.12172

  Beta  occ. eigenvalues --  -88.75042 -19.03879 -14.19545 -14.18473 -10.12448
  Beta  occ. eigenvalues --  -10.12375 -10.09855 -10.09306 -10.08781 -10.07953
  Beta  occ. eigenvalues --  -10.07014 -10.06996 -10.06956 -10.06906 -10.06709
  Beta  occ. eigenvalues --  -10.06478 -10.06433 -10.06170 -10.06120 -10.06060
  Beta  occ. eigenvalues --   -7.83702  -5.79999  -5.79654  -5.79219  -0.95304
  Beta  occ. eigenvalues --   -0.83449  -0.81096  -0.75625  -0.70513  -0.67520
  Beta  occ. eigenvalues --   -0.66999  -0.66100  -0.62928  -0.61279  -0.59416
  Beta  occ. eigenvalues --   -0.57238  -0.55545  -0.50273  -0.49197  -0.48308
  Beta  occ. eigenvalues --   -0.46883  -0.45574  -0.43392  -0.40392  -0.40259
  Beta  occ. eigenvalues --   -0.38399  -0.37681  -0.37372  -0.37162  -0.35041
  Beta  occ. eigenvalues --   -0.33704  -0.33306  -0.33128  -0.31929  -0.31126
  Beta  occ. eigenvalues --   -0.30707  -0.29430  -0.28558  -0.27664  -0.27180
  Beta  occ. eigenvalues --   -0.26926  -0.25989  -0.25146  -0.24955  -0.24348
  Beta  occ. eigenvalues --   -0.24106  -0.24051  -0.23714  -0.22802  -0.22211
  Beta  occ. eigenvalues --   -0.19683  -0.15667  -0.15493  -0.13700  -0.12552
  Beta  occ. eigenvalues --   -0.11918  -0.11718
  Beta virt. eigenvalues --    0.06472   0.07484   0.07653   0.08020   0.08182
  Beta virt. eigenvalues --    0.08976   0.09279   0.09308   0.09878   0.09943
  Beta virt. eigenvalues --    0.10279   0.10725   0.10757   0.10985   0.11845

 Mulliken charges and spin densities:
               1          2
     1  C    0.610215  -1.148822
     2  C   -0.625177   0.455359
     3  C   -0.196885  -0.235192
     4  N    0.053917   0.035669
     5  C   -0.154003  -0.180041
     6  C    0.055546  -0.393191
     7  C   -0.928102   0.188397
     8  C    1.573891  -0.163358
     9  C    0.116811   0.062013
    10  C   -0.074718  -0.101720
    11  C   -0.426323   0.030452
    12  C   -0.358675   0.071510
    13  C   -0.765745   0.026416
    14  O   -0.090197  -0.019628
    15  C   -0.479281  -0.090850
    16  C    0.244329   0.094029
    17  N   -0.032338   0.049566
    18  C   -0.219456  -0.006509
    19  C   -0.280133   0.130250
    20  S   -0.107226   0.154851
    21  H   -0.111878   0.251931
    22  H   -0.175866   0.312335
    23  H   -0.213662   0.353138
    24  H    0.131198  -0.017711
    25  H    0.107976   0.013949
    26  H    0.072898   0.078703
    27  H    0.137666  -0.036128
    28  H    0.055132   0.192000
    29  H   -0.040527   0.222112
    30  H    0.063537   0.086304
    31  H   -0.178798   0.346333
    32  H    0.139108  -0.001530
    33  H    0.201032  -0.025948
    34  H    0.172586   0.005235
    35  H    0.128132   0.017327
    36  H    0.154957   0.009757
    37  H    0.192011  -0.027984
    38  H   -0.056649   0.256659
    39  H    0.118788   0.012248
    40  H    0.185912  -0.007930
 Sum of Mulliken charges =  -1.00000   1.00000

 Dipole moment (field-independent basis, Debye):
    X=              2.3642    Y=             -1.0827    Z=             -1.6357  Tot=              3.0720
 Quadrupole moment (field-independent basis, Debye-Ang):
   XX=           -217.0071   YY=           -157.7445   ZZ=           -148.3030
   XY=              3.9928   XZ=              5.5756   YZ=             -3.2048

 Summary of Natural Population Analysis:

                                       Natural Population
                Natural  -----------------------------------------------
    Atom  No    Charge         Core      Valence    Rydberg      Total
 -----------------------------------------------------------------------
      C    1   -0.28973      0.99967     2.28492    0.00514     3.28973
      C    2   -0.19121      0.99964     2.18266    0.00891     3.19121
      C    3   -0.09281      0.99962     2.08166    0.01153     3.09281
      N    4   -0.34186      0.99973     2.82957    0.01257     3.84186
      C    5   -0.01356      0.99955     1.99973    0.01428     3.01356
      C    6   -0.19276      0.99963     2.18434    0.00879     3.19276
      C    7   -0.20158      0.99961     2.19388    0.00808     3.20158
      C    8   -0.04078      0.99940     2.03175    0.00963     3.04078
      C    9   -0.00214      0.99947     1.99221    0.01046     3.00214
      C   10   -0.11717      0.99950     2.10853    0.00914     3.11717
      C   11   -0.09656      0.99959     2.08882    0.00816     3.09656
      C   12   -0.10880      0.99945     2.10105    0.00829     3.10880
      C   13    0.16099      0.99927     1.82497    0.01476     2.83901
      O   14   -0.28175      0.99986     3.27227    0.00961     4.28175
      C   15   -0.02984      0.99949     2.01626    0.01410     3.02984
      C   16    0.06263      0.99961     1.91868    0.01908     2.93737
      N   17   -0.24185      0.99964     2.73075    0.01146     3.74185
      C   18   -0.03416      0.99954     2.02103    0.01358     3.03416
      C   19   -0.17296      0.99955     2.16440    0.00901     3.17296
      S   20    0.19346      4.99942     2.78579    0.02134     7.80654
      H   21    0.09824      0.00000     0.40062    0.00114     0.40176
      H   22    0.09732      0.00000     0.40175    0.00092     0.40268
      H   23    0.09583      0.00000     0.40301    0.00116     0.40417
      H   24    0.09529      0.00000     0.40349    0.00122     0.40471
      H   25    0.09256      0.00000     0.40648    0.00095     0.40744
      H   26    0.10126      0.00000     0.39731    0.00143     0.39874
      H   27    0.07869      0.00000     0.41985    0.00146     0.42131
      H   28    0.17577      0.00000     0.32124    0.00299     0.32423
      H   29    0.09799      0.00000     0.40085    0.00116     0.40201
      H   30    0.10062      0.00000     0.39805    0.00134     0.39938
      H   31    0.09681      0.00000     0.40198    0.00120     0.40319
      H   32    0.11713      0.00000     0.38131    0.00157     0.38287
      H   33    0.09551      0.00000     0.40359    0.00090     0.40449
      H   34    0.10484      0.00000     0.39363    0.00153     0.39516
      H   35    0.09501      0.00000     0.40415    0.00085     0.40499
      H   36    0.10274      0.00000     0.39630    0.00095     0.39726
      H   37    0.09200      0.00000     0.40673    0.00127     0.40800
      H   38    0.09938      0.00000     0.39887    0.00174     0.40062
      H   39    0.09301      0.00000     0.40596    0.00103     0.40699
      H   40    0.10244      0.00000     0.39665    0.00091     0.39756
 =======================================================================
   * Total *    0.00001     23.99124    52.75509    0.25365    76.99999

 Normal termination of Gaussian 16 at Sun Dec 13 14:45:37 2020.
