 Gaussian 16, Revision A.03,

 -----------------------------------------------------------
 # opt freq B3LYP/6-31G(d) empiricaldispersion=gd3bj scf=xqc
 -----------------------------------------------------------

 -------------------------------
 CID_146440979_JID_6839_neutraal
 -------------------------------
 Symbolic Z-matrix:
 Charge =  0 Multiplicity = 1

 SCF Done:  E(RB3LYP) =  -766.641413102     A.U. after   15 cycles
 SCF Done:  E(RB3LYP) =  -766.645563922     A.U. after   12 cycles
 SCF Done:  E(RB3LYP) =  -766.646503682     A.U. after   12 cycles
 SCF Done:  E(RB3LYP) =  -766.645551954     A.U. after   14 cycles
 SCF Done:  E(RB3LYP) =  -766.646875297     A.U. after   13 cycles
 SCF Done:  E(RB3LYP) =  -766.647437894     A.U. after   12 cycles
 SCF Done:  E(RB3LYP) =  -766.647537101     A.U. after   12 cycles
 SCF Done:  E(RB3LYP) =  -766.647649908     A.U. after   12 cycles
 SCF Done:  E(RB3LYP) =  -766.647703643     A.U. after   10 cycles
 SCF Done:  E(RB3LYP) =  -766.647740521     A.U. after   12 cycles
 SCF Done:  E(RB3LYP) =  -766.647757245     A.U. after    9 cycles
 SCF Done:  E(RB3LYP) =  -766.647762061     A.U. after   10 cycles
 SCF Done:  E(RB3LYP) =  -766.647762979     A.U. after    8 cycles
 SCF Done:  E(RB3LYP) =  -766.647763391     A.U. after    8 cycles
 SCF Done:  E(RB3LYP) =  -766.647763437     A.U. after    8 cycles
 Optimization completed.
    -- Stationary point found.
 Normal termination of Gaussian 16 at Fri Dec 11 00:56:29 2020.

 --------------------------------------------------------------------
 #N Geom=AllCheck Guess=TCheck SCRF=Check GenChk RB3LYP/6-31G(d) Freq
 --------------------------------------------------------------------

 Structure from the checkpoint file:  "JID_6839.chk"
 -------------------------------
 CID_146440979_JID_6839_neutraal
 -------------------------------
 Charge =  0 Multiplicity = 1

 SCF Done:  E(RB3LYP) =  -766.647763437     A.U. after    1 cycles

  Exact polarizability: 112.630  12.596 152.258  13.820  -4.512 116.538
 Approx polarizability: 145.747  15.897 237.669  26.875  -6.211 200.534

                      1                      2                      3
                      A                      A                      A
 Frequencies --     16.0149                30.4349                53.7267
 Red. masses --      4.6748                 6.1366                 7.2727
 Frc consts  --      0.0007                 0.0033                 0.0124
 IR Inten    --      1.1670                 0.7821                 0.1031

                      4                      5                      6
                      A                      A                      A
 Frequencies --     61.9546                91.3411               115.1260
 Red. masses --      6.3904                 2.3991                 5.2727
 Frc consts  --      0.0145                 0.0118                 0.0412
 IR Inten    --      3.2959                 0.4879                 1.4304

                      7                      8                      9
                      A                      A                      A
 Frequencies --    124.6379               204.2115               224.8396
 Red. masses --      5.5421                 3.5559                 3.2595
 Frc consts  --      0.0507                 0.0874                 0.0971
 IR Inten    --      1.3634                 1.6491                 6.6572

                     10                     11                     12
                      A                      A                      A
 Frequencies --    290.1754               315.8131               416.1025
 Red. masses --      2.3564                 4.2565                 3.2377
 Frc consts  --      0.1169                 0.2501                 0.3303
 IR Inten    --      1.4065                 1.1401                 0.4762

                     13                     14                     15
                      A                      A                      A
 Frequencies --    420.7787               425.2989               440.9758
 Red. masses --      3.2730                 3.1367                 3.6602
 Frc consts  --      0.3414                 0.3343                 0.4194
 IR Inten    --     11.9775                 0.3199                 1.6441

                     16                     17                     18
                      A                      A                      A
 Frequencies --    446.1728               495.2599               542.4686
 Red. masses --      4.6239                 3.3300                 3.0622
 Frc consts  --      0.5423                 0.4812                 0.5309
 IR Inten    --      0.1446                 4.5106                 3.9920

                     19                     20                     21
                      A                      A                      A
 Frequencies --    573.5012               590.1165               631.1821
 Red. masses --      3.8883                 6.4715                 6.4189
 Frc consts  --      0.7535                 1.3278                 1.5067
 IR Inten    --      3.2917                 8.4180                 0.0466

                     22                     23                     24
                      A                      A                      A
 Frequencies --    708.8154               713.0675               749.0048
 Red. masses --      2.2277                 5.0479                12.2762
 Frc consts  --      0.6594                 1.5123                 4.0577
 IR Inten    --     18.4192                 1.4285                28.7930

                     25                     26                     27
                      A                      A                      A
 Frequencies --    769.1376               796.0915               810.6858
 Red. masses --      1.8020                 3.3463                 5.7506
 Frc consts  --      0.6281                 1.2495                 2.2267
 IR Inten    --     37.7146                13.9283                 3.2191

                     28                     29                     30
                      A                      A                      A
 Frequencies --    839.0652               845.1856               907.5626
 Red. masses --      1.2475                 1.9379                 1.4565
 Frc consts  --      0.5174                 0.8156                 0.7068
 IR Inten    --      0.1002                 0.9607                 6.8142

                     31                     32                     33
                      A                      A                      A
 Frequencies --    926.9049               939.5348               962.3632
 Red. masses --      1.2947                 2.6031                 1.8405
 Frc consts  --      0.6554                 1.3538                 1.0043
 IR Inten    --      3.2929                 8.5756                 7.7602

                     34                     35                     36
                      A                      A                      A
 Frequencies --    962.6167               989.0530              1018.9376
 Red. masses --      1.6697                 1.2419                 4.5434
 Frc consts  --      0.9116                 0.7158                 2.7793
 IR Inten    --      5.6856                 0.5574                 2.3895

                     37                     38                     39
                      A                      A                      A
 Frequencies --   1024.0445              1053.6173              1063.2782
 Red. masses --      2.7887                 2.5699                 3.1116
 Frc consts  --      1.7230                 1.6808                 2.0727
 IR Inten    --      2.6318                 5.2563                40.3457

                     40                     41                     42
                      A                      A                      A
 Frequencies --   1079.1582              1110.2054              1116.5442
 Red. masses --      3.5984                 1.5487                 2.9980
 Frc consts  --      2.4690                 1.1247                 2.2021
 IR Inten    --     29.6602                10.8521                33.0551

                     43                     44                     45
                      A                      A                      A
 Frequencies --   1145.5722              1172.9121              1191.6387
 Red. masses --      2.8149                 2.9471                 2.1721
 Frc consts  --      2.1765                 2.3888                 1.8173
 IR Inten    --     37.4294                56.5894               166.1893

                     46                     47                     48
                      A                      A                      A
 Frequencies --   1191.9552              1193.8650              1203.0715
 Red. masses --      1.2959                 3.4152                 1.1591
 Frc consts  --      1.0848                 2.8680                 0.9884
 IR Inten    --     67.9699               144.5882                14.6809

                     49                     50                     51
                      A                      A                      A
 Frequencies --   1247.6351              1260.1281              1269.1111
 Red. masses --      1.3246                 1.2461                 2.0211
 Frc consts  --      1.2148                 1.1658                 1.9180
 IR Inten    --     34.2227                48.2830                94.6517

                     52                     53                     54
                      A                      A                      A
 Frequencies --   1310.4790              1328.7686              1341.1064
 Red. masses --      1.5063                 1.1636                 1.8264
 Frc consts  --      1.5242                 1.2105                 1.9354
 IR Inten    --     66.0636                10.4041                 6.2047

                     55                     56                     57
                      A                      A                      A
 Frequencies --   1355.8000              1368.2169              1396.7786
 Red. masses --      1.2395                 2.4330                 1.4079
 Frc consts  --      1.3424                 2.6835                 1.6184
 IR Inten    --     10.1362                 7.7515                 3.9254

                     58                     59                     60
                      A                      A                      A
 Frequencies --   1422.8531              1436.8372              1445.8867
 Red. masses --      1.4387                 1.3004                 1.5069
 Frc consts  --      1.7161                 1.5818                 1.8561
 IR Inten    --      3.0901                12.0422                68.8890

                     61                     62                     63
                      A                      A                      A
 Frequencies --   1455.7967              1502.6618              1506.5977
 Red. masses --      1.4459                 2.2321                 1.1017
 Frc consts  --      1.8055                 2.9695                 1.4734
 IR Inten    --     19.9418                 1.2089                 4.6189

                     64                     65                     66
                      A                      A                      A
 Frequencies --   1530.0455              1540.0820              1548.5225
 Red. masses --      1.2204                 1.1079                 1.8404
 Frc consts  --      1.6833                 1.5482                 2.6001
 IR Inten    --     25.0161                 3.4441                61.4863

                     67                     68                     69
                      A                      A                      A
 Frequencies --   1551.4622              1647.6904              1661.6841
 Red. masses --      1.0998                 5.8793                 5.6805
 Frc consts  --      1.5598                 9.4043                 9.2412
 IR Inten    --      7.3057                11.8716                52.6662

                     70                     71                     72
                      A                      A                      A
 Frequencies --   1887.6236              3029.8249              3032.8506
 Red. masses --     12.8072                 1.0647                 1.0693
 Frc consts  --     26.8865                 5.7583                 5.7952
 IR Inten    --    600.5548                 6.1680                12.9498

                     73                     74                     75
                      A                      A                      A
 Frequencies --   3039.0436              3069.9883              3080.2788
 Red. masses --      1.0700                 1.0663                 1.0834
 Frc consts  --      5.8222                 5.9211                 6.0565
 IR Inten    --     70.9916                26.1517                 9.3875

                     76                     77                     78
                      A                      A                      A
 Frequencies --   3091.3568              3118.9219              3124.7580
 Red. masses --      1.0881                 1.1078                 1.0987
 Frc consts  --      6.1264                 6.3495                 6.3206
 IR Inten    --     34.7781                30.5192                33.1581

                     79                     80                     81
                      A                      A                      A
 Frequencies --   3141.9716              3189.4423              3196.8969
 Red. masses --      1.0964                 1.0853                 1.0881
 Frc consts  --      6.3773                 6.5047                 6.5523
 IR Inten    --     10.6311                 4.5437                 5.0091

                     82                     83                     84
                      A                      A                      A
 Frequencies --   3207.6173              3213.1092              3220.2508
 Red. masses --      1.0912                 1.0939                 1.0979
 Frc consts  --      6.6148                 6.6538                 6.7078
 IR Inten    --     19.7832                18.4645                 6.9363

 - Thermochemistry -
 -------------------
 Temperature   298.150 Kelvin.  Pressure   1.00000 Atm.
 Atom     1 has atomic number  6 and mass  12.00000

 Molecular mass:   222.08921 amu.
 Principal axes and moments of inertia in atomic units:
                           1         2         3
     Eigenvalues --  2370.317094809.548696132.08533
           X            0.99910   0.04196   0.00561
           Y           -0.04187   0.99902  -0.01458
           Z           -0.00622   0.01433   0.99988
 This molecule is an asymmetric top.
 Rotational symmetry number  1.
 Warning -- assumption of classical behavior for rotation
           may cause significant error
 Rotational temperatures (Kelvin)      0.03654     0.01801     0.01412
 Rotational constants (GHZ):           0.76139     0.37524     0.29431
 Zero-point vibrational energy     650565.7 (Joules/Mol)
                                  155.48895 (Kcal/Mol)
 Warning -- explicit consideration of  20 degrees of freedom as
           vibrations may cause significant error
 Vibrational temperatures:     23.04    43.79    77.30    89.14   131.42
          (Kelvin)            165.64   179.33   293.81   323.49   417.50
                              454.38   598.68   605.41   611.91   634.47
                              641.94   712.57   780.49   825.14   849.05
                              908.13  1019.83  1025.95  1077.65  1106.62
                             1145.40  1166.40  1207.23  1216.03  1305.78
                             1333.61  1351.78  1384.63  1384.99  1423.03
                             1466.02  1473.37  1515.92  1529.82  1552.67
                             1597.34  1606.46  1648.22  1687.56  1714.50
                             1714.96  1717.71  1730.95  1795.07  1813.04
                             1825.97  1885.49  1911.80  1929.55  1950.69
                             1968.56  2009.65  2047.17  2067.29  2080.31
                             2094.57  2162.00  2167.66  2201.39  2215.83
                             2227.98  2232.21  2370.66  2390.79  2715.87
                             4359.24  4363.60  4372.51  4417.03  4431.83
                             4447.77  4487.43  4495.83  4520.60  4588.90
                             4599.62  4615.05  4622.95  4633.22

 Zero-point correction=                           0.247787 (Hartree/Particle)
 Thermal correction to Energy=                    0.261833
 Thermal correction to Enthalpy=                  0.262777
 Thermal correction to Gibbs Free Energy=         0.203919
 Sum of electronic and zero-point Energies=           -766.399976
 Sum of electronic and thermal Energies=              -766.385931
 Sum of electronic and thermal Enthalpies=            -766.384987
 Sum of electronic and thermal Free Energies=         -766.443845

                     E (Thermal)             CV                S
                      KCal/Mol        Cal/Mol-Kelvin    Cal/Mol-Kelvin
 Total                  164.302             52.994            123.877
 Electronic               0.000              0.000              0.000
 Translational            0.889              2.981             42.096
 Rotational               0.889              2.981             32.614
 Vibrational            162.525             47.032             49.167
 Vibration     1          0.593              1.986              7.076
 Vibration     2          0.594              1.984              5.801
 Vibration     3          0.596              1.976              4.675
 Vibration     4          0.597              1.972              4.394
 Vibration     5          0.602              1.955              3.631
 Vibration     6          0.608              1.937              3.181
 Vibration     7          0.610              1.928              3.027
 Vibration     8          0.640              1.834              2.095
 Vibration     9          0.649              1.803              1.920
 Vibration    10          0.686              1.692              1.473
 Vibration    11          0.703              1.643              1.332
 Vibration    12          0.779              1.435              0.905
 Vibration    13          0.783              1.425              0.889
 Vibration    14          0.787              1.415              0.874
 Vibration    15          0.801              1.381              0.824
 Vibration    16          0.805              1.369              0.807
 Vibration    17          0.851              1.261              0.670
 Vibration    18          0.898              1.156              0.560
 Vibration    19          0.930              1.089              0.498
 Vibration    20          0.947              1.053              0.467

 Optimization completed.
    -- Stationary point found.
 Normal termination of Gaussian 16 at Fri Dec 11 01:07:28 2020.

 ----------------------------------------------------------------------
 # B3LYP/6-311++G(d,p) empiricaldispersion=gd3bj scf=xqc pop=npa geom=c
 heck
 ----------------------------------------------------------------------

 ---------------------------------------
 CID_146440979_JID_6839_Energie_neutraal
 ---------------------------------------
 Structure from the checkpoint file:  "JID_6839.chk"
 Charge =  0 Multiplicity = 1

 SCF Done:  E(RB3LYP) =  -766.863975039     A.U. after   15 cycles
 Normal termination of Gaussian 16 at Fri Dec 11 01:12:30 2020.

 ----------------------------------------------------------------------
 # B3LYP/6-311++G(d,p) empiricaldispersion=gd3bj scf=xqc pop=npa geom=c
 heck
 ----------------------------------------------------------------------

 -------------------------------------
 CID_146440979_JID_6839_Energie_kation
 -------------------------------------
 Structure from the checkpoint file:  "JID_6839.chk"
 Charge =  1 Multiplicity = 2

 SCF Done:  E(UB3LYP) =  -766.549455843     A.U. after   23 cycles
 Normal termination of Gaussian 16 at Fri Dec 11 01:23:30 2020.
 Gaussian 16:  ES64L-G16RevA.03 25-Dec-2016

 ----------------------------------------------------------------------
 # B3LYP/6-311++G(d,p) empiricaldispersion=gd3bj scf=xqc pop=npa geom=c
 heck
 ----------------------------------------------------------------------

 ------------------------------------
 CID_146440979_JID_6839_Energie_anion
 ------------------------------------
 Structure from the checkpoint file:  "JID_6839.chk"
 Charge = -1 Multiplicity = 2

                         Standard orientation:
 ---------------------------------------------------------------------
 Center     Atomic      Atomic             Coordinates (Angstroms)
 Number     Number       Type             X           Y           Z
 ---------------------------------------------------------------------
      1          6           0        2.606524    1.058038    0.578988
      2          6           0        1.151068    0.997547    0.149672
      3          6           0        1.118772    0.183806   -1.133350
      4          8           0        1.820688   -1.066069   -0.996556
      5          6           0        2.811946   -1.271463   -0.099053
      6          8           0        3.355005   -2.338954   -0.020377
      7          8           0        3.161501   -0.257199    0.729382
      8          6           0        0.568455    2.407629   -0.010753
      9          6           0       -0.902188    2.450878   -0.427818
     10          8           0       -1.727356    1.806975    0.545117
     11          6           0       -2.123223    0.509243    0.315751
     12          6           0       -2.646918    0.079607   -0.908374
     13          6           0       -3.043151   -1.250737   -1.058109
     14          6           0       -2.938076   -2.148199    0.004359
     15          6           0       -2.438364   -1.704520    1.230403
     16          6           0       -2.029169   -0.382141    1.388433
     17          1           0        3.205638    1.613697   -0.155965
     18          1           0        2.729963    1.535916    1.554041
     19          1           0        0.587296    0.457999    0.918770
     20          1           0        1.581342    0.745792   -1.956630
     21          1           0        0.104808   -0.095160   -1.425330
     22          1           0        0.671289    2.939448    0.942853
     23          1           0        1.151405    2.971047   -0.754080
     24          1           0       -1.239601    3.490248   -0.483422
     25          1           0       -1.043456    2.002878   -1.416681
     26          1           0       -2.763888    0.777960   -1.730938
     27          1           0       -3.445860   -1.580584   -2.011576
     28          1           0       -3.245379   -3.181735   -0.120190
     29          1           0       -2.354718   -2.393012    2.066254
     30          1           0       -1.631602   -0.020643    2.331471
 ---------------------------------------------------------------------

 SCF Done:  E(UB3LYP) =  -766.857332959     A.U. after   33 cycles
 SCF Done:  E(UB3LYP) =  -766.857332959     a.u. after    1 cycles

 The electronic state is 2-A.
 Alpha  occ. eigenvalues --  -19.08277 -19.08045 -19.05739 -19.01058 -10.25573
 Alpha  occ. eigenvalues --  -10.15029 -10.14847 -10.14355 -10.13413 -10.10259
 Alpha  occ. eigenvalues --  -10.09622 -10.09504 -10.09006 -10.09002 -10.08961
 Alpha  occ. eigenvalues --  -10.08795  -1.05054  -0.97390  -0.96257  -0.93666
 Alpha  occ. eigenvalues --   -0.77323  -0.74459  -0.68129  -0.66855  -0.64361
 Alpha  occ. eigenvalues --   -0.63225  -0.58893  -0.54095  -0.52799  -0.50039
 Alpha  occ. eigenvalues --   -0.47449  -0.46577  -0.44812  -0.42079  -0.40756
 Alpha  occ. eigenvalues --   -0.40100  -0.38945  -0.37973  -0.36879  -0.36690
 Alpha  occ. eigenvalues --   -0.35752  -0.34705  -0.34381  -0.33312  -0.31633
 Alpha  occ. eigenvalues --   -0.30816  -0.29957  -0.28507  -0.27685  -0.27381
 Alpha  occ. eigenvalues --   -0.26387  -0.24568  -0.23162  -0.22824  -0.21307
 Alpha  occ. eigenvalues --   -0.20628  -0.20287  -0.17607  -0.14745   0.03944
 Alpha virt. eigenvalues --    0.06069   0.06306   0.06674   0.07161   0.07811
 Alpha virt. eigenvalues --    0.07988   0.08421   0.09953   0.10257   0.10383
 Alpha virt. eigenvalues --    0.11294   0.11638   0.11707   0.12825   0.13036

  Beta  occ. eigenvalues --  -19.08278 -19.08042 -19.05732 -19.01053 -10.25569
  Beta  occ. eigenvalues --  -10.15032 -10.14819 -10.14323 -10.13375 -10.10261
  Beta  occ. eigenvalues --  -10.09602 -10.09483 -10.09004 -10.08998 -10.08933
  Beta  occ. eigenvalues --  -10.08753  -1.05046  -0.97375  -0.96250  -0.93657
  Beta  occ. eigenvalues --   -0.77293  -0.74428  -0.68090  -0.66808  -0.64316
  Beta  occ. eigenvalues --   -0.63177  -0.58851  -0.54041  -0.52757  -0.49978
  Beta  occ. eigenvalues --   -0.47401  -0.46550  -0.44762  -0.42037  -0.40716
  Beta  occ. eigenvalues --   -0.40065  -0.38910  -0.37929  -0.36841  -0.36658
  Beta  occ. eigenvalues --   -0.35728  -0.34686  -0.34349  -0.33277  -0.31572
  Beta  occ. eigenvalues --   -0.30773  -0.29921  -0.28474  -0.27654  -0.27344
  Beta  occ. eigenvalues --   -0.26320  -0.24528  -0.23140  -0.22810  -0.21262
  Beta  occ. eigenvalues --   -0.20604  -0.20277  -0.17516  -0.14708
  Beta virt. eigenvalues --    0.06115   0.06459   0.07002   0.07268   0.07384
  Beta virt. eigenvalues --    0.08485   0.08703   0.08970   0.10389   0.10594
  Beta virt. eigenvalues --    0.11082   0.11538   0.11816   0.12156   0.13232

 Mulliken charges and spin densities:
               1          2
     1  C    0.677231  -1.198934
     2  C   -1.240222   1.863232
     3  C    0.788968  -1.501246
     4  O   -0.110253   0.030133
     5  C    0.283270   0.061608
     6  O   -0.344777   0.000245
     7  O   -0.090850   0.010452
     8  C    0.904901  -1.508346
     9  C    0.325123  -0.642363
    10  O   -0.042838  -0.000332
    11  C   -0.699291   0.270443
    12  C    1.597445  -1.500360
    13  C    0.088599  -0.219325
    14  C    0.292230  -0.615157
    15  C   -0.486136   0.209902
    16  C   -0.808101   0.963461
    17  H   -0.117691   0.324620
    18  H   -0.178767   0.377736
    19  H    0.291984  -0.086426
    20  H   -0.472084   0.697609
    21  H    0.455150  -0.214157
    22  H    0.018123   0.167162
    23  H   -0.642167   0.816043
    24  H   -1.074695   1.284766
    25  H    0.042050   0.093883
    26  H   -0.408471   0.592580
    27  H   -0.312697   0.494284
    28  H    0.116562   0.027494
    29  H    0.067134   0.093108
    30  H    0.080270   0.107884
 Sum of Mulliken charges =  -1.00000   1.00000

 Dipole moment (field-independent basis, Debye):
    X=             -2.4588    Y=             -4.3885    Z=              4.2638  Tot=              6.5942
 Quadrupole moment (field-independent basis, Debye-Ang):
   XX=           -157.1879   YY=           -160.8862   ZZ=           -130.3453
   XY=             10.2147   XZ=             -3.1149   YZ=              7.3974

 Summary of Natural Population Analysis:

                                       Natural Population
                Natural  -----------------------------------------------
    Atom  No    Charge         Core      Valence    Rydberg      Total
 -----------------------------------------------------------------------
      C    1   -0.00599      0.99954     1.99360    0.01286     3.00599
      C    2   -0.14702      0.99958     2.13763    0.00981     3.14702
      C    3   -0.01048      0.99953     1.99842    0.01253     3.01048
      O    4   -0.27866      0.99985     3.27191    0.00690     4.27866
      C    5    0.51472      0.99973     1.45876    0.02679     2.48528
      O    6   -0.30309      0.99986     3.29748    0.00574     4.30309
      O    7   -0.28195      0.99986     3.27489    0.00720     4.28195
      C    8   -0.19976      0.99960     2.18902    0.01114     3.19976
      C    9   -0.00750      0.99954     1.99451    0.01345     3.00750
      O   10   -0.28664      0.99986     3.27716    0.00963     4.28664
      C   11    0.15647      0.99936     1.83000    0.01416     2.84353
      C   12   -0.13399      0.99950     2.12455    0.00994     3.13399
      C   13   -0.09113      0.99957     2.08113    0.01042     3.09113
      C   14   -0.11636      0.99956     2.10759    0.00922     3.11636
      C   15   -0.09291      0.99957     2.08405    0.00930     3.09291
      C   16   -0.12380      0.99951     2.11548    0.00881     3.12380
      H   17    0.09111      0.00000     0.40722    0.00167     0.40889
      H   18    0.09676      0.00000     0.40199    0.00125     0.40324
      H   19    0.10620      0.00000     0.39047    0.00332     0.39380
      H   20    0.09180      0.00000     0.40639    0.00181     0.40820
      H   21    0.10213      0.00000     0.39592    0.00196     0.39787
      H   22    0.10371      0.00000     0.39462    0.00166     0.39629
      H   23    0.11061      0.00000     0.38289    0.00650     0.38939
      H   24    0.09744      0.00000     0.40010    0.00245     0.40256
      H   25    0.08773      0.00000     0.40934    0.00292     0.41227
      H   26    0.11015      0.00000     0.38839    0.00146     0.38985
      H   27    0.10278      0.00000     0.39624    0.00097     0.39722
      H   28    0.10066      0.00000     0.39860    0.00073     0.39934
      H   29    0.10009      0.00000     0.39915    0.00076     0.39991
      H   30    0.10690      0.00000     0.39203    0.00107     0.39310
 =======================================================================
   * Total *   -0.00000     15.99402    42.79955    0.20643    59.00000

 Normal termination of Gaussian 16 at Fri Dec 11 01:39:36 2020.
