 Gaussian 16, Revision A.03,

 -----------------------------------------------------------
 # opt freq B3LYP/6-31G(d) empiricaldispersion=gd3bj scf=xqc
 -----------------------------------------------------------

 ------------------------------
 CID_56690115_JID_4390_neutraal
 ------------------------------
 Symbolic Z-matrix:
 Charge =  0 Multiplicity = 1

 SCF Done:  E(RB3LYP) =  -695.105224422     A.U. after   16 cycles
 SCF Done:  E(RB3LYP) =  -695.110440897     A.U. after   14 cycles
 SCF Done:  E(RB3LYP) =  -695.111043731     A.U. after   13 cycles
 SCF Done:  E(RB3LYP) =  -695.111146383     A.U. after   13 cycles
 SCF Done:  E(RB3LYP) =  -695.111497454     A.U. after   12 cycles
 SCF Done:  E(RB3LYP) =  -695.111582203     A.U. after   12 cycles
 SCF Done:  E(RB3LYP) =  -695.111651452     A.U. after   12 cycles
 SCF Done:  E(RB3LYP) =  -695.111679800     A.U. after   10 cycles
 SCF Done:  E(RB3LYP) =  -695.111693826     A.U. after   10 cycles
 SCF Done:  E(RB3LYP) =  -695.111697667     A.U. after    9 cycles
 SCF Done:  E(RB3LYP) =  -695.111698425     A.U. after    9 cycles
 SCF Done:  E(RB3LYP) =  -695.111698724     A.U. after    8 cycles
 SCF Done:  E(RB3LYP) =  -695.111698796     A.U. after    7 cycles
 Optimization completed.
    -- Stationary point found.
 Normal termination of Gaussian 16 at Thu Dec 10 09:23:01 2020.

 --------------------------------------------------------------------
 #N Geom=AllCheck Guess=TCheck SCRF=Check GenChk RB3LYP/6-31G(d) Freq
 --------------------------------------------------------------------

 Structure from the checkpoint file:  "JID_4390.chk"
 ------------------------------
 CID_56690115_JID_4390_neutraal
 ------------------------------
 Charge =  0 Multiplicity = 1

 SCF Done:  E(RB3LYP) =  -695.111698796     A.U. after    1 cycles

  Exact polarizability: 141.546   8.223 114.088 -14.067   3.248  60.873
 Approx polarizability: 210.164  14.353 216.203 -32.391   4.710 105.446

                      1                      2                      3
                      A                      A                      A
 Frequencies --     24.6255                53.9419                84.8995
 Red. masses --      7.1451                 7.7499                 6.2334
 Frc consts  --      0.0026                 0.0133                 0.0265
 IR Inten    --      1.6203                 4.2153                 4.8716

                      4                      5                      6
                      A                      A                      A
 Frequencies --    115.2700               190.3145               243.4638
 Red. masses --      3.4319                 5.2761                 5.2123
 Frc consts  --      0.0269                 0.1126                 0.1820
 IR Inten    --      2.2462                 7.9335                 2.5814

                      7                      8                      9
                      A                      A                      A
 Frequencies --    249.5558               310.1498               378.0736
 Red. masses --      5.6712                 6.7197                 5.3770
 Frc consts  --      0.2081                 0.3808                 0.4528
 IR Inten    --      4.3201                 8.0355                 3.8814

                     10                     11                     12
                      A                      A                      A
 Frequencies --    440.3269               482.1032               488.1963
 Red. masses --      4.1600                 1.2613                 1.5419
 Frc consts  --      0.4752                 0.1727                 0.2165
 IR Inten    --      2.1719               230.9102                76.4608

                     13                     14                     15
                      A                      A                      A
 Frequencies --    519.0874               522.2996               558.5728
 Red. masses --      6.2732                 4.3096                 6.3329
 Frc consts  --      0.9959                 0.6927                 1.1642
 IR Inten    --     19.0979                12.7192                 6.7532

                     16                     17                     18
                      A                      A                      A
 Frequencies --    572.2802               608.0874               623.0471
 Red. masses --      4.0883                 4.6380                 4.3085
 Frc consts  --      0.7889                 1.0104                 0.9854
 IR Inten    --      2.6732                20.5316                 2.3986

                     19                     20                     21
                      A                      A                      A
 Frequencies --    660.5978               669.1283               750.7894
 Red. masses --      8.2292                 1.8100                 7.0043
 Frc consts  --      2.1158                 0.4775                 2.3262
 IR Inten    --      1.6987                10.0289                 3.6266

                     22                     23                     24
                      A                      A                      A
 Frequencies --    783.7827               804.7409               819.0910
 Red. masses --      2.7203                 7.7998                 1.8758
 Frc consts  --      0.9846                 2.9761                 0.7415
 IR Inten    --     19.4869                23.7537                18.6232

                     25                     26                     27
                      A                      A                      A
 Frequencies --    863.5429               941.8209               970.0072
 Red. masses --      3.8499                 7.8556                 1.3863
 Frc consts  --      1.6915                 4.1055                 0.7685
 IR Inten    --      7.4474                 6.7478                 0.0832

                     28                     29                     30
                      A                      A                      A
 Frequencies --    993.1543               999.0444              1042.6629
 Red. masses --      1.3282                 5.3645                 2.5788
 Frc consts  --      0.7719                 3.1546                 1.6518
 IR Inten    --      0.4253                70.3793                23.3818

                     31                     32                     33
                      A                      A                      A
 Frequencies --   1053.2340              1127.8991              1138.0947
 Red. masses --      2.3419                 2.9079                 1.7203
 Frc consts  --      1.5306                 2.1795                 1.3128
 IR Inten    --      2.2884                21.4351                 2.3507

                     34                     35                     36
                      A                      A                      A
 Frequencies --   1147.5717              1168.1633              1289.3588
 Red. masses --      3.8230                 2.4041                 2.1019
 Frc consts  --      2.9663                 1.9329                 2.0588
 IR Inten    --     65.4550                 4.7293                 5.2347

                     37                     38                     39
                      A                      A                      A
 Frequencies --   1291.1837              1305.2791              1335.7099
 Red. masses --      1.5919                 3.2793                 2.7970
 Frc consts  --      1.5637                 3.2918                 2.9401
 IR Inten    --     10.5584                31.6263                15.1221

                     40                     41                     42
                      A                      A                      A
 Frequencies --   1372.5740              1407.7605              1408.2459
 Red. masses --      1.3591                 4.3037                 6.2570
 Frc consts  --      1.5086                 5.0252                 7.3109
 IR Inten    --     26.3951                52.6962                35.4424

                     43                     44                     45
                      A                      A                      A
 Frequencies --   1430.2807              1450.5196              1487.5796
 Red. masses --      2.1634                 3.3077                 1.1804
 Frc consts  --      2.6076                 4.1003                 1.5390
 IR Inten    --     33.9088                 5.9749                 7.9413

                     46                     47                     48
                      A                      A                      A
 Frequencies --   1544.7327              1636.7919              1652.9137
 Red. masses --      3.3456                 7.0844                 7.6029
 Frc consts  --      4.7036                11.1825                12.2386
 IR Inten    --      1.2491                17.0941                33.6003

                     49                     50                     51
                      A                      A                      A
 Frequencies --   1665.9965              1813.1032              3111.2969
 Red. masses --      1.2642                 8.7101                 1.0585
 Frc consts  --      2.0673                16.8702                 6.0371
 IR Inten    --     97.3835               319.3398                 6.8999

                     52                     53                     54
                      A                      A                      A
 Frequencies --   3169.2369              3192.1997              3217.8039
 Red. masses --      1.1090                 1.0899                 1.0899
 Frc consts  --      6.5629                 6.5438                 6.6489
 IR Inten    --      2.2928                12.8703                 4.9689

                     55                     56                     57
                      A                      A                      A
 Frequencies --   3231.3716              3554.8088              3681.9661
 Red. masses --      1.0968                 1.0477                 1.1030
 Frc consts  --      6.7479                 7.8006                 8.8103
 IR Inten    --      8.3796                94.7871               118.0782

 - Thermochemistry -
 -------------------
 Temperature   298.150 Kelvin.  Pressure   1.00000 Atm.
 Atom     1 has atomic number  6 and mass  12.00000

 Molecular mass:   193.05997 amu.
 Principal axes and moments of inertia in atomic units:
                           1         2         3
     Eigenvalues --  1183.289194021.979564594.93931
           X            0.99991   0.01066  -0.00850
           Y           -0.01050   0.99976   0.01935
           Z            0.00870  -0.01926   0.99978
 This molecule is an asymmetric top.
 Rotational symmetry number  1.
 Warning -- assumption of classical behavior for rotation
           may cause significant error
 Rotational temperatures (Kelvin)      0.07320     0.02154     0.01885
 Rotational constants (GHZ):           1.52519     0.44872     0.39277
 Zero-point vibrational energy     404626.9 (Joules/Mol)
                                   96.70815 (Kcal/Mol)
 Warning -- explicit consideration of  17 degrees of freedom as
           vibrations may cause significant error
 Vibrational temperatures:     35.43    77.61   122.15   165.85   273.82
          (Kelvin)            350.29   359.06   446.24   543.96   633.53
                              693.64   702.41   746.85   751.47   803.66
                              823.38   874.90   896.43   950.45   962.73
                             1080.22  1127.69  1157.84  1178.49  1242.45
                             1355.07  1395.62  1428.93  1437.40  1500.16
                             1515.37  1622.80  1637.46  1651.10  1680.73
                             1855.10  1857.73  1878.01  1921.79  1974.83
                             2025.45  2026.15  2057.85  2086.97  2140.30
                             2222.53  2354.98  2378.17  2397.00  2608.65
                             4476.46  4559.82  4592.86  4629.70  4649.22
                             5114.58  5297.53

 Zero-point correction=                           0.154114 (Hartree/Particle)
 Thermal correction to Energy=                    0.165304
 Thermal correction to Enthalpy=                  0.166248
 Thermal correction to Gibbs Free Energy=         0.115326
 Sum of electronic and zero-point Energies=           -694.957585
 Sum of electronic and thermal Energies=              -694.946395
 Sum of electronic and thermal Enthalpies=            -694.945451
 Sum of electronic and thermal Free Energies=         -694.996373

                     E (Thermal)             CV                S
                      KCal/Mol        Cal/Mol-Kelvin    Cal/Mol-Kelvin
 Total                  103.730             42.607            107.174
 Electronic               0.000              0.000              0.000
 Translational            0.889              2.981             41.679
 Rotational               0.889              2.981             31.459
 Vibrational            101.952             36.645             34.037
 Vibration     1          0.593              1.985              6.221
 Vibration     2          0.596              1.976              4.667
 Vibration     3          0.601              1.960              3.774
 Vibration     4          0.608              1.937              3.178
 Vibration     5          0.634              1.853              2.225
 Vibration     6          0.659              1.774              1.777
 Vibration     7          0.662              1.763              1.734
 Vibration     8          0.699              1.654              1.362
 Vibration     9          0.748              1.517              1.047
 Vibration    10          0.800              1.382              0.826
 Vibration    11          0.838              1.290              0.704
 Vibration    12          0.844              1.276              0.688
 Vibration    13          0.874              1.208              0.612
 Vibration    14          0.877              1.201              0.605
 Vibration    15          0.914              1.121              0.527
 Vibration    16          0.928              1.091              0.500
 Vibration    17          0.967              1.015              0.436

                           ! Non-Optimized Parameters !
 Normal termination of Gaussian 16 at Thu Dec 10 09:28:36 2020.

 ----------------------------------------------------------------------
 # B3LYP/6-311++G(d,p) empiricaldispersion=gd3bj scf=xqc pop=npa geom=c
 heck
 ----------------------------------------------------------------------

 --------------------------------------
 CID_56690115_JID_4390_Energie_neutraal
 --------------------------------------
 Structure from the checkpoint file:  "JID_4390.chk"
 Charge =  0 Multiplicity = 1

 SCF Done:  E(RB3LYP) =  -695.308290382     A.U. after   15 cycles
 Normal termination of Gaussian 16 at Thu Dec 10 09:30:51 2020.

 ----------------------------------------------------------------------
 # B3LYP/6-311++G(d,p) empiricaldispersion=gd3bj scf=xqc pop=npa geom=c
 heck
 ----------------------------------------------------------------------

 ------------------------------------
 CID_56690115_JID_4390_Energie_kation
 ------------------------------------
 Structure from the checkpoint file:  "JID_4390.chk"
 Charge =  1 Multiplicity = 2

 SCF Done:  E(UB3LYP) =  -694.971248340     A.U. after   30 cycles
 Normal termination of Gaussian 16 at Thu Dec 10 09:37:11 2020.
 Gaussian 16:  ES64L-G16RevA.03 25-Dec-2016

 ----------------------------------------------------------------------
 # B3LYP/6-311++G(d,p) empiricaldispersion=gd3bj scf=xqc pop=npa geom=c
 heck
 ----------------------------------------------------------------------

 -----------------------------------
 CID_56690115_JID_4390_Energie_anion
 -----------------------------------
 Structure from the checkpoint file:  "JID_4390.chk"
 Charge = -1 Multiplicity = 2

                         Standard orientation:
 ---------------------------------------------------------------------
 Center     Atomic      Atomic             Coordinates (Angstroms)
 Number     Number       Type             X           Y           Z
 ---------------------------------------------------------------------
      1          6           0       -3.553860   -0.535503    0.600246
      2          6           0       -3.056888    0.758059    0.659463
      3          6           0       -1.753046    0.934862    0.176245
      4          6           0       -1.078330   -0.197603   -0.321127
      5          7           0       -1.519228   -1.455209   -0.385061
      6          6           0       -2.761733   -1.589975    0.081435
      7          7           0        0.133206    0.317951   -0.682891
      8          7           0        0.195175    1.650751   -0.448211
      9          7           0       -0.930975    2.037175    0.073263
     10          8           0        1.160754   -0.302434   -1.328030
     11          6           0        1.966400   -1.099976   -0.421569
     12          6           0        2.964444   -0.335379    0.450961
     13          8           0        3.624854   -0.974087    1.257240
     14          7           0        3.091410    0.995494    0.222762
     15          1           0       -4.554392   -0.759429    0.954468
     16          1           0       -3.633050    1.587585    1.055966
     17          1           0       -3.169814   -2.597392    0.051340
     18          1           0        1.321157   -1.712444    0.212263
     19          1           0        2.525409   -1.758663   -1.089476
     20          1           0        2.389343    1.515360   -0.290596
     21          1           0        3.687446    1.507112    0.859388
 ---------------------------------------------------------------------

 SCF Done:  E(UB3LYP) =  -695.335820497     A.U. after   21 cycles

 The electronic state is 2-A.
 Alpha  occ. eigenvalues --  -19.07680 -18.99422 -14.28866 -14.23210 -14.20755
 Alpha  occ. eigenvalues --  -14.17709 -14.14928 -10.17914 -10.13159 -10.09359
 Alpha  occ. eigenvalues --  -10.04741 -10.04620 -10.02816 -10.01977  -1.02263
 Alpha  occ. eigenvalues --   -0.94458  -0.91480  -0.80867  -0.79871  -0.73004
 Alpha  occ. eigenvalues --   -0.65926  -0.63818  -0.61733  -0.52099  -0.50797
 Alpha  occ. eigenvalues --   -0.48906  -0.47389  -0.44133  -0.41497  -0.39789
 Alpha  occ. eigenvalues --   -0.39012  -0.35918  -0.34319  -0.33572  -0.32230
 Alpha  occ. eigenvalues --   -0.31072  -0.29466  -0.27181  -0.26194  -0.24565
 Alpha  occ. eigenvalues --   -0.23628  -0.22159  -0.19951  -0.18133  -0.17980
 Alpha  occ. eigenvalues --   -0.16025  -0.14595  -0.11918  -0.10974  -0.10690
 Alpha  occ. eigenvalues --    0.03822
 Alpha virt. eigenvalues --    0.08486   0.09449   0.09738   0.10980   0.11505
 Alpha virt. eigenvalues --    0.12701   0.13203   0.13997   0.14456   0.15056
 Alpha virt. eigenvalues --    0.15364   0.15575   0.16422   0.17044   0.18248

  Beta  occ. eigenvalues --  -19.07687 -18.99417 -14.28783 -14.23210 -14.20061
  Beta  occ. eigenvalues --  -14.17513 -14.14539 -10.17908 -10.13158 -10.09431
  Beta  occ. eigenvalues --  -10.04787 -10.04345 -10.02902 -10.01482  -1.02102
  Beta  occ. eigenvalues --   -0.94437  -0.90967  -0.80851  -0.79275  -0.72713
  Beta  occ. eigenvalues --   -0.65271  -0.63541  -0.61415  -0.51407  -0.50666
  Beta  occ. eigenvalues --   -0.48628  -0.47288  -0.44061  -0.41212  -0.39556
  Beta  occ. eigenvalues --   -0.38670  -0.35853  -0.34037  -0.33289  -0.32062
  Beta  occ. eigenvalues --   -0.30847  -0.28987  -0.27031  -0.25898  -0.24357
  Beta  occ. eigenvalues --   -0.22158  -0.21582  -0.19387  -0.17943  -0.17189
  Beta  occ. eigenvalues --   -0.15617  -0.14068  -0.10323  -0.09776  -0.09523
  Beta virt. eigenvalues --    0.08480   0.09407   0.09643   0.10837   0.11119
  Beta virt. eigenvalues --    0.11565   0.12666   0.13194   0.14133   0.14975
  Beta virt. eigenvalues --    0.15114   0.15490   0.16433   0.17042   0.17291

 Mulliken charges and spin densities:
               1          2
     1  C   -0.082868  -0.027636
     2  C   -0.339734   0.381767
     3  C    0.080825  -0.060092
     4  C   -0.173371  -0.054447
     5  N   -0.134705   0.170922
     6  C   -0.258102   0.219298
     7  N   -0.423700   0.001006
     8  N   -0.077758   0.312552
     9  N   -0.249779   0.080862
    10  O    0.245757   0.002048
    11  C   -0.297123   0.001744
    12  C    0.108986  -0.000516
    13  O   -0.373516   0.001936
    14  N   -0.382560   0.001671
    15  H    0.110202   0.004820
    16  H    0.124911  -0.029679
    17  H    0.129310  -0.019160
    18  H    0.250456   0.000324
    19  H    0.169379   0.010232
    20  H    0.310049   0.000312
    21  H    0.263340   0.002036
 Sum of Mulliken charges =  -1.00000   1.00000

 Dipole moment (field-independent basis, Debye):
    X=              2.8112    Y=             -0.3012    Z=             -0.4851  Tot=              2.8686
 Quadrupole moment (field-independent basis, Debye-Ang):
   XX=           -113.0326   YY=           -100.9452   ZZ=            -92.9993
   XY=              6.7168   XZ=             -6.0662   YZ=              3.5839

 Summary of Natural Population Analysis:

                                       Natural Population
                Natural  -----------------------------------------------
    Atom  No    Charge         Core      Valence    Rydberg      Total
 -----------------------------------------------------------------------
      C    1   -0.16241      0.99959     2.15397    0.00885     3.16241
      C    2    0.00655      0.99954     1.98489    0.00902     2.99345
      C    3    0.00968      0.99946     1.97546    0.01540     2.99032
      C    4    0.14442      0.99943     1.84045    0.01570     2.85558
      N    5   -0.20911      0.99967     2.69806    0.01138     3.70911
      C    6    0.07342      0.99963     1.91154    0.01541     2.92658
      N    7    0.02061      0.99954     2.46109    0.01876     3.47939
      N    8    0.03696      0.99975     2.44697    0.01632     3.46304
      N    9   -0.12660      0.99973     2.61012    0.01675     3.62660
      O   10   -0.20058      0.99989     3.18907    0.01163     4.20058
      C   11   -0.05311      0.99954     2.04244    0.01113     3.05311
      C   12    0.32299      0.99972     1.65561    0.02167     2.67701
      O   13   -0.32940      0.99988     3.32244    0.00709     4.32940
      N   14   -0.40299      0.99970     2.89617    0.00712     3.90299
      H   15    0.09184      0.00000     0.40696    0.00120     0.40816
      H   16    0.08954      0.00000     0.40887    0.00158     0.41046
      H   17    0.07507      0.00000     0.42359    0.00133     0.42493
      H   18    0.11055      0.00000     0.38823    0.00122     0.38945
      H   19    0.10063      0.00000     0.39834    0.00103     0.39937
      H   20    0.21336      0.00000     0.28274    0.00390     0.28664
      H   21    0.18859      0.00000     0.30869    0.00272     0.31141
 =======================================================================
   * Total *   -0.00000     13.99506    35.80571    0.19923    50.00000

 Normal termination of Gaussian 16 at Thu Dec 10 09:41:43 2020.
