 Gaussian 16, Revision A.03,

 -----------------------------------------------------------
 # opt freq B3LYP/6-31G(d) empiricaldispersion=gd3bj scf=xqc
 -----------------------------------------------------------

 ------------------------------
 CID_55120524_JID_8813_neutraal
 ------------------------------
 Symbolic Z-matrix:
 Charge =  0 Multiplicity = 1

 SCF Done:  E(RB3LYP) =  -783.242252301     A.U. after   14 cycles
 SCF Done:  E(RB3LYP) =  -783.247648769     A.U. after   13 cycles
 SCF Done:  E(RB3LYP) =  -783.248584630     A.U. after   12 cycles
 SCF Done:  E(RB3LYP) =  -783.248833036     A.U. after   12 cycles
 SCF Done:  E(RB3LYP) =  -783.248988874     A.U. after   12 cycles
 SCF Done:  E(RB3LYP) =  -783.249095043     A.U. after   12 cycles
 SCF Done:  E(RB3LYP) =  -783.249176415     A.U. after   12 cycles
 SCF Done:  E(RB3LYP) =  -783.249210507     A.U. after   11 cycles
 SCF Done:  E(RB3LYP) =  -783.249217472     A.U. after   10 cycles
 SCF Done:  E(RB3LYP) =  -783.249236204     A.U. after   10 cycles
 SCF Done:  E(RB3LYP) =  -783.249813188     A.U. after   11 cycles
 SCF Done:  E(RB3LYP) =  -783.249814684     A.U. after    8 cycles
 SCF Done:  E(RB3LYP) =  -783.249814903     A.U. after    8 cycles
 SCF Done:  E(RB3LYP) =  -783.249814953     A.U. after    7 cycles
 SCF Done:  E(RB3LYP) =  -783.249814973     A.U. after    7 cycles
 Optimization completed.
    -- Stationary point found.
 Normal termination of Gaussian 16 at Fri Dec 11 22:21:24 2020.

 --------------------------------------------------------------------
 #N Geom=AllCheck Guess=TCheck SCRF=Check GenChk RB3LYP/6-31G(d) Freq
 --------------------------------------------------------------------

 Structure from the checkpoint file:  "JID_8813.chk"
 ------------------------------
 CID_55120524_JID_8813_neutraal
 ------------------------------
 Charge =  0 Multiplicity = 1

 SCF Done:  E(RB3LYP) =  -783.249814973     A.U. after    1 cycles

  Exact polarizability: 227.706 -11.995 147.435   7.413  -3.444 124.942
 Approx polarizability: 289.434 -23.403 250.723  20.760 -16.354 215.017

                      1                      2                      3
                      A                      A                      A
 Frequencies --     14.8546                31.2486                40.2790
 Red. masses --      4.2809                 3.7929                 5.3401
 Frc consts  --      0.0006                 0.0022                 0.0051
 IR Inten    --      0.4158                 0.3797                 0.0494

                      4                      5                      6
                      A                      A                      A
 Frequencies --     45.9803                67.5786               101.2705
 Red. masses --      5.0559                 3.6522                 2.7616
 Frc consts  --      0.0063                 0.0098                 0.0167
 IR Inten    --      0.1169                 0.1220                 0.3367

                      7                      8                      9
                      A                      A                      A
 Frequencies --    120.4591               181.8637               204.1665
 Red. masses --      3.3609                 4.1403                 4.5632
 Frc consts  --      0.0287                 0.0807                 0.1121
 IR Inten    --      0.3364                 0.4781                 0.2658

                     10                     11                     12
                      A                      A                      A
 Frequencies --    229.5435               247.4958               267.3390
 Red. masses --      3.9876                 1.4553                 2.3388
 Frc consts  --      0.1238                 0.0525                 0.0985
 IR Inten    --      0.8018                 1.6205                10.5765

                     13                     14                     15
                      A                      A                      A
 Frequencies --    297.1429               328.1312               344.9188
 Red. masses --      1.9529                 3.2204                 1.7454
 Frc consts  --      0.1016                 0.2043                 0.1223
 IR Inten    --      6.9519                 5.4064                41.5864

                     16                     17                     18
                      A                      A                      A
 Frequencies --    365.9224               370.1763               419.4302
 Red. masses --      2.9056                 3.2005                 4.7910
 Frc consts  --      0.2292                 0.2584                 0.4966
 IR Inten    --      1.6066                 3.8798                19.9892

                     19                     20                     21
                      A                      A                      A
 Frequencies --    427.0477               466.6640               517.3076
 Red. masses --      3.2274                 3.4284                 2.9523
 Frc consts  --      0.3468                 0.4399                 0.4655
 IR Inten    --      0.0662                 2.5068                 5.4655

                     22                     23                     24
                      A                      A                      A
 Frequencies --    526.8592               565.1714               594.0463
 Red. masses --      2.5207                 4.3785                 4.4625
 Frc consts  --      0.4122                 0.8240                 0.9278
 IR Inten    --      4.4657                 7.4416                11.7261

                     25                     26                     27
                      A                      A                      A
 Frequencies --    631.6788               653.6768               688.0147
 Red. masses --      8.0810                 6.7935                 3.7277
 Frc consts  --      1.8998                 1.7103                 1.0397
 IR Inten    --      1.6712                 1.3139                10.8272

                     28                     29                     30
                      A                      A                      A
 Frequencies --    723.8409               759.0836               783.7550
 Red. masses --      4.2684                 3.2515                 1.6951
 Frc consts  --      1.3176                 1.1039                 0.6135
 IR Inten    --      1.0564                 9.9628                 3.0063

                     31                     32                     33
                      A                      A                      A
 Frequencies --    797.3111               826.3217               831.7217
 Red. masses --      2.0437                 2.4581                 1.3711
 Frc consts  --      0.7655                 0.9889                 0.5588
 IR Inten    --      7.4439                 9.4940                 1.3994

                     34                     35                     36
                      A                      A                      A
 Frequencies --    850.5173               862.9554               875.0322
 Red. masses --      1.6351                 3.2448                 2.6466
 Frc consts  --      0.6969                 1.4237                 1.1939
 IR Inten    --     32.2614                30.2531                 6.6928

                     37                     38                     39
                      A                      A                      A
 Frequencies --    884.0713               928.2460               958.3845
 Red. masses --      2.0282                 1.2730                 1.3074
 Frc consts  --      0.9340                 0.6463                 0.7075
 IR Inten    --      3.8255                 2.2699                 0.2862

                     40                     41                     42
                      A                      A                      A
 Frequencies --    959.8945               975.6817               983.8734
 Red. masses --      1.3586                 1.4326                 1.4510
 Frc consts  --      0.7375                 0.8035                 0.8276
 IR Inten    --      0.8788                45.9099                 0.2539

                     43                     44                     45
                      A                      A                      A
 Frequencies --    985.1537              1007.6391              1034.5776
 Red. masses --      1.8995                 2.2803                 2.7283
 Frc consts  --      1.0862                 1.3641                 1.7205
 IR Inten    --    136.3777                52.9921                 6.6694

                     46                     47                     48
                      A                      A                      A
 Frequencies --   1039.7333              1088.8317              1092.0148
 Red. masses --      5.4275                 2.5277                 2.8431
 Frc consts  --      3.4570                 1.7656                 1.9976
 IR Inten    --     31.0523                23.6803                41.6600

                     49                     50                     51
                      A                      A                      A
 Frequencies --   1100.5208              1130.2235              1149.7888
 Red. masses --      2.0428                 1.9647                 1.3346
 Frc consts  --      1.4577                 1.4787                 1.0395
 IR Inten    --      5.1974                 3.2062                 5.4320

                     52                     53                     54
                      A                      A                      A
 Frequencies --   1186.9148              1189.5912              1209.9010
 Red. masses --      1.9015                 1.8256                 1.2121
 Frc consts  --      1.5782                 1.5221                 1.0455
 IR Inten    --      4.1239                18.2226                83.1127

                     55                     56                     57
                      A                      A                      A
 Frequencies --   1219.8812              1228.4006              1244.6949
 Red. masses --      1.7010                 1.8766                 3.6271
 Frc consts  --      1.4914                 1.6684                 3.3108
 IR Inten    --     10.7296                19.3025                36.8429

                     58                     59                     60
                      A                      A                      A
 Frequencies --   1256.5063              1278.6824              1307.6602
 Red. masses --      2.7549                 2.0954                 1.6874
 Frc consts  --      2.5626                 2.0186                 1.7000
 IR Inten    --     10.2290               183.0439                63.8955

                     61                     62                     63
                      A                      A                      A
 Frequencies --   1314.5332              1332.4727              1344.1268
 Red. masses --      1.6680                 1.4099                 1.3296
 Frc consts  --      1.6982                 1.4749                 1.4153
 IR Inten    --      3.8396                33.9770                 1.8559

                     64                     65                     66
                      A                      A                      A
 Frequencies --   1355.7829              1371.5959              1408.0394
 Red. masses --      1.9639                 2.1996                 1.3955
 Frc consts  --      2.1269                 2.4380                 1.6301
 IR Inten    --     48.7389                57.5626                 3.6806

                     67                     68                     69
                      A                      A                      A
 Frequencies --   1421.2117              1423.8246              1446.9353
 Red. masses --      1.2986                 1.3182                 1.9513
 Frc consts  --      1.5454                 1.5745                 2.4070
 IR Inten    --      9.0695                10.2281                26.0570

                     70                     71                     72
                      A                      A                      A
 Frequencies --   1448.4791              1464.8877              1507.8236
 Red. masses --      1.2707                 3.1235                 1.0796
 Frc consts  --      1.5708                 3.9491                 1.4462
 IR Inten    --     10.3413                 1.2174                 0.9225

                     73                     74                     75
                      A                      A                      A
 Frequencies --   1521.9017              1529.5463              1535.7182
 Red. masses --      2.2060                 1.0526                 1.0554
 Frc consts  --      3.0105                 1.4510                 1.4665
 IR Inten    --     10.6092                 7.4300                10.6952

                     76                     77                     78
                      A                      A                      A
 Frequencies --   1543.3394              1562.6227              1594.4693
 Red. masses --      1.0873                 2.5068                 8.3011
 Frc consts  --      1.5259                 3.6065                12.4341
 IR Inten    --      7.1639               177.1765                 3.0481

                     79                     80                     81
                      A                      A                      A
 Frequencies --   1629.5903              1633.3329              1674.7782
 Red. masses --      5.0257                 6.7444                 5.2072
 Frc consts  --      7.8632                10.6010                 8.6053
 IR Inten    --      1.6236                 9.6379                78.1889

                     82                     83                     84
                      A                      A                      A
 Frequencies --   1700.2552              3024.1135              3037.6205
 Red. masses --      1.1162                 1.0837                 1.0627
 Frc consts  --      1.9012                 5.8393                 5.7771
 IR Inten    --     23.8625                26.4188                29.0265

                     85                     86                     87
                      A                      A                      A
 Frequencies --   3052.9061              3060.8158              3077.8588
 Red. masses --      1.0377                 1.0611                 1.0967
 Frc consts  --      5.6982                 5.8569                 6.1213
 IR Inten    --     21.3505                41.5869                30.4033

                     88                     89                     90
                      A                      A                      A
 Frequencies --   3105.2614              3116.1099              3135.7752
 Red. masses --      1.1077                 1.1020                 1.1016
 Frc consts  --      6.2933                 6.3047                 6.3824
 IR Inten    --     27.8561                59.6367                35.2319

                     91                     92                     93
                      A                      A                      A
 Frequencies --   3172.2782              3175.3357              3192.0118
 Red. masses --      1.0909                 1.0874                 1.0876
 Frc consts  --      6.4681                 6.4601                 6.5288
 IR Inten    --     28.5262                 4.5414                14.7491

                     94                     95                     96
                      A                      A                      A
 Frequencies --   3195.0993              3215.6247              3221.0214
 Red. masses --      1.0969                 1.0933                 1.0874
 Frc consts  --      6.5975                 6.6608                 6.6473
 IR Inten    --     40.7799                 9.7448                 3.0138

                     97                     98                     99
                      A                      A                      A
 Frequencies --   3236.3293              3455.2964              3540.7217
 Red. masses --      1.0922                 1.0498                 1.0917
 Frc consts  --      6.7403                 7.3847                 8.0637
 IR Inten    --     16.7650                 1.8462                 2.9098

 - Thermochemistry -
 -------------------
 Temperature   298.150 Kelvin.  Pressure   1.00000 Atm.
 Atom     1 has atomic number  6 and mass  12.00000

 Molecular mass:   243.13716 amu.
 Principal axes and moments of inertia in atomic units:
                           1         2         3
     Eigenvalues --  1601.35673********************
           X            0.99999  -0.00253  -0.00315
           Y            0.00257   0.99993   0.01157
           Z            0.00312  -0.01158   0.99993
 This molecule is an asymmetric top.
 Rotational symmetry number  1.
 Warning -- assumption of classical behavior for rotation
           may cause significant error
 Rotational temperatures (Kelvin)      0.05409     0.00837     0.00789
 Rotational constants (GHZ):           1.12701     0.17444     0.16444
 Zero-point vibrational energy     773260.9 (Joules/Mol)
                                  184.81378 (Kcal/Mol)
 Warning -- explicit consideration of  24 degrees of freedom as
           vibrations may cause significant error
 Vibrational temperatures:     21.37    44.96    57.95    66.16    97.23
          (Kelvin)            145.71   173.31   261.66   293.75   330.26
                              356.09   384.64   427.52   472.11   496.26
                              526.48   532.60   603.47   614.43   671.43
                              744.29   758.03   813.16   854.70   908.84
                              940.50   989.90  1041.45  1092.15  1127.65
                             1147.15  1188.89  1196.66  1223.70  1241.60
                             1258.98  1271.98  1335.54  1378.90  1381.07
                             1403.79  1415.57  1417.42  1449.77  1488.53
                             1495.94  1566.59  1571.17  1583.40  1626.14
                             1654.29  1707.71  1711.56  1740.78  1755.14
                             1767.39  1790.84  1807.83  1839.74  1881.43
                             1891.32  1917.13  1933.90  1950.67  1973.42
                             2025.85  2044.81  2048.57  2081.82  2084.04
                             2107.65  2169.42  2189.68  2200.68  2209.56
                             2220.52  2248.27  2294.09  2344.62  2350.00
                             2409.63  2446.29  4351.02  4370.46  4392.45
                             4403.83  4428.35  4467.78  4483.39  4511.68
                             4564.20  4568.60  4592.59  4597.04  4626.57
                             4634.33  4656.36  4971.40  5094.31

 Zero-point correction=                           0.294520 (Hartree/Particle)
 Thermal correction to Energy=                    0.310985
 Thermal correction to Enthalpy=                  0.311929
 Thermal correction to Gibbs Free Energy=         0.247715
 Sum of electronic and zero-point Energies=           -782.955295
 Sum of electronic and thermal Energies=              -782.938830
 Sum of electronic and thermal Enthalpies=            -782.937886
 Sum of electronic and thermal Free Energies=         -783.002100

                     E (Thermal)             CV                S
                      KCal/Mol        Cal/Mol-Kelvin    Cal/Mol-Kelvin
 Total                  195.146             62.764            135.151
 Electronic               0.000              0.000              0.000
 Translational            0.889              2.981             42.366
 Rotational               0.889              2.981             33.563
 Vibrational            193.369             56.802             59.221
 Vibration     1          0.593              1.986              7.225
 Vibration     2          0.594              1.983              5.749
 Vibration     3          0.594              1.981              5.245
 Vibration     4          0.595              1.979              4.983
 Vibration     5          0.598              1.970              4.223
 Vibration     6          0.604              1.948              3.430
 Vibration     7          0.609              1.932              3.093
 Vibration     8          0.630              1.864              2.309
 Vibration     9          0.640              1.834              2.095
 Vibration    10          0.652              1.796              1.883
 Vibration    11          0.661              1.767              1.748
 Vibration    12          0.672              1.733              1.613
 Vibration    13          0.691              1.679              1.433
 Vibration    14          0.711              1.619              1.269
 Vibration    15          0.723              1.586              1.189
 Vibration    16          0.739              1.542              1.097
 Vibration    17          0.742              1.533              1.079
 Vibration    18          0.782              1.428              0.894
 Vibration    19          0.789              1.411              0.868
 Vibration    20          0.824              1.324              0.747
 Vibration    21          0.872              1.212              0.616
 Vibration    22          0.882              1.191              0.594
 Vibration    23          0.921              1.107              0.514
 Vibration    24          0.952              1.044              0.460

 Optimization completed.
    -- Stationary point found.
 Normal termination of Gaussian 16 at Fri Dec 11 22:34:22 2020.

 ----------------------------------------------------------------------
 # B3LYP/6-311++G(d,p) empiricaldispersion=gd3bj scf=xqc pop=npa geom=c
 heck
 ----------------------------------------------------------------------

 --------------------------------------
 CID_55120524_JID_8813_Energie_neutraal
 --------------------------------------
 Structure from the checkpoint file:  "JID_8813.chk"
 Charge =  0 Multiplicity = 1

 SCF Done:  E(RB3LYP) =  -783.462891655     A.U. after   15 cycles
 Normal termination of Gaussian 16 at Fri Dec 11 22:39:22 2020.

 ----------------------------------------------------------------------
 # B3LYP/6-311++G(d,p) empiricaldispersion=gd3bj scf=xqc pop=npa geom=c
 heck
 ----------------------------------------------------------------------

 ------------------------------------
 CID_55120524_JID_8813_Energie_kation
 ------------------------------------
 Structure from the checkpoint file:  "JID_8813.chk"
 Charge =  1 Multiplicity = 2

 SCF Done:  E(UB3LYP) =  -783.181073421     A.U. after   24 cycles
 Normal termination of Gaussian 16 at Fri Dec 11 22:50:10 2020.
 Gaussian 16:  ES64L-G16RevA.03 25-Dec-2016

 ----------------------------------------------------------------------
 # B3LYP/6-311++G(d,p) empiricaldispersion=gd3bj scf=xqc pop=npa geom=c
 heck
 ----------------------------------------------------------------------

 -----------------------------------
 CID_55120524_JID_8813_Energie_anion
 -----------------------------------
 Structure from the checkpoint file:  "JID_8813.chk"
 Charge = -1 Multiplicity = 2

                         Standard orientation:
 ---------------------------------------------------------------------
 Center     Atomic      Atomic             Coordinates (Angstroms)
 Number     Number       Type             X           Y           Z
 ---------------------------------------------------------------------
      1          6           0       -5.087800    0.832534    0.988277
      2          6           0       -5.513291   -0.346711    0.110771
      3          6           0       -4.472393   -0.793366   -0.913341
      4          8           0       -3.314538   -1.349807   -0.285641
      5          6           0       -2.160792   -0.630726   -0.153879
      6          6           0       -1.997486    0.722615   -0.466791
      7          6           0       -0.754793    1.333346   -0.287058
      8          6           0        0.343247    0.624874    0.202207
      9          6           0        0.163462   -0.729236    0.517851
     10          6           0       -1.065705   -1.350685    0.343879
     11          6           0        1.680355    1.328656    0.431371
     12          6           0        2.848701    0.378984    0.205010
     13          7           0        3.175854    0.115122   -1.069267
     14          6           0        4.196304   -0.720803   -1.268165
     15          6           0        4.898509   -1.298297   -0.206926
     16          7           0        4.590146   -1.034757    1.066329
     17          6           0        3.566836   -0.194984    1.259545
     18          7           0        1.773010    2.535915   -0.398034
     19          1           0       -4.172738    0.603505    1.542578
     20          1           0       -5.870475    1.075773    1.714982
     21          1           0       -4.899912    1.731123    0.389066
     22          1           0       -5.753867   -1.210496    0.743013
     23          1           0       -6.431148   -0.094476   -0.438425
     24          1           0       -4.882207   -1.604988   -1.524100
     25          1           0       -4.195902    0.020708   -1.592266
     26          1           0       -2.823802    1.317452   -0.835146
     27          1           0       -0.631905    2.383845   -0.525533
     28          1           0        0.995476   -1.315711    0.896804
     29          1           0       -1.202600   -2.401117    0.579497
     30          1           0        1.721892    1.659285    1.479065
     31          1           0        4.465418   -0.937177   -2.300174
     32          1           0        5.726261   -1.980585   -0.387229
     33          1           0        3.306077    0.031833    2.292043
     34          1           0        2.626482    3.037129   -0.153972
     35          1           0        1.895253    2.231177   -1.364772
 ---------------------------------------------------------------------

 SCF Done:  E(UB3LYP) =  -783.469222917     A.U. after   33 cycles
 SCF Done:  E(UB3LYP) =  -783.469222917     a.u. after    1 cycles

 The electronic state is 2-A.
 Alpha  occ. eigenvalues --  -19.05672 -14.18382 -14.15847 -14.15772 -10.13885
 Alpha  occ. eigenvalues --  -10.13450 -10.09474 -10.08827 -10.07747 -10.07232
 Alpha  occ. eigenvalues --  -10.07002 -10.06915 -10.06856 -10.06802 -10.06690
 Alpha  occ. eigenvalues --  -10.06520 -10.06449 -10.06329  -0.97202  -0.83325
 Alpha  occ. eigenvalues --   -0.78689  -0.75433  -0.74844  -0.70550  -0.65828
 Alpha  occ. eigenvalues --   -0.64805  -0.63375  -0.60362  -0.55820  -0.53050
 Alpha  occ. eigenvalues --   -0.51429  -0.50235  -0.49291  -0.46579  -0.44407
 Alpha  occ. eigenvalues --   -0.40156  -0.39587  -0.38032  -0.37649  -0.36744
 Alpha  occ. eigenvalues --   -0.35862  -0.35377  -0.34677  -0.33389  -0.33032
 Alpha  occ. eigenvalues --   -0.31846  -0.30786  -0.30065  -0.28863  -0.28386
 Alpha  occ. eigenvalues --   -0.27728  -0.26901  -0.26520  -0.25600  -0.25055
 Alpha  occ. eigenvalues --   -0.24531  -0.22830  -0.21513  -0.19174  -0.16391
 Alpha  occ. eigenvalues --   -0.15452  -0.14865  -0.12752  -0.11805  -0.10354
 Alpha  occ. eigenvalues --    0.03957
 Alpha virt. eigenvalues --    0.04959   0.07179   0.07606   0.08136   0.08611
 Alpha virt. eigenvalues --    0.08902   0.09070   0.09753   0.10171   0.10460
 Alpha virt. eigenvalues --    0.10955   0.11184   0.11396   0.11592   0.12136

  Beta  occ. eigenvalues --  -19.05672 -14.18372 -14.15293 -14.15185 -10.13876
  Beta  occ. eigenvalues --  -10.13439 -10.09477 -10.08807 -10.07735 -10.07233
  Beta  occ. eigenvalues --  -10.06974 -10.06908 -10.06852 -10.06797 -10.06681
  Beta  occ. eigenvalues --  -10.06473 -10.06419 -10.06287  -0.97197  -0.82658
  Beta  occ. eigenvalues --   -0.78526  -0.75021  -0.74327  -0.70523  -0.65751
  Beta  occ. eigenvalues --   -0.64784  -0.63150  -0.60309  -0.55663  -0.52982
  Beta  occ. eigenvalues --   -0.50945  -0.50183  -0.49123  -0.46440  -0.44392
  Beta  occ. eigenvalues --   -0.40091  -0.39526  -0.37906  -0.37591  -0.36513
  Beta  occ. eigenvalues --   -0.35805  -0.35293  -0.34607  -0.33317  -0.32978
  Beta  occ. eigenvalues --   -0.31821  -0.30750  -0.30011  -0.28816  -0.27696
  Beta  occ. eigenvalues --   -0.27263  -0.26862  -0.26312  -0.25550  -0.24874
  Beta  occ. eigenvalues --   -0.24274  -0.22813  -0.21473  -0.16782  -0.15657
  Beta  occ. eigenvalues --   -0.15352  -0.14403  -0.11998  -0.11751  -0.09780
  Beta virt. eigenvalues --    0.05721   0.07431   0.07650   0.08115   0.08621
  Beta virt. eigenvalues --    0.08941   0.09021   0.09677   0.10125   0.10394
  Beta virt. eigenvalues --    0.10510   0.10926   0.11178   0.11532   0.11571

 Mulliken charges and spin densities:
               1          2
     1  C   -0.404558  -0.092733
     2  C    0.685280  -0.855028
     3  C   -0.289378   0.040364
     4  O   -0.045442   0.001498
     5  C   -0.737035   0.273265
     6  C    0.664843  -0.297376
     7  C    0.143307  -0.277950
     8  C    0.275067  -0.064707
     9  C   -0.388879   0.085154
    10  C   -0.802610   0.247865
    11  C   -0.202187  -0.028264
    12  C   -0.301508  -0.027573
    13  N   -0.019389   0.235839
    14  C    0.026628   0.103220
    15  C   -0.189402   0.034052
    16  N   -0.072124   0.248805
    17  C   -0.463297   0.065677
    18  N   -0.284960  -0.026961
    19  H    0.158447  -0.003469
    20  H   -0.146049   0.287532
    21  H    0.078404   0.059836
    22  H    0.089067   0.057447
    23  H   -0.357001   0.491004
    24  H   -0.073243   0.254131
    25  H   -0.023151   0.145740
    26  H    0.178246  -0.037983
    27  H    0.170341   0.043845
    28  H    0.171377   0.006968
    29  H    0.177140  -0.003902
    30  H    0.171194   0.027841
    31  H    0.126479  -0.004172
    32  H    0.123683  -0.004746
    33  H    0.123968  -0.001135
    34  H    0.210875   0.023639
    35  H    0.225871  -0.007724
 Sum of Mulliken charges =  -1.00000   1.00000

 Dipole moment (field-independent basis, Debye):
    X=             -2.7828    Y=              0.9802    Z=             -0.2103  Tot=              2.9578
 Quadrupole moment (field-independent basis, Debye-Ang):
   XX=           -218.9965   YY=           -126.9922   ZZ=           -125.1698
   XY=              6.6724   XZ=             -6.3801   YZ=              1.2741

 Summary of Natural Population Analysis:

                                       Natural Population
                Natural  -----------------------------------------------
    Atom  No    Charge         Core      Valence    Rydberg      Total
 -----------------------------------------------------------------------
      C    1   -0.29041      0.99966     2.28442    0.00633     3.29041
      C    2   -0.20253      0.99964     2.19452    0.00837     3.20253
      C    3   -0.00847      0.99956     1.99615    0.01276     3.00847
      O    4   -0.28317      0.99985     3.27389    0.00942     4.28317
      C    5    0.15787      0.99937     1.83095    0.01181     2.84213
      C    6   -0.14697      0.99952     2.14045    0.00700     3.14697
      C    7   -0.09120      0.99952     2.08292    0.00876     3.09120
      C    8   -0.02330      0.99949     2.01321    0.01060     3.02330
      C    9   -0.08795      0.99952     2.08118    0.00724     3.08795
      C   10   -0.12160      0.99953     2.11352    0.00856     3.12160
      C   11   -0.02802      0.99953     2.01477    0.01372     3.02802
      C   12    0.07723      0.99952     1.90470    0.01855     2.92277
      N   13   -0.17070      0.99967     2.65617    0.01486     3.67070
      C   14    0.01254      0.99960     1.97432    0.01354     2.98746
      C   15   -0.00660      0.99960     1.99281    0.01419     3.00660
      N   16   -0.14764      0.99971     2.63548    0.01245     3.64764
      C   17   -0.00045      0.99952     1.98539    0.01554     3.00045
      N   18   -0.42178      0.99978     2.91320    0.00880     3.92178
      H   19    0.10383      0.00000     0.39511    0.00106     0.39617
      H   20    0.09881      0.00000     0.40042    0.00077     0.40119
      H   21    0.09563      0.00000     0.40343    0.00095     0.40437
      H   22    0.09682      0.00000     0.40206    0.00112     0.40318
      H   23    0.09804      0.00000     0.39985    0.00211     0.40196
      H   24    0.09018      0.00000     0.40871    0.00112     0.40982
      H   25    0.08415      0.00000     0.41439    0.00146     0.41585
      H   26    0.09937      0.00000     0.39895    0.00168     0.40063
      H   27    0.11136      0.00000     0.38731    0.00133     0.38864
      H   28    0.10880      0.00000     0.39007    0.00112     0.39120
      H   29    0.10235      0.00000     0.39640    0.00126     0.39765
      H   30    0.09479      0.00000     0.40328    0.00193     0.40521
      H   31    0.08105      0.00000     0.41757    0.00137     0.41895
      H   32    0.08101      0.00000     0.41755    0.00144     0.41899
      H   33    0.08154      0.00000     0.41620    0.00226     0.41846
      H   34    0.17365      0.00000     0.32472    0.00162     0.32635
      H   35    0.18176      0.00000     0.31616    0.00208     0.31824
 =======================================================================
   * Total *    0.00000     17.99261    46.78021    0.22718    65.00000

 Normal termination of Gaussian 16 at Fri Dec 11 23:05:18 2020.
