 Gaussian 16, Revision A.03,

 -----------------------------------------------------------
 # opt freq B3LYP/6-31G(d) empiricaldispersion=gd3bj scf=xqc
 -----------------------------------------------------------

 ------------------------------
 CID_84164875_JID_8927_neutraal
 ------------------------------
 Symbolic Z-matrix:
 Charge =  0 Multiplicity = 1

 SCF Done:  E(RB3LYP) =  -840.275557520     A.U. after   15 cycles
 SCF Done:  E(RB3LYP) =  -840.282776929     A.U. after   13 cycles
 SCF Done:  E(RB3LYP) =  -840.282459117     A.U. after   13 cycles
 SCF Done:  E(RB3LYP) =  -840.283634105     A.U. after   12 cycles
 SCF Done:  E(RB3LYP) =  -840.283853320     A.U. after   11 cycles
 SCF Done:  E(RB3LYP) =  -840.284002290     A.U. after   11 cycles
 SCF Done:  E(RB3LYP) =  -840.284056287     A.U. after   11 cycles
 SCF Done:  E(RB3LYP) =  -840.284093064     A.U. after   10 cycles
 SCF Done:  E(RB3LYP) =  -840.284111407     A.U. after   10 cycles
 SCF Done:  E(RB3LYP) =  -840.284125428     A.U. after   10 cycles
 SCF Done:  E(RB3LYP) =  -840.287701161     A.U. after   10 cycles
 SCF Done:  E(RB3LYP) =  -840.287701603     A.U. after    9 cycles
 SCF Done:  E(RB3LYP) =  -840.287701744     A.U. after    8 cycles
 SCF Done:  E(RB3LYP) =  -840.287701780     A.U. after    6 cycles
 SCF Done:  E(RB3LYP) =  -840.287701786     A.U. after    6 cycles
 Optimization completed.
    -- Stationary point found.
 Normal termination of Gaussian 16 at Fri Dec 11 23:28:31 2020.

 --------------------------------------------------------------------
 #N Geom=AllCheck Guess=TCheck SCRF=Check GenChk RB3LYP/6-31G(d) Freq
 --------------------------------------------------------------------

 Structure from the checkpoint file:  "JID_8927.chk"
 ------------------------------
 CID_84164875_JID_8927_neutraal
 ------------------------------
 Charge =  0 Multiplicity = 1

 SCF Done:  E(RB3LYP) =  -840.287701786     A.U. after    1 cycles

  Exact polarizability: 193.043   5.180 164.365   7.684 -18.301 102.372
 Approx polarizability: 264.419   8.358 251.056  14.416 -42.144 171.676

                      1                      2                      3
                      A                      A                      A
 Frequencies --     27.9666                28.9985                31.9782
 Red. masses --      9.6759                 3.4818                 1.1122
 Frc consts  --      0.0045                 0.0017                 0.0007
 IR Inten    --      1.1092                 0.3884                 0.1376

                      4                      5                      6
                      A                      A                      A
 Frequencies --     36.3449                63.1558                81.5525
 Red. masses --      5.8351                 6.7455                 4.1039
 Frc consts  --      0.0045                 0.0159                 0.0161
 IR Inten    --      0.5019                 0.8377                 0.3217

                      7                      8                      9
                      A                      A                      A
 Frequencies --    120.9958               142.6282               179.2900
 Red. masses --      2.6149                 4.3529                 5.2355
 Frc consts  --      0.0226                 0.0522                 0.0992
 IR Inten    --      6.3555                 0.3512                 8.0469

                     10                     11                     12
                      A                      A                      A
 Frequencies --    199.5797               216.5063               222.8546
 Red. masses --      4.0375                 3.0836                 3.5459
 Frc consts  --      0.0948                 0.0852                 0.1038
 IR Inten    --      1.1371                 1.5319                 1.9152

                     13                     14                     15
                      A                      A                      A
 Frequencies --    265.2845               306.1858               353.4091
 Red. masses --      4.3801                 3.0660                 3.7160
 Frc consts  --      0.1816                 0.1694                 0.2734
 IR Inten    --      1.1685                 3.6474                 3.4094

                     16                     17                     18
                      A                      A                      A
 Frequencies --    375.8298               425.8426               451.3248
 Red. masses --      4.5496                 4.1574                 3.0319
 Frc consts  --      0.3786                 0.4442                 0.3639
 IR Inten    --     13.2574                 6.5480                 3.4863

                     19                     20                     21
                      A                      A                      A
 Frequencies --    470.9609               506.6986               515.7579
 Red. masses --      3.8717                 1.9662                 1.7655
 Frc consts  --      0.5060                 0.2974                 0.2767
 IR Inten    --     11.9012                27.1205                47.6857

                     22                     23                     24
                      A                      A                      A
 Frequencies --    523.6663               543.5720               564.2094
 Red. masses --      2.8411                 4.4970                 3.2950
 Frc consts  --      0.4590                 0.7829                 0.6180
 IR Inten    --      2.0658                11.9569                 5.5914

                     25                     26                     27
                      A                      A                      A
 Frequencies --    584.5160               600.2765               640.7136
 Red. masses --      3.9286                 5.5932                 3.0948
 Frc consts  --      0.7908                 1.1874                 0.7485
 IR Inten    --      6.4193                 1.6543                 3.5230

                     28                     29                     30
                      A                      A                      A
 Frequencies --    653.1130               684.7694               705.5721
 Red. masses --      2.5687                 1.4545                 2.1655
 Frc consts  --      0.6456                 0.4018                 0.6352
 IR Inten    --     93.4951                83.5383                12.7211

                     31                     32                     33
                      A                      A                      A
 Frequencies --    717.4725               784.2460               796.7561
 Red. masses --      4.9833                 1.5025                 4.7282
 Frc consts  --      1.5114                 0.5445                 1.7685
 IR Inten    --      6.6409                37.2125                 0.5796

                     34                     35                     36
                      A                      A                      A
 Frequencies --    838.1739               851.0749               869.7134
 Red. masses --      2.5843                 1.3886                 1.4793
 Frc consts  --      1.0697                 0.5926                 0.6593
 IR Inten    --     16.4948                 6.7506                 3.6691

                     37                     38                     39
                      A                      A                      A
 Frequencies --    891.3120               899.8676               925.4156
 Red. masses --      3.1155                 3.4873                 2.6124
 Frc consts  --      1.4583                 1.6638                 1.3181
 IR Inten    --      4.5578                 0.5658                 3.3161

                     40                     41                     42
                      A                      A                      A
 Frequencies --    963.8791               994.5933              1013.6641
 Red. masses --      1.2611                 2.5649                 4.1984
 Frc consts  --      0.6903                 1.4949                 2.5417
 IR Inten    --      0.1519                21.5075                13.5581

                     43                     44                     45
                      A                      A                      A
 Frequencies --   1020.5556              1027.5627              1039.5645
 Red. masses --      2.1021                 1.9433                 2.3472
 Frc consts  --      1.2899                 1.2089                 1.4945
 IR Inten    --     10.8313                16.6683                54.5315

                     46                     47                     48
                      A                      A                      A
 Frequencies --   1061.4775              1073.5079              1119.5514
 Red. masses --      2.2418                 1.5131                 2.3555
 Frc consts  --      1.4882                 1.0274                 1.7395
 IR Inten    --     15.7148                 8.1329                 1.3941

                     49                     50                     51
                      A                      A                      A
 Frequencies --   1135.6842              1141.9349              1175.6859
 Red. masses --      1.7235                 1.7011                 2.4243
 Frc consts  --      1.3097                 1.3069                 1.9743
 IR Inten    --      9.8243                22.6689               264.5085

                     52                     53                     54
                      A                      A                      A
 Frequencies --   1219.4371              1220.1189              1231.6363
 Red. masses --      1.1638                 1.4727                 2.6377
 Frc consts  --      1.0196                 1.2918                 2.3575
 IR Inten    --      1.1722                19.5705                35.1431

                     55                     56                     57
                      A                      A                      A
 Frequencies --   1249.7133              1277.4895              1298.5378
 Red. masses --      1.5878                 1.1637                 1.3208
 Frc consts  --      1.4611                 1.1190                 1.3122
 IR Inten    --     11.8898                19.9262                 9.2118

                     58                     59                     60
                      A                      A                      A
 Frequencies --   1311.6541              1342.2194              1344.4653
 Red. masses --      1.5847                 2.2313                 3.3453
 Frc consts  --      1.6063                 2.3684                 3.5627
 IR Inten    --     28.7541                 9.8823               162.3619

                     61                     62                     63
                      A                      A                      A
 Frequencies --   1364.6715              1369.7372              1385.8618
 Red. masses --      1.4854                 2.1780                 1.7181
 Frc consts  --      1.6298                 2.4076                 1.9441
 IR Inten    --     32.9746                53.1651                27.4891

                     64                     65                     66
                      A                      A                      A
 Frequencies --   1390.3190              1420.4224              1431.8390
 Red. masses --      1.6543                 2.0624                 1.4967
 Frc consts  --      1.8841                 2.4516                 1.8079
 IR Inten    --      1.4089                46.4060                58.1000

                     67                     68                     69
                      A                      A                      A
 Frequencies --   1439.4562              1442.3312              1483.1669
 Red. masses --      1.7255                 1.2599                 1.2357
 Frc consts  --      2.1065                 1.5442                 1.6015
 IR Inten    --     80.3567                 0.6685                 9.1748

                     70                     71                     72
                      A                      A                      A
 Frequencies --   1488.1652              1496.7536              1516.5187
 Red. masses --      1.9177                 1.8703                 1.0548
 Frc consts  --      2.5022                 2.4686                 1.4293
 IR Inten    --     35.6568                35.0294                 5.1243

                     73                     74                     75
                      A                      A                      A
 Frequencies --   1523.3654              1530.0140              1549.2308
 Red. masses --      1.1122                 1.3669                 1.2042
 Frc consts  --      1.5207                 1.8852                 1.7029
 IR Inten    --     31.3288                 4.4712                45.1773

                     76                     77                     78
                      A                      A                      A
 Frequencies --   1553.4620              1641.5762              1668.2333
 Red. masses --      1.9745                 5.2820                 5.5026
 Frc consts  --      2.8075                 8.3864                 9.0226
 IR Inten    --     53.9350                32.4096               139.7789

                     79                     80                     81
                      A                      A                      A
 Frequencies --   1807.5801              1832.5580              3011.7010
 Red. masses --      8.8400                 9.4728                 1.0695
 Frc consts  --     17.0175                18.7432                 5.7153
 IR Inten    --    382.5131               249.7622                28.5713

                     82                     83                     84
                      A                      A                      A
 Frequencies --   3039.5164              3043.5091              3071.3001
 Red. masses --      1.0714                 1.0387                 1.0632
 Frc consts  --      5.8317                 5.6689                 5.9088
 IR Inten    --     44.4037                32.3362                 1.9267

                     85                     86                     87
                      A                      A                      A
 Frequencies --   3072.4061              3099.0121              3109.6837
 Red. masses --      1.0903                 1.0980                 1.0995
 Frc consts  --      6.0637                 6.2128                 6.2642
 IR Inten    --     16.6217                20.2226                 1.2116

                     88                     89                     90
                      A                      A                      A
 Frequencies --   3124.7332              3135.4554              3136.4580
 Red. masses --      1.1023                 1.0901                 1.0899
 Frc consts  --      6.3413                 6.3142                 6.3171
 IR Inten    --     18.0937                 9.2141                10.1399

                     91                     92                     93
                      A                      A                      A
 Frequencies --   3181.8117              3199.0013              3216.6541
 Red. masses --      1.0865                 1.0942                 1.0878
 Frc consts  --      6.4806                 6.5975                 6.6317
 IR Inten    --      7.1866                34.2603                12.1362

                     94                     95                     96
                      A                      A                      A
 Frequencies --   3239.7495              3600.9776              3678.8751
 Red. masses --      1.0906                 1.0766                 1.0639
 Frc consts  --      6.7446                 8.2251                 8.4840
 IR Inten    --     10.3411                27.7854                47.8107

 - Thermochemistry -
 -------------------
 Temperature   298.150 Kelvin.  Pressure   1.00000 Atm.
 Atom     1 has atomic number  6 and mass  12.00000

 Molecular mass:   248.11609 amu.
 Principal axes and moments of inertia in atomic units:
                           1         2         3
     Eigenvalues --  3569.138325676.770338351.05319
           X            0.99992   0.01227   0.00353
           Y           -0.01225   0.99991  -0.00454
           Z           -0.00358   0.00450   0.99998
 This molecule is an asymmetric top.
 Rotational symmetry number  1.
 Warning -- assumption of classical behavior for rotation
           may cause significant error
 Rotational temperatures (Kelvin)      0.02427     0.01526     0.01037
 Rotational constants (GHZ):           0.50565     0.31792     0.21611
 Zero-point vibrational energy     739630.9 (Joules/Mol)
                                  176.77602 (Kcal/Mol)
 Warning -- explicit consideration of  26 degrees of freedom as
           vibrations may cause significant error
 Vibrational temperatures:     40.24    41.72    46.01    52.29    90.87
          (Kelvin)            117.34   174.09   205.21   257.96   287.15
                              311.50   320.64   381.69   440.53   508.48
                              540.74   612.69   649.36   677.61   729.03
                              742.06   753.44   782.08   811.77   840.99
                              863.66   921.84   939.68   985.23  1015.16
                             1032.28  1128.36  1146.35  1205.95  1224.51
                             1251.32  1282.40  1294.71  1331.47  1386.81
                             1431.00  1458.44  1468.35  1478.43  1495.70
                             1527.23  1544.54  1610.78  1634.00  1642.99
                             1691.55  1754.50  1755.48  1772.05  1798.06
                             1838.02  1868.31  1887.18  1931.15  1934.39
                             1963.46  1970.75  1993.95  2000.36  2043.67
                             2060.10  2071.06  2075.19  2133.95  2141.14
                             2153.49  2181.93  2191.78  2201.35  2229.00
                             2235.09  2361.86  2400.22  2600.70  2636.64
                             4333.17  4373.19  4378.93  4418.92  4420.51
                             4458.79  4474.14  4495.79  4511.22  4512.66
                             4577.92  4602.65  4628.05  4661.28  5181.00
                             5293.08

 Zero-point correction=                           0.281711 (Hartree/Particle)
 Thermal correction to Energy=                    0.298585
 Thermal correction to Enthalpy=                  0.299529
 Thermal correction to Gibbs Free Energy=         0.234295
 Sum of electronic and zero-point Energies=           -840.005991
 Sum of electronic and thermal Energies=              -839.989117
 Sum of electronic and thermal Enthalpies=            -839.988173
 Sum of electronic and thermal Free Energies=         -840.053407

                     E (Thermal)             CV                S
                      KCal/Mol        Cal/Mol-Kelvin    Cal/Mol-Kelvin
 Total                  187.365             63.229            137.297
 Electronic               0.000              0.000              0.000
 Translational            0.889              2.981             42.427
 Rotational               0.889              2.981             33.492
 Vibrational            185.587             57.267             61.378
 Vibration     1          0.593              1.984              5.969
 Vibration     2          0.593              1.984              5.897
 Vibration     3          0.594              1.983              5.703
 Vibration     4          0.594              1.982              5.449
 Vibration     5          0.597              1.972              4.356
 Vibration     6          0.600              1.962              3.853
 Vibration     7          0.609              1.932              3.084
 Vibration     8          0.616              1.911              2.768
 Vibration     9          0.629              1.868              2.336
 Vibration    10          0.638              1.840              2.137
 Vibration    11          0.645              1.816              1.988
 Vibration    12          0.649              1.806              1.936
 Vibration    13          0.671              1.737              1.627
 Vibration    14          0.697              1.662              1.383
 Vibration    15          0.730              1.568              1.151
 Vibration    16          0.747              1.522              1.056
 Vibration    17          0.788              1.414              0.872
 Vibration    18          0.810              1.358              0.792
 Vibration    19          0.828              1.314              0.735
 Vibration    20          0.862              1.235              0.642
 Vibration    21          0.871              1.215              0.620
 Vibration    22          0.879              1.198              0.602
 Vibration    23          0.899              1.154              0.558
 Vibration    24          0.920              1.109              0.515
 Vibration    25          0.941              1.065              0.477
 Vibration    26          0.958              1.031              0.449

 Optimization completed.
    -- Stationary point found.
 Normal termination of Gaussian 16 at Fri Dec 11 23:41:55 2020.

 ----------------------------------------------------------------------
 # B3LYP/6-311++G(d,p) empiricaldispersion=gd3bj scf=xqc pop=npa geom=c
 heck
 ----------------------------------------------------------------------

 --------------------------------------
 CID_84164875_JID_8927_Energie_neutraal
 --------------------------------------
 Structure from the checkpoint file:  "JID_8927.chk"
 Charge =  0 Multiplicity = 1

 SCF Done:  E(RB3LYP) =  -840.533779427     A.U. after   15 cycles
 Normal termination of Gaussian 16 at Fri Dec 11 23:47:05 2020.

 ----------------------------------------------------------------------
 # B3LYP/6-311++G(d,p) empiricaldispersion=gd3bj scf=xqc pop=npa geom=c
 heck
 ----------------------------------------------------------------------

 ------------------------------------
 CID_84164875_JID_8927_Energie_kation
 ------------------------------------
 Structure from the checkpoint file:  "JID_8927.chk"
 Charge =  1 Multiplicity = 2

 SCF Done:  E(UB3LYP) =  -840.260919054     A.U. after   22 cycles
 Normal termination of Gaussian 16 at Fri Dec 11 23:57:18 2020.
 Gaussian 16:  ES64L-G16RevA.03 25-Dec-2016

 ----------------------------------------------------------------------
 # B3LYP/6-311++G(d,p) empiricaldispersion=gd3bj scf=xqc pop=npa geom=c
 heck
 ----------------------------------------------------------------------

 -----------------------------------
 CID_84164875_JID_8927_Energie_anion
 -----------------------------------
 Structure from the checkpoint file:  "JID_8927.chk"
 Charge = -1 Multiplicity = 2

                         Standard orientation:
 ---------------------------------------------------------------------
 Center     Atomic      Atomic             Coordinates (Angstroms)
 Number     Number       Type             X           Y           Z
 ---------------------------------------------------------------------
      1          6           0        4.008434    1.861248   -0.456472
      2          6           0        3.308493    0.554092   -0.169989
      3          6           0        1.933867    0.435947   -0.380816
      4          6           0        1.244695   -0.774515   -0.151896
      5          6           0        1.992862   -1.869832    0.324506
      6          6           0        3.364098   -1.748997    0.535905
      7          6           0        4.029824   -0.551147    0.295049
      8          7           0       -0.131207   -0.899800   -0.397510
      9          6           0       -0.812907   -2.036268    0.219384
     10          6           0       -2.334725   -2.087749    0.104694
     11          8           0       -2.950079   -3.001302    0.635656
     12          7           0       -2.940512   -1.078335   -0.578020
     13          6           0       -2.212734   -0.087212   -1.353458
     14          6           0       -0.924931    0.300082   -0.630852
     15          6           0       -1.180524    1.093972    0.663950
     16          6           0       -1.645670    2.504467    0.397347
     17          8           0       -1.737539    3.024626   -0.695657
     18          8           0       -1.948750    3.158439    1.541658
     19          1           0        3.297966    2.690512   -0.532675
     20          1           0        4.732872    2.105590    0.328369
     21          1           0        4.562013    1.813449   -1.403140
     22          1           0        1.404393    1.315308   -0.727656
     23          1           0        1.516990   -2.820587    0.526081
     24          1           0        3.915538   -2.610934    0.902114
     25          1           0        5.098881   -0.469085    0.470914
     26          1           0       -0.587862   -2.113821    1.294183
     27          1           0       -0.460431   -2.969506   -0.234635
     28          1           0       -3.939378   -1.186186   -0.702709
     29          1           0       -2.835633    0.800943   -1.478078
     30          1           0       -1.957963   -0.468235   -2.351607
     31          1           0       -0.382833    0.939279   -1.327827
     32          1           0       -1.918345    0.592386    1.299650
     33          1           0       -0.255482    1.151467    1.249833
     34          1           0       -2.222434    4.057741    1.278513
 ---------------------------------------------------------------------

 SCF Done:  E(UB3LYP) =  -840.526051892     A.U. after   33 cycles
 SCF Done:  E(UB3LYP) =  -840.526051891     a.u. after    1 cycles

 The electronic state is 2-A.
 Alpha  occ. eigenvalues --  -19.07716 -19.02786 -19.00390 -14.25537 -14.25303
 Alpha  occ. eigenvalues --  -10.22053 -10.19353 -10.13522 -10.13494 -10.13154
 Alpha  occ. eigenvalues --  -10.12644 -10.10014 -10.10003 -10.09213 -10.08465
 Alpha  occ. eigenvalues --  -10.08437 -10.08323 -10.07946  -1.02008  -0.95797
 Alpha  occ. eigenvalues --   -0.93183  -0.88338  -0.83983  -0.76914  -0.71991
 Alpha  occ. eigenvalues --   -0.68719  -0.67334  -0.65085  -0.61395  -0.60581
 Alpha  occ. eigenvalues --   -0.57053  -0.52249  -0.51102  -0.50281  -0.47587
 Alpha  occ. eigenvalues --   -0.44777  -0.43027  -0.41678  -0.40828  -0.40479
 Alpha  occ. eigenvalues --   -0.39367  -0.38702  -0.38176  -0.37034  -0.35982
 Alpha  occ. eigenvalues --   -0.35364  -0.34182  -0.33751  -0.33400  -0.32339
 Alpha  occ. eigenvalues --   -0.31699  -0.30719  -0.30580  -0.29526  -0.28170
 Alpha  occ. eigenvalues --   -0.27701  -0.27210  -0.27028  -0.25493  -0.23696
 Alpha  occ. eigenvalues --   -0.20865  -0.19693  -0.17946  -0.17460  -0.16473
 Alpha  occ. eigenvalues --   -0.12100   0.03833
 Alpha virt. eigenvalues --    0.05616   0.06098   0.06608   0.06980   0.07430
 Alpha virt. eigenvalues --    0.07754   0.08340   0.08490   0.08954   0.09373
 Alpha virt. eigenvalues --    0.09720   0.10295   0.10986   0.11016   0.11990

  Beta  occ. eigenvalues --  -19.07654 -19.02768 -19.00384 -14.25509 -14.25303
  Beta  occ. eigenvalues --  -10.22053 -10.19354 -10.13518 -10.13495 -10.13140
  Beta  occ. eigenvalues --  -10.12616 -10.10013 -10.09971 -10.09209 -10.08459
  Beta  occ. eigenvalues --  -10.08415 -10.08312 -10.07938  -1.01930  -0.95786
  Beta  occ. eigenvalues --   -0.93116  -0.88328  -0.83949  -0.76903  -0.71959
  Beta  occ. eigenvalues --   -0.68701  -0.67315  -0.65026  -0.61359  -0.60548
  Beta  occ. eigenvalues --   -0.57011  -0.52170  -0.51060  -0.50257  -0.47534
  Beta  occ. eigenvalues --   -0.44742  -0.43003  -0.41640  -0.40778  -0.40454
  Beta  occ. eigenvalues --   -0.39328  -0.38665  -0.38151  -0.37015  -0.35953
  Beta  occ. eigenvalues --   -0.35340  -0.34157  -0.33727  -0.33372  -0.32312
  Beta  occ. eigenvalues --   -0.31664  -0.30684  -0.30549  -0.29497  -0.28149
  Beta  occ. eigenvalues --   -0.27676  -0.27194  -0.27001  -0.25475  -0.23652
  Beta  occ. eigenvalues --   -0.20852  -0.19648  -0.17930  -0.17435  -0.16462
  Beta  occ. eigenvalues --   -0.12091
  Beta virt. eigenvalues --    0.05655   0.06620   0.06672   0.06831   0.07504
  Beta virt. eigenvalues --    0.07756   0.08072   0.08433   0.08834   0.09178
  Beta virt. eigenvalues --    0.09636   0.09907   0.10491   0.11177   0.11262

 Mulliken charges and spin densities:
               1          2
     1  C    1.052997  -1.475415
     2  C    0.020503   0.367838
     3  C   -0.030111   0.041231
     4  C   -0.430239   0.256042
     5  C    0.219325  -0.083365
     6  C   -0.235588  -0.067168
     7  C   -0.492806  -0.110246
     8  N    0.401830  -0.008005
     9  C    0.412990  -0.531084
    10  C   -0.514906   0.287722
    11  O   -0.358275   0.015667
    12  N   -0.376596   0.145151
    13  C    0.832223  -1.525850
    14  C   -0.915891   0.661285
    15  C    0.467361  -0.658566
    16  C    0.137132  -0.280527
    17  O   -0.247211  -0.012420
    18  O   -0.153460   0.038649
    19  H   -0.216886   0.374443
    20  H   -0.061907   0.199352
    21  H    0.040163   0.125546
    22  H    0.207955  -0.154008
    23  H    0.100954   0.042476
    24  H   -0.078385   0.240157
    25  H   -0.096321   0.231750
    26  H    0.151558   0.069155
    27  H    0.091537   0.117351
    28  H   -0.165925   0.511543
    29  H   -0.198029   0.398977
    30  H   -0.169179   0.373801
    31  H    0.094100   0.132829
    32  H   -0.002044   0.277142
    33  H    0.047846   0.171621
    34  H   -0.534715   0.826926
 Sum of Mulliken charges =  -1.00000   1.00000

 Dipole moment (field-independent basis, Debye):
    X=              5.0883    Y=             -4.1159    Z=             -1.1685  Tot=              6.6481
 Quadrupole moment (field-independent basis, Debye-Ang):
   XX=           -182.2702   YY=           -177.4825   ZZ=           -139.9364
   XY=              0.9282   XZ=              2.2226   YZ=             -4.0080

 Summary of Natural Population Analysis:

                                       Natural Population
                Natural  -----------------------------------------------
    Atom  No    Charge         Core      Valence    Rydberg      Total
 -----------------------------------------------------------------------
      C    1   -0.29111      0.99964     2.28644    0.00503     3.29111
      C    2   -0.00474      0.99952     1.99626    0.00896     3.00474
      C    3   -0.12960      0.99948     2.12233    0.00779     3.12960
      C    4    0.10099      0.99949     1.88911    0.01041     2.89901
      C    5   -0.13558      0.99953     2.12798    0.00807     3.13558
      C    6   -0.08793      0.99957     2.07863    0.00973     3.08793
      C    7   -0.12478      0.99951     2.11552    0.00975     3.12478
      N    8   -0.25381      0.99964     2.74345    0.01072     3.75381
      C    9   -0.13039      0.99957     2.12050    0.01032     3.13039
      C   10    0.34224      0.99966     1.63680    0.02129     2.65776
      O   11   -0.32325      0.99988     3.31733    0.00605     4.32325
      N   12   -0.31545      0.99967     2.80573    0.01005     3.81545
      C   13   -0.08704      0.99958     2.07565    0.01180     3.08704
      C   14   -0.00893      0.99957     1.99470    0.01467     3.00893
      C   15   -0.25440      0.99955     2.24518    0.00967     3.25440
      C   16    0.40984      0.99972     1.56551    0.02493     2.59016
      O   17   -0.30902      0.99987     3.30267    0.00649     4.30902
      O   18   -0.34056      0.99988     3.33423    0.00646     4.34056
      H   19    0.10485      0.00000     0.39409    0.00107     0.39515
      H   20    0.10291      0.00000     0.39582    0.00127     0.39709
      H   21    0.10319      0.00000     0.39552    0.00129     0.39681
      H   22    0.10259      0.00000     0.39521    0.00220     0.39741
      H   23    0.10291      0.00000     0.39576    0.00132     0.39709
      H   24    0.09855      0.00000     0.40066    0.00079     0.40145
      H   25    0.09882      0.00000     0.40027    0.00091     0.40118
      H   26    0.10542      0.00000     0.39282    0.00175     0.39458
      H   27    0.11001      0.00000     0.38826    0.00172     0.38999
      H   28    0.20175      0.00000     0.29423    0.00401     0.29825
      H   29    0.11312      0.00000     0.38525    0.00163     0.38688
      H   30    0.09612      0.00000     0.40229    0.00158     0.40388
      H   31    0.11356      0.00000     0.38389    0.00255     0.38644
      H   32    0.11921      0.00000     0.37917    0.00161     0.38079
      H   33    0.12371      0.00000     0.37509    0.00120     0.37629
      H   34    0.24678      0.00000     0.22766    0.02556     0.25322
 =======================================================================
   * Total *    0.00000     17.99331    47.76402    0.24267    66.00000

 Normal termination of Gaussian 16 at Sat Dec 12 00:12:40 2020.
