 Gaussian 16, Revision A.03,

 -----------------------------------------------------------
 # opt freq B3LYP/6-31G(d) empiricaldispersion=gd3bj scf=xqc
 -----------------------------------------------------------

 -----------------------------
 CID_144536832_JID_13_neutraal
 -----------------------------
 Symbolic Z-matrix:
 Charge =  0 Multiplicity = 1

 SCF Done:  E(RB3LYP) =  -765.589147999     A.U. after   14 cycles
 SCF Done:  E(RB3LYP) =  -765.594386039     A.U. after   13 cycles
 SCF Done:  E(RB3LYP) =  -765.595091625     A.U. after   12 cycles
 SCF Done:  E(RB3LYP) =  -765.595622228     A.U. after   12 cycles
 SCF Done:  E(RB3LYP) =  -765.595850370     A.U. after   12 cycles
 SCF Done:  E(RB3LYP) =  -765.595941733     A.U. after   12 cycles
 SCF Done:  E(RB3LYP) =  -765.596156271     A.U. after   12 cycles
 SCF Done:  E(RB3LYP) =  -765.596212625     A.U. after   11 cycles
 SCF Done:  E(RB3LYP) =  -765.596298634     A.U. after   11 cycles
 SCF Done:  E(RB3LYP) =  -765.596327180     A.U. after   10 cycles
 SCF Done:  E(RB3LYP) =  -765.596339813     A.U. after   10 cycles
 SCF Done:  E(RB3LYP) =  -765.596342932     A.U. after    9 cycles
 SCF Done:  E(RB3LYP) =  -765.596344038     A.U. after    9 cycles
 SCF Done:  E(RB3LYP) =  -765.596344205     A.U. after    7 cycles
 SCF Done:  E(RB3LYP) =  -765.596344234     A.U. after    7 cycles
 Optimization completed.
    -- Stationary point found.
 Normal termination of Gaussian 16 at Tue Dec  8 10:17:53 2020.

 --------------------------------------------------------------------
 #N Geom=AllCheck Guess=TCheck SCRF=Check GenChk RB3LYP/6-31G(d) Freq
 --------------------------------------------------------------------

 Structure from the checkpoint file:  "JID_13.chk"
 -----------------------------
 CID_144536832_JID_13_neutraal
 -----------------------------
 Charge =  0 Multiplicity = 1

 SCF Done:  E(RB3LYP) =  -765.596344234     A.U. after    1 cycles

  Exact polarizability: 199.502  -1.232 108.559  -7.847   9.048  71.797
 Approx polarizability: 299.239  -6.644 162.994 -18.147  17.920 108.224

                      1                      2                      3
                      A                      A                      A
 Frequencies --     54.9235                71.6629                89.0488
 Red. masses --      3.6407                 3.1264                 3.1006
 Frc consts  --      0.0065                 0.0095                 0.0145
 IR Inten    --      0.6122                 2.7951                 2.1701

                      4                      5                      6
                      A                      A                      A
 Frequencies --     99.4150               130.0436               166.1552
 Red. masses --      3.2665                 1.9652                 1.2052
 Frc consts  --      0.0190                 0.0196                 0.0196
 IR Inten    --      1.5083                 2.9945                 2.2229

                      7                      8                      9
                      A                      A                      A
 Frequencies --    197.4038               214.5804               237.0819
 Red. masses --      1.3293                 1.4722                 1.8470
 Frc consts  --      0.0305                 0.0399                 0.0612
 IR Inten    --      5.3146                 5.0773                 2.0396

                     10                     11                     12
                      A                      A                      A
 Frequencies --    244.6316               270.8038               311.3895
 Red. masses --      2.1527                 3.3034                 3.9738
 Frc consts  --      0.0759                 0.1427                 0.2270
 IR Inten    --      4.0591                 5.9818                12.2935

                     13                     14                     15
                      A                      A                      A
 Frequencies --    318.5403               384.5217               481.4678
 Red. masses --      3.6714                 2.6139                 3.3952
 Frc consts  --      0.2195                 0.2277                 0.4637
 IR Inten    --      0.6647                19.6613                 4.4317

                     16                     17                     18
                      A                      A                      A
 Frequencies --    487.4135               541.5800               614.6574
 Red. masses --      1.9429                 2.8055                 1.7294
 Frc consts  --      0.2719                 0.4848                 0.3850
 IR Inten    --    100.2723                37.7337                11.2864

                     19                     20                     21
                      A                      A                      A
 Frequencies --    670.4849               763.0670               786.1728
 Red. masses --      2.9002                 2.2896                 1.5165
 Frc consts  --      0.7682                 0.7855                 0.5522
 IR Inten    --      9.6842                55.8035                 3.4781

                     22                     23                     24
                      A                      A                      A
 Frequencies --    797.1250               855.8794               880.2640
 Red. masses --      2.1889                 1.6144                 3.1580
 Frc consts  --      0.8195                 0.6968                 1.4418
 IR Inten    --      6.7141                26.9196                 0.2234

                     25                     26                     27
                      A                      A                      A
 Frequencies --    948.0569               970.3697               988.1968
 Red. masses --      1.8483                 1.4921                 1.1089
 Frc consts  --      0.9788                 0.8278                 0.6380
 IR Inten    --     12.6427                37.3418                39.1134

                     28                     29                     30
                      A                      A                      A
 Frequencies --   1000.5335              1064.2754              1078.7684
 Red. masses --      1.1744                 2.3062                 1.5180
 Frc consts  --      0.6927                 1.5390                 1.0408
 IR Inten    --      1.7868                 5.5649                 2.9058

                     31                     32                     33
                      A                      A                      A
 Frequencies --   1122.1675              1152.7982              1172.5972
 Red. masses --      1.7636                 1.3638                 1.7924
 Frc consts  --      1.3085                 1.0678                 1.4520
 IR Inten    --      2.7902                49.2315                 2.4057

                     34                     35                     36
                      A                      A                      A
 Frequencies --   1228.2605              1259.6905              1282.1801
 Red. masses --      1.6636                 1.7047                 1.1565
 Frc consts  --      1.4787                 1.5938                 1.1202
 IR Inten    --      4.3352                88.6479                 2.5745

                     37                     38                     39
                      A                      A                      A
 Frequencies --   1320.0061              1335.5943              1383.5392
 Red. masses --      1.5009                 1.4117                 1.5845
 Frc consts  --      1.5408                 1.4837                 1.7870
 IR Inten    --     93.5085                58.2268                29.7119

                     40                     41                     42
                      A                      A                      A
 Frequencies --   1434.0274              1469.6612              1487.1927
 Red. masses --      1.3120                 1.6059                 1.2651
 Frc consts  --      1.5897                 2.0436                 1.6485
 IR Inten    --     32.8201                47.5310                 4.8532

                     43                     44                     45
                      A                      A                      A
 Frequencies --   1510.0972              1512.2569              1517.4571
 Red. masses --      1.1750                 1.0646                 1.2320
 Frc consts  --      1.5787                 1.4344                 1.6715
 IR Inten    --      7.6948                10.6374                19.0241

                     46                     47                     48
                      A                      A                      A
 Frequencies --   1521.5807              1553.2618              1648.7194
 Red. masses --      1.0883                 1.0926                 5.2019
 Frc consts  --      1.4845                 1.5531                 8.3311
 IR Inten    --     29.2920                15.7443               171.0319

                     49                     50                     51
                      A                      A                      A
 Frequencies --   1685.2058              1725.4583              2678.2425
 Red. masses --      5.4061                 6.1579                 1.0383
 Frc consts  --      9.0456                10.8018                 4.3879
 IR Inten    --     76.4212                55.2091                17.1114

                     52                     53                     54
                      A                      A                      A
 Frequencies --   2980.6750              3038.0327              3083.2249
 Red. masses --      1.0598                 1.0411                 1.0987
 Frc consts  --      5.5473                 5.6613                 6.1538
 IR Inten    --    134.9927                22.1732                22.1900

                     55                     56                     57
                      A                      A                      A
 Frequencies --   3094.4681              3132.6979              3134.5402
 Red. masses --      1.0743                 1.0871                 1.0870
 Frc consts  --      6.0610                 6.2856                 6.2927
 IR Inten    --     45.2576                17.0741                25.5338

                     58                     59                     60
                      A                      A                      A
 Frequencies --   3139.3207              3151.4319              3162.8890
 Red. masses --      1.1004                 1.0949                 1.0953
 Frc consts  --      6.3898                 6.4068                 6.4559
 IR Inten    --     12.7005                 8.9342                45.0850

                     61                     62                     63
                      A                      A                      A
 Frequencies --   3172.0790              3192.3638              3592.1660
 Red. masses --      1.0888                 1.0879                 1.0754
 Frc consts  --      6.4546                 6.5324                 8.1762
 IR Inten    --      9.9454                17.8314                11.0932

 - Thermochemistry -
 -------------------
 Temperature   298.150 Kelvin.  Pressure   1.00000 Atm.
 Atom     1 has atomic number  6 and mass  12.00000

 Molecular mass:   155.07687 amu.
 Principal axes and moments of inertia in atomic units:
                           1         2         3
     Eigenvalues --   911.021653668.776364320.77635
           X            0.99995   0.00969  -0.00366
           Y           -0.00968   0.99995   0.00167
           Z            0.00367  -0.00164   0.99999
 This molecule is an asymmetric top.
 Rotational symmetry number  1.
 Warning -- assumption of classical behavior for rotation
           may cause significant error
 Rotational temperatures (Kelvin)      0.09507     0.02361     0.02005
 Rotational constants (GHZ):           1.98101     0.49192     0.41769
 Zero-point vibrational energy     505974.9 (Joules/Mol)
                                  120.93090 (Kcal/Mol)
 Warning -- explicit consideration of  18 degrees of freedom as
           vibrations may cause significant error
 Vibrational temperatures:     79.02   103.11   128.12   143.04   187.10
          (Kelvin)            239.06   284.02   308.73   341.11   351.97
                              389.63   448.02   458.31   553.24   692.72
                              701.28   779.21   884.35   964.68  1097.88
                             1131.13  1146.89  1231.42  1266.50  1364.04
                             1396.15  1421.79  1439.54  1531.25  1552.11
                             1614.55  1658.62  1687.11  1767.19  1812.41
                             1844.77  1899.19  1921.62  1990.60  2063.25
                             2114.51  2139.74  2172.69  2175.80  2183.28
                             2189.22  2234.80  2372.14  2424.64  2482.55
                             3853.39  4288.53  4371.05  4436.07  4452.25
                             4507.25  4509.90  4516.78  4534.21  4550.69
                             4563.91  4593.10  5168.33

 Zero-point correction=                           0.192716 (Hartree/Particle)
 Thermal correction to Energy=                    0.205348
 Thermal correction to Enthalpy=                  0.206293
 Thermal correction to Gibbs Free Energy=         0.153497
 Sum of electronic and zero-point Energies=           -765.403629
 Sum of electronic and thermal Energies=              -765.390996
 Sum of electronic and thermal Enthalpies=            -765.390052
 Sum of electronic and thermal Free Energies=         -765.442847

                     E (Thermal)             CV                S
                      KCal/Mol        Cal/Mol-Kelvin    Cal/Mol-Kelvin
 Total                  128.858             44.669            111.117
 Electronic               0.000              0.000              0.000
 Translational            0.889              2.981             41.026
 Rotational               0.889              2.981             31.047
 Vibrational            127.081             38.708             39.045
 Vibration     1          0.596              1.976              4.632
 Vibration     2          0.598              1.968              4.107
 Vibration     3          0.602              1.957              3.681
 Vibration     4          0.604              1.950              3.466
 Vibration     5          0.612              1.923              2.945
 Vibration     6          0.624              1.884              2.479
 Vibration     7          0.637              1.844              2.157
 Vibration     8          0.645              1.819              2.004
 Vibration     9          0.656              1.784              1.825
 Vibration    10          0.660              1.772              1.769
 Vibration    11          0.674              1.727              1.591
 Vibration    12          0.700              1.652              1.355
 Vibration    13          0.705              1.638              1.318
 Vibration    14          0.753              1.503              1.021
 Vibration    15          0.838              1.291              0.706
 Vibration    16          0.843              1.278              0.690
 Vibration    17          0.897              1.158              0.562
 Vibration    18          0.974              1.001              0.425

 Optimization completed.
    -- Stationary point found.
 Normal termination of Gaussian 16 at Tue Dec  8 10:21:39 2020.

 ----------------------------------------------------------------------
 # B3LYP/6-311++G(d,p) empiricaldispersion=gd3bj scf=xqc pop=npa geom=c
 heck
 ----------------------------------------------------------------------

 -------------------------------------
 CID_144536832_JID_13_Energie_neutraal
 -------------------------------------
 Structure from the checkpoint file:  "JID_13.chk"
 Charge =  0 Multiplicity = 1

 SCF Done:  E(RB3LYP) =  -765.733196936     A.U. after   15 cycles
 Normal termination of Gaussian 16 at Tue Dec  8 10:23:20 2020.

 ----------------------------------------------------------------------
 # B3LYP/6-311++G(d,p) empiricaldispersion=gd3bj scf=xqc pop=npa geom=c
 heck
 ----------------------------------------------------------------------

 -----------------------------------
 CID_144536832_JID_13_Energie_kation
 -----------------------------------
 Structure from the checkpoint file:  "JID_13.chk"
 Charge =  1 Multiplicity = 2

 SCF Done:  E(UB3LYP) =  -765.496308130     A.U. after   20 cycles
 Normal termination of Gaussian 16 at Tue Dec  8 10:26:07 2020.
 Gaussian 16:  ES64L-G16RevA.03 25-Dec-2016

 ----------------------------------------------------------------------
 # B3LYP/6-311++G(d,p) empiricaldispersion=gd3bj scf=xqc pop=npa geom=c
 heck
 ----------------------------------------------------------------------

 ----------------------------------
 CID_144536832_JID_13_Energie_anion
 ----------------------------------
 Structure from the checkpoint file:  "JID_13.chk"
 Charge = -1 Multiplicity = 2

                         Standard orientation:
 ---------------------------------------------------------------------
 Center     Atomic      Atomic             Coordinates (Angstroms)
 Number     Number       Type             X           Y           Z
 ---------------------------------------------------------------------
      1          6           0       -0.422162    2.309989   -0.877826
      2          6           0       -1.184242    1.974627    0.369023
      3          6           0       -1.625548    0.764074    0.744283
      4          6           0       -1.403854   -0.506942    0.023921
      5          6           0       -0.164505   -0.992611   -0.276760
      6          6           0        1.090538   -0.398890    0.111167
      7          6           0        2.296719   -0.866755   -0.264813
      8         16           0        3.883571   -0.220619    0.190579
      9          7           0       -2.547885   -1.212009   -0.343481
     10          6           0       -3.867789   -0.899119    0.166453
     11          1           0       -0.392457    1.467206   -1.571583
     12          1           0        0.615826    2.585750   -0.647376
     13          1           0       -0.874875    3.174257   -1.380054
     14          1           0       -1.415074    2.814130    1.025167
     15          1           0       -2.224094    0.696670    1.652747
     16          1           0       -0.110707   -1.933468   -0.826390
     17          1           0        1.040312    0.473477    0.759520
     18          1           0        2.389317   -1.731763   -0.916815
     19          1           0        3.436138    0.790410    0.966244
     20          1           0       -2.390098   -2.192731   -0.534084
     21          1           0       -4.607997   -1.466925   -0.404761
     22          1           0       -4.006558   -1.134301    1.235424
     23          1           0       -4.076615    0.165019    0.024374
 ---------------------------------------------------------------------

 SCF Done:  E(UB3LYP) =  -765.720116504     A.U. after   33 cycles
 SCF Done:  E(UB3LYP) =  -765.720116504     a.u. after    1 cycles

 The electronic state is 2-A.
 Alpha  occ. eigenvalues --  -88.75633 -14.21387 -10.10387 -10.08553 -10.08529
 Alpha  occ. eigenvalues --  -10.06976 -10.06792 -10.06421 -10.06110 -10.04826
 Alpha  occ. eigenvalues --   -7.84307  -5.80693  -5.80297  -5.79726  -0.82369
 Alpha  occ. eigenvalues --   -0.71513  -0.69436  -0.65607  -0.61222  -0.58791
 Alpha  occ. eigenvalues --   -0.54659  -0.49962  -0.46451  -0.41676  -0.39833
 Alpha  occ. eigenvalues --   -0.37866  -0.36189  -0.33653  -0.32827  -0.31503
 Alpha  occ. eigenvalues --   -0.31048  -0.29523  -0.28129  -0.27105  -0.26682
 Alpha  occ. eigenvalues --   -0.24501  -0.23731  -0.23064  -0.20763  -0.15565
 Alpha  occ. eigenvalues --   -0.14742  -0.06908   0.04573
 Alpha virt. eigenvalues --    0.06544   0.07344   0.07596   0.08472   0.08953
 Alpha virt. eigenvalues --    0.09626   0.10255   0.10432   0.11120   0.11713
 Alpha virt. eigenvalues --    0.12290   0.12678   0.13142   0.13615   0.14192

  Beta  occ. eigenvalues --  -88.75627 -14.21347 -10.10343 -10.08513 -10.08472
  Beta  occ. eigenvalues --  -10.06893 -10.06786 -10.06410 -10.06101 -10.04814
  Beta  occ. eigenvalues --   -7.84300  -5.80681  -5.80293  -5.79717  -0.82293
  Beta  occ. eigenvalues --   -0.71450  -0.69338  -0.65535  -0.61154  -0.58722
  Beta  occ. eigenvalues --   -0.54561  -0.49830  -0.46377  -0.41571  -0.39764
  Beta  occ. eigenvalues --   -0.37780  -0.36110  -0.33585  -0.32764  -0.31421
  Beta  occ. eigenvalues --   -0.30975  -0.29463  -0.28058  -0.27061  -0.26640
  Beta  occ. eigenvalues --   -0.24449  -0.23614  -0.22999  -0.20622  -0.15354
  Beta  occ. eigenvalues --   -0.14657  -0.06720
  Beta virt. eigenvalues --    0.06931   0.07690   0.07764   0.08145   0.08878
  Beta virt. eigenvalues --    0.09416   0.10211   0.10444   0.10981   0.11297
  Beta virt. eigenvalues --    0.11921   0.12745   0.13067   0.13464   0.13735

 Mulliken charges and spin densities:
               1          2
     1  C    0.206415  -0.912890
     2  C    0.347933  -0.238334
     3  C    0.164094  -0.014832
     4  C   -0.236197   0.213498
     5  C   -0.477891  -0.318522
     6  C    0.467975  -0.691381
     7  C   -0.041389   0.377667
     8  S   -0.177406  -0.287406
     9  N   -0.322169   0.253187
    10  C    1.358699  -1.725368
    11  H    0.102701   0.063566
    12  H    0.118832   0.025777
    13  H   -0.116320   0.255499
    14  H   -0.794193   0.964254
    15  H    0.027284   0.178023
    16  H   -0.028532   0.142799
    17  H   -0.008006   0.107489
    18  H    0.142419   0.095271
    19  H   -0.139710   0.206691
    20  H   -0.180331   0.431422
    21  H   -0.813808   0.953733
    22  H   -0.368103   0.521222
    23  H   -0.232298   0.398634
 Sum of Mulliken charges =  -1.00000   1.00000

 Dipole moment (field-independent basis, Debye):
    X=              7.0345    Y=              0.2673    Z=             -1.3660  Tot=              7.1709
 Quadrupole moment (field-independent basis, Debye-Ang):
   XX=           -150.9815   YY=           -111.5898   ZZ=            -97.1501
   XY=             -7.8947   XZ=              0.1989   YZ=             -2.4524

 Summary of Natural Population Analysis:

                                       Natural Population
                Natural  -----------------------------------------------
    Atom  No    Charge         Core      Valence    Rydberg      Total
 -----------------------------------------------------------------------
      C    1   -0.30971      0.99965     2.30324    0.00682     3.30971
      C    2   -0.05961      0.99955     2.04992    0.01015     3.05961
      C    3   -0.12864      0.99949     2.11788    0.01127     3.12864
      C    4    0.10358      0.99947     1.88330    0.01365     2.89642
      C    5   -0.15265      0.99948     2.14317    0.00999     3.15265
      C    6   -0.11462      0.99949     2.10451    0.01061     3.11462
      C    7   -0.18453      0.99946     2.17514    0.00993     3.18453
      S    8   -0.00407      4.99959     2.98521    0.01927     8.00407
      N    9   -0.30529      0.99969     2.79408    0.01153     3.80529
      C   10   -0.17809      0.99965     2.16970    0.00874     3.17809
      H   11    0.10886      0.00000     0.39019    0.00095     0.39114
      H   12    0.10328      0.00000     0.39547    0.00125     0.39672
      H   13    0.10223      0.00000     0.39685    0.00093     0.39777
      H   14    0.09346      0.00000     0.40445    0.00209     0.40654
      H   15    0.10593      0.00000     0.39225    0.00183     0.39407
      H   16    0.09248      0.00000     0.40582    0.00170     0.40752
      H   17    0.09995      0.00000     0.39831    0.00174     0.40005
      H   18    0.09636      0.00000     0.40267    0.00097     0.40364
      H   19    0.06006      0.00000     0.43701    0.00293     0.43994
      H   20    0.18581      0.00000     0.31027    0.00392     0.31419
      H   21    0.10092      0.00000     0.39584    0.00324     0.39908
      H   22    0.08421      0.00000     0.41391    0.00188     0.41579
      H   23    0.10009      0.00000     0.39829    0.00162     0.39991
 =======================================================================
   * Total *    0.00000     13.99551    27.86748    0.13701    42.00000

 Normal termination of Gaussian 16 at Tue Dec  8 10:30:23 2020.
