 Gaussian 16, Revision A.03,

 -----------------------------------------------------------
 # opt freq B3LYP/6-31G(d) empiricaldispersion=gd3bj scf=xqc
 -----------------------------------------------------------

 -------------------------------
 CID_152084035_JID_1888_neutraal
 -------------------------------
 Symbolic Z-matrix:
 Charge =  0 Multiplicity = 1

 SCF Done:  E(RB3LYP) =  -511.336378435     A.U. after   15 cycles
 SCF Done:  E(RB3LYP) =  -511.343220833     A.U. after   16 cycles
 SCF Done:  E(RB3LYP) =  -511.347197709     A.U. after   14 cycles
 SCF Done:  E(RB3LYP) =  -511.350053756     A.U. after   14 cycles
 SCF Done:  E(RB3LYP) =  -511.351139383     A.U. after   15 cycles
 SCF Done:  E(RB3LYP) =  -511.351663799     A.U. after   14 cycles
 SCF Done:  E(RB3LYP) =  -511.351846248     A.U. after   13 cycles
 SCF Done:  E(RB3LYP) =  -511.351989576     A.U. after   15 cycles
 SCF Done:  E(RB3LYP) =  -511.352055335     A.U. after   13 cycles
 SCF Done:  E(RB3LYP) =  -511.352130363     A.U. after   11 cycles
 SCF Done:  E(RB3LYP) =  -511.352184645     A.U. after   10 cycles
 SCF Done:  E(RB3LYP) =  -511.352191717     A.U. after   11 cycles
 SCF Done:  E(RB3LYP) =  -511.352192724     A.U. after    8 cycles
 SCF Done:  E(RB3LYP) =  -511.352193076     A.U. after    8 cycles
 SCF Done:  E(RB3LYP) =  -511.352193235     A.U. after    8 cycles
 SCF Done:  E(RB3LYP) =  -511.352193253     A.U. after    8 cycles
 Optimization completed.
    -- Stationary point found.

 1\1\GINC-NODE309\FOpt\RB3LYP\6-31G(d)\C6H15N5\VSC10255\08-Dec-2020\0\\
 # opt freq B3LYP/6-31G(d) empiricaldispersion=gd3bj scf=xqc\\CID_15208
 4035_JID_1888_neutraal\\0,1\C,0.6658103433,0.0895095922,0.028977418\C,
 0.5356466895,-1.4051751652,0.3340672868\C,0.7713122696,-1.7717868189,1
 .8069889704\C,-0.1414513687,-1.1096128878,2.8442938214\N,-1.5509461223
 ,-1.5140785695,2.7100464566\C,-2.3113053423,-1.4909720949,3.9754579222
 \C,-2.4117123843,-0.1587206965,4.7279556796\N,-3.3965083227,0.73309924
 27,4.1111262713\N,-2.1816453008,-0.5982331939,1.7564670368\N,-2.810433

 Normal termination of Gaussian 16 at Tue Dec  8 21:43:00 2020.

 --------------------------------------------------------------------
 #N Geom=AllCheck Guess=TCheck SCRF=Check GenChk RB3LYP/6-31G(d) Freq
 --------------------------------------------------------------------

 Structure from the checkpoint file:  "JID_1888.chk"
 -------------------------------
 CID_152084035_JID_1888_neutraal
 -------------------------------
 Charge =  0 Multiplicity = 1

 SCF Done:  E(RB3LYP) =  -511.352193253     A.U. after    1 cycles

  Exact polarizability: 101.876   9.081 113.257  -1.134  -2.177  81.934
 Approx polarizability: 126.353  22.782 192.749  -6.204 -17.316 122.200

                      1                      2                      3
                      A                      A                      A
 Frequencies --     30.7886                42.7653                62.1542
 Red. masses --      3.6580                 8.0817                 2.8651
 Frc consts  --      0.0020                 0.0087                 0.0065
 IR Inten    --      0.1165                 0.3302                 1.1845

                      4                      5                      6
                      A                      A                      A
 Frequencies --     89.1308               146.2650               155.0406
 Red. masses --      3.6686                 2.4301                 4.6083
 Frc consts  --      0.0172                 0.0306                 0.0653
 IR Inten    --      0.5559                 1.1552                 0.7482

                      7                      8                      9
                      A                      A                      A
 Frequencies --    192.2407               218.6111               251.1634
 Red. masses --      1.7192                 2.4773                 3.3771
 Frc consts  --      0.0374                 0.0698                 0.1255
 IR Inten    --      0.2912                 0.7991                 7.4003

                     10                     11                     12
                      A                      A                      A
 Frequencies --    265.7768               296.5555               345.7617
 Red. masses --      1.7137                 1.2385                 2.3822
 Frc consts  --      0.0713                 0.0642                 0.1678
 IR Inten    --      0.8826                58.4316                26.3690

                     13                     14                     15
                      A                      A                      A
 Frequencies --    370.2946               410.5653               444.6167
 Red. masses --      2.2901                 2.5632                 2.3515
 Frc consts  --      0.1850                 0.2546                 0.2739
 IR Inten    --      0.1581                 6.9964                 0.6775

                     16                     17                     18
                      A                      A                      A
 Frequencies --    497.8392               563.2470               588.9882
 Red. masses --      1.9684                 8.2145                 2.8437
 Frc consts  --      0.2874                 1.5354                 0.5812
 IR Inten    --      5.5183                 5.7267                 5.3959

                     19                     20                     21
                      A                      A                      A
 Frequencies --    615.6532               752.3906               816.6293
 Red. masses --      4.8719                 1.2975                 2.9631
 Frc consts  --      1.0880                 0.4328                 1.1642
 IR Inten    --     10.1229                 9.8608                 1.8775

                     22                     23                     24
                      A                      A                      A
 Frequencies --    818.2587               860.3062               871.5552
 Red. masses --      2.9747                 1.9874                 2.1745
 Frc consts  --      1.1735                 0.8666                 0.9732
 IR Inten    --      3.3601                23.7485                 3.1458

                     25                     26                     27
                      A                      A                      A
 Frequencies --    902.0771               921.9762               965.5592
 Red. masses --      1.5241                 1.4981                 2.2191
 Frc consts  --      0.7307                 0.7503                 1.2189
 IR Inten    --     66.2889                45.9750                 4.5968

                     28                     29                     30
                      A                      A                      A
 Frequencies --    983.2716              1019.5641              1060.0959
 Red. masses --      1.6300                 1.9262                 2.6535
 Frc consts  --      0.9285                 1.1797                 1.7569
 IR Inten    --      5.6462                 5.1515                23.5195

                     31                     32                     33
                      A                      A                      A
 Frequencies --   1099.5581              1130.4519              1145.0044
 Red. masses --      1.9499                 1.9232                 2.1739
 Frc consts  --      1.3890                 1.4480                 1.6792
 IR Inten    --      7.4177                 6.9245                 8.5823

                     34                     35                     36
                      A                      A                      A
 Frequencies --   1157.7860              1168.1648              1206.4158
 Red. masses --      2.0927                 2.4357                 1.2593
 Frc consts  --      1.6528                 1.9583                 1.0798
 IR Inten    --      4.5003                 2.4410                20.3091

                     37                     38                     39
                      A                      A                      A
 Frequencies --   1243.0887              1281.2919              1298.0903
 Red. masses --      5.2241                 1.3712                 1.3467
 Frc consts  --      4.7563                 1.3263                 1.3370
 IR Inten    --     67.8967                 3.9039                 7.2186

                     40                     41                     42
                      A                      A                      A
 Frequencies --   1314.6415              1352.4122              1372.0406
 Red. masses --      1.2865                 1.1227                 1.2075
 Frc consts  --      1.3100                 1.2098                 1.3392
 IR Inten    --      5.4313                 0.9339                10.6201

                     43                     44                     45
                      A                      A                      A
 Frequencies --   1390.1613              1401.1249              1415.0571
 Red. masses --      1.3679                 1.2536                 1.4295
 Frc consts  --      1.5576                 1.4499                 1.6865
 IR Inten    --     10.4030                17.7905                 0.8486

                     46                     47                     48
                      A                      A                      A
 Frequencies --   1431.8334              1443.1594              1454.4109
 Red. masses --      1.3297                 1.2926                 1.4322
 Frc consts  --      1.6062                 1.5861                 1.7850
 IR Inten    --     13.2950                 8.3710                 5.8374

                     49                     50                     51
                      A                      A                      A
 Frequencies --   1494.4406              1503.3988              1513.3800
 Red. masses --      1.0835                 1.0888                 1.0885
 Frc consts  --      1.4257                 1.4499                 1.4689
 IR Inten    --      8.7952                 2.6363                 3.7190

                     52                     53                     54
                      A                      A                      A
 Frequencies --   1526.0085              1534.6712              1538.1332
 Red. masses --      1.0449                 1.0691                 1.0852
 Frc consts  --      1.4336                 1.4835                 1.5127
 IR Inten    --      0.3460                 7.5312                 3.2283

                     55                     56                     57
                      A                      A                      A
 Frequencies --   1547.0165              1690.4111              2231.6665
 Red. masses --      1.0626                 1.0864                13.8820
 Frc consts  --      1.4983                 1.8291                40.7344
 IR Inten    --      2.6597                43.0854               451.4380

                     58                     59                     60
                      A                      A                      A
 Frequencies --   2957.8256              3022.4771              3027.9975
 Red. masses --      1.0731                 1.0657                 1.0651
 Frc consts  --      5.5315                 5.7361                 5.7538
 IR Inten    --     70.4673                21.1499                39.6842

                     61                     62                     63
                      A                      A                      A
 Frequencies --   3045.1172              3047.6793              3053.7089
 Red. masses --      1.0494                 1.0570                 1.0802
 Frc consts  --      5.7333                 5.7842                 5.9349
 IR Inten    --     33.4455                28.7192                21.5010

                     64                     65                     66
                      A                      A                      A
 Frequencies --   3068.5286              3074.4528              3087.8404
 Red. masses --      1.0712                 1.0952                 1.0947
 Frc consts  --      5.9426                 6.0991                 6.1497
 IR Inten    --     47.1294                19.6595                21.9033

                     67                     68                     69
                      A                      A                      A
 Frequencies --   3092.8414              3110.2858              3115.5048
 Red. masses --      1.0967                 1.1000                 1.1049
 Frc consts  --      6.1808                 6.2699                 6.3185
 IR Inten    --     50.9585                47.1553                26.1170

                     70                     71                     72
                      A                      A                      A
 Frequencies --   3129.5479              3473.3613              3564.2506
 Red. masses --      1.1011                 1.0500                 1.0924
 Frc consts  --      6.3541                 7.4637                 8.1768
 IR Inten    --     38.3691                 9.3888                 2.5614

 - Thermochemistry -
 -------------------
 Temperature   298.150 Kelvin.  Pressure   1.00000 Atm.
 Atom     1 has atomic number  6 and mass  12.00000

 Molecular mass:   157.13275 amu.
 Principal axes and moments of inertia in atomic units:
                           1         2         3
     Eigenvalues --  1319.601322421.416833018.44564
           X            0.99997  -0.00100   0.00754
           Y            0.00087   0.99985   0.01729
           Z           -0.00756  -0.01728   0.99982
 This molecule is an asymmetric top.
 Rotational symmetry number  1.
 Warning -- assumption of classical behavior for rotation
           may cause significant error
 Rotational temperatures (Kelvin)      0.06564     0.03577     0.02869
 Rotational constants (GHZ):           1.36764     0.74532     0.59790
 Zero-point vibrational energy     600013.2 (Joules/Mol)
                                  143.40661 (Kcal/Mol)
 Warning -- explicit consideration of  19 degrees of freedom as
           vibrations may cause significant error
 Vibrational temperatures:     44.30    61.53    89.43   128.24   210.44
          (Kelvin)            223.07   276.59   314.53   361.37   382.39
                              426.68   497.47   532.77   590.71   639.70
                              716.28   810.39   847.42   885.79  1082.52
                             1174.95  1177.29  1237.79  1253.97  1297.89
                             1326.52  1389.22  1414.71  1466.93  1525.24
                             1582.02  1626.47  1647.41  1665.80  1680.73
                             1735.76  1788.53  1843.49  1867.66  1891.48
                             1945.82  1974.06  2000.13  2015.91  2035.95
                             2060.09  2076.38  2092.57  2150.17  2163.06
                             2177.42  2195.59  2208.05  2213.03  2225.81
                             2432.12  3210.87  4255.65  4348.67  4356.61
                             4381.24  4384.93  4393.61  4414.93  4423.45
                             4442.71  4449.91  4475.01  4482.52  4502.72
                             4997.39  5128.16

 Zero-point correction=                           0.228533 (Hartree/Particle)
 Thermal correction to Energy=                    0.241292
 Thermal correction to Enthalpy=                  0.242237
 Thermal correction to Gibbs Free Energy=         0.188414
 Sum of electronic and zero-point Energies=           -511.123660
 Sum of electronic and thermal Energies=              -511.110901
 Sum of electronic and thermal Enthalpies=            -511.109957
 Sum of electronic and thermal Free Energies=         -511.163780

                     E (Thermal)             CV                S
                      KCal/Mol        Cal/Mol-Kelvin    Cal/Mol-Kelvin
 Total                  151.413             45.808            113.280
 Electronic               0.000              0.000              0.000
 Translational            0.889              2.981             41.065
 Rotational               0.889              2.981             30.645
 Vibrational            149.636             39.847             41.569
 Vibration     1          0.594              1.984              5.778
 Vibration     2          0.595              1.980              5.127
 Vibration     3          0.597              1.972              4.388
 Vibration     4          0.602              1.957              3.679
 Vibration     5          0.617              1.907              2.720
 Vibration     6          0.620              1.897              2.609
 Vibration     7          0.634              1.851              2.206
 Vibration     8          0.646              1.813              1.971
 Vibration     9          0.663              1.761              1.722
 Vibration    10          0.672              1.736              1.624
 Vibration    11          0.690              1.680              1.436
 Vibration    12          0.724              1.584              1.185
 Vibration    13          0.742              1.533              1.079
 Vibration    14          0.775              1.447              0.925
 Vibration    15          0.804              1.373              0.812
 Vibration    16          0.853              1.255              0.664
 Vibration    17          0.919              1.111              0.517
 Vibration    18          0.946              1.055              0.469
 Vibration    19          0.975              0.999              0.424

                           ! Non-Optimized Parameters !

 1\1\GINC-NODE309\Freq\RB3LYP\6-31G(d)\C6H15N5\VSC10255\08-Dec-2020\0\\
 #N Geom=AllCheck Guess=TCheck SCRF=Check GenChk RB3LYP/6-31G(d) Freq\\
 CID_152084035_JID_1888_neutraal\\0,1\C,0.6658103433,0.0895095922,0.028
 977418\C,0.5356466895,-1.4051751652,0.3340672868\C,0.7713122696,-1.771
 7868189,1.8069889704\C,-0.1414513687,-1.1096128878,2.8442938214\N,-1.5
 509461223,-1.5140785695,2.7100464566\C,-2.3113053423,-1.4909720949,3.9
 754579222\C,-2.4117123843,-0.1587206965,4.7279556796\N,-3.3965083227,0
 .7330992427,4.1111262713\N,-2.1816453008,-0.5982331939,1.7564670368\N,

 Normal termination of Gaussian 16 at Tue Dec  8 21:48:29 2020.

 ----------------------------------------------------------------------
 # B3LYP/6-311++G(d,p) empiricaldispersion=gd3bj scf=xqc pop=npa geom=c
 heck
 ----------------------------------------------------------------------

 ---------------------------------------
 CID_152084035_JID_1888_Energie_neutraal
 ---------------------------------------
 Structure from the checkpoint file:  "JID_1888.chk"
 Charge =  0 Multiplicity = 1

 SCF Done:  E(RB3LYP) =  -511.505023715     A.U. after   15 cycles
 Normal termination of Gaussian 16 at Tue Dec  8 21:50:42 2020.

 ----------------------------------------------------------------------
 # B3LYP/6-311++G(d,p) empiricaldispersion=gd3bj scf=xqc pop=npa geom=c
 heck
 ----------------------------------------------------------------------

 -------------------------------------
 CID_152084035_JID_1888_Energie_kation
 -------------------------------------
 Structure from the checkpoint file:  "JID_1888.chk"
 Charge =  1 Multiplicity = 2

 SCF Done:  E(UB3LYP) =  -511.198083375     A.U. after   27 cycles
 Normal termination of Gaussian 16 at Tue Dec  8 21:55:50 2020.
 Gaussian 16:  ES64L-G16RevA.03 25-Dec-2016

 ------------------------------------
 CID_152084035_JID_1888_Energie_anion
 ------------------------------------
 Structure from the checkpoint file:  "JID_1888.chk"
 Charge = -1 Multiplicity = 2

                         Standard orientation:
 ---------------------------------------------------------------------
 Center     Atomic      Atomic             Coordinates (Angstroms)
 Number     Number       Type             X           Y           Z
 ---------------------------------------------------------------------
      1          6           0        2.773347   -0.250291    1.416713
      2          6           0        2.705832   -0.255319   -0.112836
      3          6           0        1.824726   -1.366915   -0.702284
      4          6           0        0.353567   -1.390081   -0.274770
      5          7           0       -0.396271   -0.208908   -0.733971
      6          6           0       -1.833697   -0.455341   -0.964242
      7          6           0       -2.674922   -0.951756    0.217765
      8          7           0       -3.001787    0.138897    1.139329
      9          7           0       -0.246966    0.830382    0.287524
     10          7           0        0.095154    1.913071   -0.225579
     11          7           0        0.408486    2.958824   -0.553047
     12          1           0        1.798950   -0.019627    1.858302
     13          1           0        3.486422    0.500601    1.774630
     14          1           0        3.096822   -1.226205    1.800467
     15          1           0        2.366447    0.722374   -0.473724
     16          1           0        3.718132   -0.384137   -0.517904
     17          1           0        1.855692   -1.307141   -1.797274
     18          1           0        2.255844   -2.340010   -0.425241
     19          1           0       -0.123724   -2.258769   -0.741208
     20          1           0        0.259372   -1.519220    0.812999
     21          1           0       -2.270736    0.474809   -1.341538
     22          1           0       -1.869399   -1.191494   -1.775588
     23          1           0       -3.617696   -1.337550   -0.191288
     24          1           0       -2.166031   -1.813582    0.686883
     25          1           0       -3.552104   -0.222577    1.916439
     26          1           0       -2.141432    0.514885    1.532178
 ---------------------------------------------------------------------

 SCF Done:  E(UB3LYP) =  -511.499067521     A.U. after   30 cycles

 The electronic state is 2-A.
 Alpha  occ. eigenvalues --  -14.30079 -14.22370 -14.21658 -14.21333 -14.16812
 Alpha  occ. eigenvalues --  -10.07880 -10.07739 -10.07619 -10.05482 -10.05249
 Alpha  occ. eigenvalues --  -10.04233  -0.98341  -0.85948  -0.76720  -0.74640
 Alpha  occ. eigenvalues --   -0.67842  -0.61753  -0.58397  -0.52922  -0.49431
 Alpha  occ. eigenvalues --   -0.45956  -0.40794  -0.38351  -0.36925  -0.35846
 Alpha  occ. eigenvalues --   -0.34774  -0.33767  -0.33448  -0.32586  -0.30425
 Alpha  occ. eigenvalues --   -0.28737  -0.27969  -0.27347  -0.26340  -0.25916
 Alpha  occ. eigenvalues --   -0.24573  -0.22482  -0.21574  -0.21386  -0.20165
 Alpha  occ. eigenvalues --   -0.12591  -0.11814  -0.09553   0.05049
 Alpha virt. eigenvalues --    0.07059   0.07474   0.08769   0.09307   0.09879
 Alpha virt. eigenvalues --    0.10676   0.10989   0.12155   0.12638   0.13037
 Alpha virt. eigenvalues --    0.13751   0.14167   0.14757   0.15098   0.15728

  Beta  occ. eigenvalues --  -14.29676 -14.22452 -14.21194 -14.21118 -14.16776
  Beta  occ. eigenvalues --  -10.07873 -10.07720 -10.07601 -10.05474 -10.05243
  Beta  occ. eigenvalues --  -10.04207  -0.97576  -0.85617  -0.76563  -0.74419
  Beta  occ. eigenvalues --   -0.67801  -0.61705  -0.58250  -0.52824  -0.49273
  Beta  occ. eigenvalues --   -0.45828  -0.40671  -0.38124  -0.36503  -0.35491
  Beta  occ. eigenvalues --   -0.33895  -0.33540  -0.33249  -0.32425  -0.29508
  Beta  occ. eigenvalues --   -0.28489  -0.27865  -0.27178  -0.26292  -0.25844
  Beta  occ. eigenvalues --   -0.24536  -0.22365  -0.21551  -0.21353  -0.19188
  Beta  occ. eigenvalues --   -0.12531  -0.11683  -0.09407
  Beta virt. eigenvalues --    0.07256   0.08073   0.08821   0.09502   0.10120
  Beta virt. eigenvalues --    0.10788   0.11181   0.11807   0.12412   0.12660
  Beta virt. eigenvalues --    0.13080   0.14110   0.14220   0.14886   0.15216

 Mulliken charges and spin densities:
               1          2
     1  C    0.550695  -1.109435
     2  C   -0.851445   0.752431
     3  C    0.341591  -0.896788
     4  C   -0.085057  -0.086363
     5  N    0.055645   0.080406
     6  C   -0.448282   0.091274
     7  C    0.717313  -0.983247
     8  N   -0.395530  -0.001445
     9  N    0.296825  -0.212328
    10  N   -0.304764   0.297365
    11  N   -0.405216   0.344653
    12  H   -0.071352   0.226809
    13  H   -0.116995   0.244098
    14  H   -0.130848   0.245062
    15  H    0.144149  -0.017167
    16  H   -0.021174   0.163765
    17  H    0.092255   0.046882
    18  H   -0.150345   0.266531
    19  H    0.024735   0.116800
    20  H    0.081084   0.080750
    21  H    0.100303   0.068890
    22  H    0.153959  -0.030512
    23  H   -0.211973   0.352610
    24  H   -0.365424   0.483802
    25  H   -0.178097   0.404098
    26  H    0.177948   0.071059
 Sum of Mulliken charges =  -1.00000   1.00000

 Dipole moment (field-independent basis, Debye):
    X=              1.3771    Y=             -2.3053    Z=             -3.0137  Tot=              4.0365
 Quadrupole moment (field-independent basis, Debye-Ang):
   XX=           -117.7026   YY=           -106.0444   ZZ=            -92.5302
   XY=             -0.0840   XZ=              4.0555   YZ=              5.6268

 Summary of Natural Population Analysis:

                                       Natural Population
                Natural  -----------------------------------------------
    Atom  No    Charge         Core      Valence    Rydberg      Total
 -----------------------------------------------------------------------
      C    1   -0.29059      0.99967     2.28591    0.00501     3.29059
      C    2   -0.19300      0.99964     2.18509    0.00827     3.19300
      C    3   -0.19007      0.99962     2.18086    0.00959     3.19007
      C    4   -0.08974      0.99959     2.07713    0.01302     3.08974
      N    5   -0.18522      0.99971     2.67228    0.01323     3.68522
      C    6   -0.08730      0.99960     2.07546    0.01224     3.08730
      C    7   -0.10052      0.99963     2.08949    0.01139     3.10052
      N    8   -0.42980      0.99977     2.91862    0.01141     3.92980
      N    9   -0.16951      0.99972     2.65318    0.01661     3.66951
      N   10    0.14776      0.99970     2.33698    0.01556     3.35224
      N   11    0.01953      0.99981     2.46801    0.01264     3.48047
      H   12    0.10733      0.00000     0.39111    0.00157     0.39267
      H   13    0.09550      0.00000     0.40368    0.00081     0.40450
      H   14    0.09123      0.00000     0.40767    0.00110     0.40877
      H   15    0.09970      0.00000     0.39828    0.00202     0.40030
      H   16    0.08968      0.00000     0.40930    0.00102     0.41032
      H   17    0.09592      0.00000     0.40282    0.00126     0.40408
      H   18    0.09112      0.00000     0.40783    0.00104     0.40888
      H   19    0.09101      0.00000     0.40770    0.00130     0.40899
      H   20    0.09163      0.00000     0.40618    0.00219     0.40837
      H   21    0.09931      0.00000     0.39938    0.00131     0.40069
      H   22    0.09129      0.00000     0.40772    0.00099     0.40871
      H   23    0.08695      0.00000     0.41161    0.00144     0.41305
      H   24    0.07933      0.00000     0.41885    0.00182     0.42067
      H   25    0.17141      0.00000     0.32604    0.00255     0.32859
      H   26    0.18703      0.00000     0.31047    0.00250     0.31297
 =======================================================================
   * Total *   -0.00000     10.99647    31.85165    0.15187    43.00000

 Normal termination of Gaussian 16 at Tue Dec  8 22:00:58 2020.
