 Gaussian 16, Revision A.03,

 -----------------------------------------------------------
 # opt freq B3LYP/6-31G(d) empiricaldispersion=gd3bj scf=xqc
 -----------------------------------------------------------

 -------------------------------
 CID_104131341_JID_8687_neutraal
 -------------------------------
 Symbolic Z-matrix:
 Charge =  0 Multiplicity = 1

 SCF Done:  E(RB3LYP) =  -807.932586810     A.U. after   14 cycles
 SCF Done:  E(RB3LYP) =  -807.938156813     A.U. after   12 cycles
 SCF Done:  E(RB3LYP) =  -807.939054020     A.U. after   12 cycles
 SCF Done:  E(RB3LYP) =  -807.935809073     A.U. after   12 cycles
 SCF Done:  E(RB3LYP) =  -807.939231515     A.U. after   12 cycles
 SCF Done:  E(RB3LYP) =  -807.939732075     A.U. after   11 cycles
 SCF Done:  E(RB3LYP) =  -807.939835793     A.U. after   11 cycles
 SCF Done:  E(RB3LYP) =  -807.939882633     A.U. after   10 cycles
 SCF Done:  E(RB3LYP) =  -807.939908855     A.U. after   10 cycles
 SCF Done:  E(RB3LYP) =  -807.939935408     A.U. after   10 cycles
 SCF Done:  E(RB3LYP) =  -807.948757269     A.U. after    8 cycles
 SCF Done:  E(RB3LYP) =  -807.948757765     A.U. after    8 cycles
 SCF Done:  E(RB3LYP) =  -807.948757948     A.U. after    8 cycles
 SCF Done:  E(RB3LYP) =  -807.948757981     A.U. after    7 cycles
 SCF Done:  E(RB3LYP) =  -807.948758020     A.U. after    6 cycles
 Optimization completed.
    -- Stationary point found.
 Normal termination of Gaussian 16 at Fri Dec 11 22:25:19 2020.

 --------------------------------------------------------------------
 #N Geom=AllCheck Guess=TCheck SCRF=Check GenChk RB3LYP/6-31G(d) Freq
 --------------------------------------------------------------------

 Structure from the checkpoint file:  "JID_8687.chk"
 -------------------------------
 CID_104131341_JID_8687_neutraal
 -------------------------------
 Charge =  0 Multiplicity = 1

 SCF Done:  E(RB3LYP) =  -807.948758020     A.U. after    1 cycles

  Exact polarizability: 195.282   0.162 181.125 -19.852   7.977 130.217
 Approx polarizability: 249.526  -1.549 269.595 -35.606  11.882 195.789

                      1                      2                      3
                      A                      A                      A
 Frequencies --     21.4936                28.0127                40.2974
 Red. masses --      3.4552                 3.7935                 2.6192
 Frc consts  --      0.0009                 0.0018                 0.0025
 IR Inten    --      0.1149                 0.1951                 1.0751

                      4                      5                      6
                      A                      A                      A
 Frequencies --     49.1584                58.1465                73.6698
 Red. masses --      2.8191                 3.0068                 1.1074
 Frc consts  --      0.0040                 0.0060                 0.0035
 IR Inten    --      1.5145                 0.4298                 0.8931

                      7                      8                      9
                      A                      A                      A
 Frequencies --     77.9708                86.2287               100.7753
 Red. masses --      2.5527                 3.3541                 2.9351
 Frc consts  --      0.0091                 0.0147                 0.0176
 IR Inten    --      0.2907                 1.5352                 1.6838

                     10                     11                     12
                      A                      A                      A
 Frequencies --    134.9291               144.4635               190.7248
 Red. masses --      3.5067                 2.0521                 3.0383
 Frc consts  --      0.0376                 0.0252                 0.0651
 IR Inten    --      3.3371                 1.2459                 1.3974

                     13                     14                     15
                      A                      A                      A
 Frequencies --    201.8233               215.9299               245.5677
 Red. masses --      3.8121                 2.9252                 3.3887
 Frc consts  --      0.0915                 0.0804                 0.1204
 IR Inten    --      2.2413                 3.4039                 3.4918

                     16                     17                     18
                      A                      A                      A
 Frequencies --    253.6249               256.1386               288.1716
 Red. masses --      1.3406                 1.6602                 1.9357
 Frc consts  --      0.0508                 0.0642                 0.0947
 IR Inten    --      2.4920                 0.0832                 3.3314

                     19                     20                     21
                      A                      A                      A
 Frequencies --    293.1855               311.9527               328.6568
 Red. masses --      2.5272                 3.0609                 2.9761
 Frc consts  --      0.1280                 0.1755                 0.1894
 IR Inten    --      0.3207                 1.5653                 1.1139

                     22                     23                     24
                      A                      A                      A
 Frequencies --    351.0860               383.2781               411.8718
 Red. masses --      2.2497                 3.5507                 2.4736
 Frc consts  --      0.1634                 0.3073                 0.2472
 IR Inten    --      0.4582                 2.5365                 0.1655

                     25                     26                     27
                      A                      A                      A
 Frequencies --    481.1398               527.5430               538.3403
 Red. masses --      2.6275                 3.2338                 3.3309
 Frc consts  --      0.3584                 0.5303                 0.5688
 IR Inten    --      9.7763                 1.9712                 4.4374

                     28                     29                     30
                      A                      A                      A
 Frequencies --    548.1042               555.6156               592.2209
 Red. masses --      3.6795                 2.9984                 4.7240
 Frc consts  --      0.6513                 0.5454                 0.9762
 IR Inten    --      4.3574                 3.0591                11.3013

                     31                     32                     33
                      A                      A                      A
 Frequencies --    639.8379               664.9473               751.6092
 Red. masses --      3.8606                 4.3688                 1.2184
 Frc consts  --      0.9312                 1.1381                 0.4055
 IR Inten    --      8.9571                 3.2682                 5.8227

                     34                     35                     36
                      A                      A                      A
 Frequencies --    759.8965               803.8533               826.8845
 Red. masses --      4.8757                 1.2672                 1.9739
 Frc consts  --      1.6588                 0.4824                 0.7952
 IR Inten    --      2.5656                77.6151                 1.1166

                     37                     38                     39
                      A                      A                      A
 Frequencies --    834.2561               856.7876               881.2727
 Red. masses --      2.6493                 1.2484                 1.8980
 Frc consts  --      1.0864                 0.5400                 0.8685
 IR Inten    --      1.7001                22.5307                 9.0975

                     40                     41                     42
                      A                      A                      A
 Frequencies --    932.7646               942.9396               965.2563
 Red. masses --      2.2465                 1.3133                 1.8206
 Frc consts  --      1.1516                 0.6880                 0.9994
 IR Inten    --      8.1195                30.8036                 8.2200

                     43                     44                     45
                      A                      A                      A
 Frequencies --    970.6687               981.4613              1000.2287
 Red. masses --      2.8426                 2.4230                 1.9416
 Frc consts  --      1.5780                 1.3752                 1.1445
 IR Inten    --     17.4160                19.5217                 7.6562

                     46                     47                     48
                      A                      A                      A
 Frequencies --   1013.5706              1017.3886              1019.5013
 Red. masses --      2.7048                 1.5752                 2.9903
 Frc consts  --      1.6372                 0.9606                 1.8312
 IR Inten    --      3.3448                 8.9076                 7.2135

                     49                     50                     51
                      A                      A                      A
 Frequencies --   1021.9968              1050.6600              1073.3132
 Red. masses --      2.1091                 1.8687                 1.5654
 Frc consts  --      1.2979                 1.2154                 1.0625
 IR Inten    --     10.8775                 6.3423                 4.6295

                     52                     53                     54
                      A                      A                      A
 Frequencies --   1095.0346              1131.2655              1142.3415
 Red. masses --      1.9756                 2.2174                 3.4896
 Frc consts  --      1.3958                 1.6720                 2.6830
 IR Inten    --      2.4400                33.3876                57.3606

                     55                     56                     57
                      A                      A                      A
 Frequencies --   1148.9374              1152.0978              1163.3941
 Red. masses --      1.8443                 2.1157                 3.4216
 Frc consts  --      1.4344                 1.6545                 2.7285
 IR Inten    --      7.3788                27.3747               111.7047

                     58                     59                     60
                      A                      A                      A
 Frequencies --   1172.3996              1181.4537              1187.7785
 Red. masses --      1.6424                 2.1715                 1.5834
 Frc consts  --      1.3301                 1.7858                 1.3162
 IR Inten    --     16.0788                 7.7274                38.1928

                     61                     62                     63
                      A                      A                      A
 Frequencies --   1206.5781              1253.4046              1269.1045
 Red. masses --      2.0480                 1.4766                 1.1550
 Frc consts  --      1.7567                 1.3667                 1.0960
 IR Inten    --     21.7071                92.9895                 2.6731

                     64                     65                     66
                      A                      A                      A
 Frequencies --   1286.4596              1296.8049              1305.8024
 Red. masses --      1.2617                 1.4682                 1.3712
 Frc consts  --      1.2303                 1.4547                 1.3775
 IR Inten    --      2.5899                 8.9814                 2.9417

                     67                     68                     69
                      A                      A                      A
 Frequencies --   1324.7337              1342.1054              1350.3741
 Red. masses --      2.2597                 1.1520                 1.5063
 Frc consts  --      2.3365                 1.2226                 1.6183
 IR Inten    --     16.0253                 3.9918                12.0145

                     70                     71                     72
                      A                      A                      A
 Frequencies --   1369.9451              1392.9938              1397.2004
 Red. masses --      2.1091                 1.3546                 1.6392
 Frc consts  --      2.3321                 1.5487                 1.8854
 IR Inten    --    109.0832                17.3770                84.3106

                     73                     74                     75
                      A                      A                      A
 Frequencies --   1412.0972              1423.6664              1429.4811
 Red. masses --      1.4457                 1.3224                 1.3536
 Frc consts  --      1.6985                 1.5791                 1.6296
 IR Inten    --     28.0563                29.8362                24.1263

                     76                     77                     78
                      A                      A                      A
 Frequencies --   1441.1487              1443.3030              1455.1019
 Red. masses --      1.4494                 1.3094                 1.3875
 Frc consts  --      1.7736                 1.6071                 1.7309
 IR Inten    --      8.7124                 4.5518                 2.6918

                     79                     80                     81
                      A                      A                      A
 Frequencies --   1468.4929              1484.1909              1485.6700
 Red. masses --      2.1125                 1.2356                 2.8032
 Frc consts  --      2.6840                 1.6036                 3.6454
 IR Inten    --    124.9107                13.7121                10.4529

                     82                     83                     84
                      A                      A                      A
 Frequencies --   1504.3644              1506.0669              1509.9783
 Red. masses --      1.2353                 1.0454                 1.0828
 Frc consts  --      1.6471                 1.3971                 1.4545
 IR Inten    --     23.8593                 4.9789                 4.3197

                     85                     86                     87
                      A                      A                      A
 Frequencies --   1511.8852              1517.1713              1519.8047
 Red. masses --      1.1064                 1.0565                 1.1135
 Frc consts  --      1.4901                 1.4328                 1.5154
 IR Inten    --      3.4934                 9.7263                 9.7808

                     88                     89                     90
                      A                      A                      A
 Frequencies --   1520.8648              1528.3428              1531.2079
 Red. masses --      1.0857                 1.1757                 1.0955
 Frc consts  --      1.4796                 1.6180                 1.5133
 IR Inten    --      4.2770                34.9324                 5.1058

                     91                     92                     93
                      A                      A                      A
 Frequencies --   1532.8798              1537.8503              1545.5215
 Red. masses --      1.1359                 1.0661                 1.0492
 Frc consts  --      1.5725                 1.4856                 1.4766
 IR Inten    --     10.3320                 3.9373                10.8427

                     94                     95                     96
                      A                      A                      A
 Frequencies --   1557.2551              1631.3337              1657.8392
 Red. masses --      1.0800                 8.1238                 5.4029
 Frc consts  --      1.5431                12.7378                 8.7491
 IR Inten    --     11.7606               177.6900               149.8628

                     97                     98                     99
                      A                      A                      A
 Frequencies --   2930.0767              2959.4700              3004.4355
 Red. masses --      1.0741                 1.0603                 1.0632
 Frc consts  --      5.4330                 5.4715                 5.6545
 IR Inten    --     68.9742               133.5330                32.7561

                    100                    101                    102
                      A                      A                      A
 Frequencies --   3024.0452              3032.4963              3033.0909
 Red. masses --      1.0582                 1.0808                 1.0698
 Frc consts  --      5.7015                 5.8559                 5.7986
 IR Inten    --     58.2391                 5.3975                31.4162

                    103                    104                    105
                      A                      A                      A
 Frequencies --   3042.0936              3044.9204              3052.3511
 Red. masses --      1.0419                 1.0629                 1.0641
 Frc consts  --      5.6812                 5.8061                 5.8413
 IR Inten    --     43.0754                28.4171                28.6196

                    106                    107                    108
                      A                      A                      A
 Frequencies --   3055.7994              3058.4447              3072.7700
 Red. masses --      1.0359                 1.0959                 1.1012
 Frc consts  --      5.6995                 6.0397                 6.1262
 IR Inten    --     24.8446                40.0815                64.8870

                    109                    110                    111
                      A                      A                      A
 Frequencies --   3077.2225              3085.8491              3095.4464
 Red. masses --      1.0748                 1.0955                 1.0989
 Frc consts  --      5.9966                 6.1464                 6.2037
 IR Inten    --     34.7473                 1.8446                17.8318

                    112                    113                    114
                      A                      A                      A
 Frequencies --   3103.9385              3109.1989              3115.3414
 Red. masses --      1.1084                 1.1001                 1.1008
 Frc consts  --      6.2916                 6.2660                 6.2944
 IR Inten    --     33.0797                50.7867                13.7584

                    115                    116                    117
                      A                      A                      A
 Frequencies --   3116.5899              3127.2797              3136.6733
 Red. masses --      1.1022                 1.1018                 1.1032
 Frc consts  --      6.3078                 6.3485                 6.3949
 IR Inten    --     55.2540                28.4925                18.1033

                    118                    119                    120
                      A                      A                      A
 Frequencies --   3190.7632              3256.8444              3493.7801
 Red. masses --      1.0908                 1.0909                 1.0741
 Frc consts  --      6.5431                 6.8176                 7.7247
 IR Inten    --     14.6829                 9.5031                 0.3182

 - Thermochemistry -
 -------------------
 Temperature   298.150 Kelvin.  Pressure   1.00000 Atm.
 Atom     1 has atomic number  6 and mass  12.00000

 Molecular mass:   252.18378 amu.
 Principal axes and moments of inertia in atomic units:
                           1         2         3
     Eigenvalues --  3722.466176482.738048709.92526
           X            0.99997  -0.00738   0.00138
           Y            0.00739   0.99996  -0.00580
           Z           -0.00134   0.00581   0.99998
 This molecule is an asymmetric top.
 Rotational symmetry number  1.
 Warning -- assumption of classical behavior for rotation
           may cause significant error
 Rotational temperatures (Kelvin)      0.02327     0.01336     0.00994
 Rotational constants (GHZ):           0.48482     0.27839     0.20721
 Zero-point vibrational energy     977013.3 (Joules/Mol)
                                  233.51178 (Kcal/Mol)
 Warning -- explicit consideration of  30 degrees of freedom as
           vibrations may cause significant error
 Vibrational temperatures:     30.92    40.30    57.98    70.73    83.66
          (Kelvin)            105.99   112.18   124.06   144.99   194.13
                              207.85   274.41   290.38   310.67   353.32
                              364.91   368.53   414.61   421.83   448.83
                              472.86   505.13   551.45   592.59   692.25
                              759.02   774.55   788.60   799.41   852.07
                              920.58   956.71  1081.40  1093.32  1156.57
                             1189.70  1200.31  1232.73  1267.95  1342.04
                             1356.68  1388.79  1396.58  1412.10  1439.11
                             1458.30  1463.80  1466.83  1470.43  1511.67
                             1544.26  1575.51  1627.64  1643.57  1653.06
                             1657.61  1673.86  1686.82  1699.85  1708.95
                             1736.00  1803.37  1825.96  1850.93  1865.81
                             1878.76  1906.00  1930.99  1942.89  1971.05
                             2004.21  2010.26  2031.69  2048.34  2056.70
                             2073.49  2076.59  2093.57  2112.83  2135.42
                             2137.55  2164.44  2166.89  2172.52  2175.27
                             2182.87  2186.66  2188.19  2198.94  2203.07
                             2205.47  2212.62  2223.66  2240.54  2347.13
                             2385.26  4215.73  4258.02  4322.71  4350.93
                             4363.09  4363.94  4376.89  4380.96  4391.65
                             4396.61  4400.42  4421.03  4427.44  4439.85
                             4453.66  4465.88  4473.44  4482.28  4484.08
                             4499.46  4512.97  4590.80  4685.87  5026.77

 Zero-point correction=                           0.372125 (Hartree/Particle)
 Thermal correction to Energy=                    0.392237
 Thermal correction to Enthalpy=                  0.393181
 Thermal correction to Gibbs Free Energy=         0.320997
 Sum of electronic and zero-point Energies=           -807.576633
 Sum of electronic and thermal Energies=              -807.556521
 Sum of electronic and thermal Enthalpies=            -807.555577
 Sum of electronic and thermal Free Energies=         -807.627761

                     E (Thermal)             CV                S
                      KCal/Mol        Cal/Mol-Kelvin    Cal/Mol-Kelvin
 Total                  246.132             72.903            151.924
 Electronic               0.000              0.000              0.000
 Translational            0.889              2.981             42.475
 Rotational               0.889              2.981             33.707
 Vibrational            244.355             66.942             75.742
 Vibration     1          0.593              1.985              6.491
 Vibration     2          0.593              1.984              5.965
 Vibration     3          0.594              1.981              5.244
 Vibration     4          0.595              1.978              4.851
 Vibration     5          0.596              1.974              4.519
 Vibration     6          0.599              1.966              4.053
 Vibration     7          0.599              1.964              3.941
 Vibration     8          0.601              1.959              3.744
 Vibration     9          0.604              1.948              3.439
 Vibration    10          0.613              1.918              2.875
 Vibration    11          0.616              1.909              2.744
 Vibration    12          0.634              1.853              2.221
 Vibration    13          0.639              1.837              2.116
 Vibration    14          0.645              1.817              1.993
 Vibration    15          0.660              1.770              1.762
 Vibration    16          0.665              1.757              1.705
 Vibration    17          0.666              1.752              1.688
 Vibration    18          0.685              1.696              1.485
 Vibration    19          0.688              1.686              1.456
 Vibration    20          0.700              1.651              1.352
 Vibration    21          0.712              1.618              1.267
 Vibration    22          0.728              1.573              1.161
 Vibration    23          0.752              1.506              1.026
 Vibration    24          0.776              1.444              0.920
 Vibration    25          0.837              1.292              0.707
 Vibration    26          0.882              1.189              0.593
 Vibration    27          0.893              1.165              0.569
 Vibration    28          0.903              1.144              0.548
 Vibration    29          0.911              1.127              0.533
 Vibration    30          0.950              1.048              0.463

 Optimization completed.
    -- Stationary point found.
 Normal termination of Gaussian 16 at Fri Dec 11 22:44:13 2020.

 ----------------------------------------------------------------------
 # B3LYP/6-311++G(d,p) empiricaldispersion=gd3bj scf=xqc pop=npa geom=c
 heck
 ----------------------------------------------------------------------

 ---------------------------------------
 CID_104131341_JID_8687_Energie_neutraal
 ---------------------------------------
 Structure from the checkpoint file:  "JID_8687.chk"
 Charge =  0 Multiplicity = 1

 SCF Done:  E(RB3LYP) =  -808.175025555     A.U. after   14 cycles
 Normal termination of Gaussian 16 at Fri Dec 11 22:52:05 2020.

 ----------------------------------------------------------------------
 # B3LYP/6-311++G(d,p) empiricaldispersion=gd3bj scf=xqc pop=npa geom=c
 heck
 ----------------------------------------------------------------------

 -------------------------------------
 CID_104131341_JID_8687_Energie_kation
 -------------------------------------
 Structure from the checkpoint file:  "JID_8687.chk"
 Charge =  1 Multiplicity = 2

 SCF Done:  E(UB3LYP) =  -807.885025344     A.U. after   23 cycles
 Normal termination of Gaussian 16 at Fri Dec 11 23:09:27 2020.
 Gaussian 16:  ES64L-G16RevA.03 25-Dec-2016

 ----------------------------------------------------------------------
 # B3LYP/6-311++G(d,p) empiricaldispersion=gd3bj scf=xqc pop=npa geom=c
 heck
 ----------------------------------------------------------------------

 ------------------------------------
 CID_104131341_JID_8687_Energie_anion
 ------------------------------------
 Structure from the checkpoint file:  "JID_8687.chk"
 Charge = -1 Multiplicity = 2

                         Standard orientation:
 ---------------------------------------------------------------------
 Center     Atomic      Atomic             Coordinates (Angstroms)
 Number     Number       Type             X           Y           Z
 ---------------------------------------------------------------------
      1          6           0       -4.847429    0.339039   -1.209023
      2          6           0       -3.778601   -0.594208   -0.633920
      3          6           0       -2.362783   -0.336106   -1.167993
      4          6           0       -1.836439    1.065189   -0.887963
      5          8           0       -1.891069    1.284762    0.521158
      6          6           0       -1.387136    2.533486    0.958277
      7          6           0        0.013869    2.456842    1.555681
      8          8           0        1.060069    2.368583    0.588205
      9          6           0        1.601900    1.159875    0.266719
     10          7           0        2.802718    1.263304   -0.291394
     11          6           0        3.421563    0.132634   -0.671879
     12          6           0        2.850656   -1.127774   -0.498892
     13          6           0        1.575236   -1.225983    0.068850
     14          6           0        0.934714   -0.058556    0.472518
     15          6           0        0.897432   -2.574100    0.180514
     16          7           0       -0.286943   -2.546003    1.024449
     17          6           0       -0.980067   -3.825827    1.077063
     18          6           0        4.781518    0.305358   -1.297890
     19          1           0       -4.671766    1.378922   -0.912027
     20          1           0       -5.846402    0.061717   -0.853944
     21          1           0       -4.861282    0.302357   -2.305867
     22          1           0       -3.761231   -0.502280    0.457699
     23          1           0       -4.046262   -1.635719   -0.855768
     24          1           0       -1.675922   -1.060665   -0.715360
     25          1           0       -2.336758   -0.490173   -2.256210
     26          1           0       -0.805413    1.159049   -1.253838
     27          1           0       -2.442412    1.829683   -1.398559
     28          1           0       -1.395269    3.271465    0.143956
     29          1           0       -2.061317    2.895024    1.747002
     30          1           0        0.207506    3.390738    2.096098
     31          1           0        0.075529    1.628106    2.270446
     32          1           0        3.384496   -2.018829   -0.817213
     33          1           0       -0.071151   -0.093599    0.866929
     34          1           0        0.573922   -2.883664   -0.823971
     35          1           0        1.643313   -3.328694    0.498705
     36          1           0       -0.022312   -2.257185    1.964371
     37          1           0       -0.343967   -4.674224    1.390586
     38          1           0       -1.824862   -3.752892    1.768538
     39          1           0       -1.379763   -4.059582    0.083434
     40          1           0        4.710431    0.934974   -2.191798
     41          1           0        5.458914    0.813638   -0.602760
     42          1           0        5.222951   -0.655254   -1.579118
 ---------------------------------------------------------------------

 SCF Done:  E(UB3LYP) =  -808.162348320     A.U. after   33 cycles
 SCF Done:  E(UB3LYP) =  -808.162348320     a.u. after    1 cycles

 The electronic state is 2-A.
 Alpha  occ. eigenvalues --  -19.06298 -19.03819 -14.20883 -14.20794 -10.17219
 Alpha  occ. eigenvalues --  -10.14227 -10.13690 -10.12524 -10.12432 -10.10835
 Alpha  occ. eigenvalues --  -10.10487 -10.09104 -10.08119 -10.07853 -10.07739
 Alpha  occ. eigenvalues --  -10.06879 -10.06871 -10.06841  -0.98632  -0.94984
 Alpha  occ. eigenvalues --   -0.84991  -0.81802  -0.72182  -0.71156  -0.69568
 Alpha  occ. eigenvalues --   -0.66598  -0.62642  -0.62019  -0.60823  -0.56934
 Alpha  occ. eigenvalues --   -0.55026  -0.54197  -0.50622  -0.49770  -0.47657
 Alpha  occ. eigenvalues --   -0.44335  -0.42672  -0.41172  -0.41047  -0.40017
 Alpha  occ. eigenvalues --   -0.38168  -0.37113  -0.36718  -0.35871  -0.35355
 Alpha  occ. eigenvalues --   -0.34285  -0.33826  -0.33546  -0.32576  -0.31544
 Alpha  occ. eigenvalues --   -0.31001  -0.30771  -0.30507  -0.29214  -0.28771
 Alpha  occ. eigenvalues --   -0.28097  -0.28062  -0.26831  -0.25862  -0.24794
 Alpha  occ. eigenvalues --   -0.24336  -0.23652  -0.23173  -0.22404  -0.18374
 Alpha  occ. eigenvalues --   -0.17707  -0.17086  -0.14468  -0.13725   0.04023
 Alpha virt. eigenvalues --    0.05689   0.06011   0.06314   0.06551   0.07629
 Alpha virt. eigenvalues --    0.07859   0.08135   0.08241   0.08514   0.09322
 Alpha virt. eigenvalues --    0.09849   0.09969   0.10593   0.10874   0.11215

  Beta  occ. eigenvalues --  -19.06296 -19.03814 -14.20880 -14.20777 -10.17219
  Beta  occ. eigenvalues --  -10.14215 -10.13676 -10.12521 -10.12427 -10.10808
  Beta  occ. eigenvalues --  -10.10487 -10.09062 -10.08108 -10.07843 -10.07728
  Beta  occ. eigenvalues --  -10.06868 -10.06857 -10.06830  -0.98628  -0.94976
  Beta  occ. eigenvalues --   -0.84984  -0.81774  -0.72165  -0.71137  -0.69552
  Beta  occ. eigenvalues --   -0.66576  -0.62620  -0.61979  -0.60792  -0.56905
  Beta  occ. eigenvalues --   -0.54943  -0.54165  -0.50592  -0.49738  -0.47623
  Beta  occ. eigenvalues --   -0.44316  -0.42652  -0.41150  -0.41023  -0.39983
  Beta  occ. eigenvalues --   -0.38128  -0.37096  -0.36691  -0.35850  -0.35323
  Beta  occ. eigenvalues --   -0.34248  -0.33792  -0.33521  -0.32552  -0.31525
  Beta  occ. eigenvalues --   -0.30970  -0.30751  -0.30486  -0.29191  -0.28745
  Beta  occ. eigenvalues --   -0.28072  -0.28013  -0.26805  -0.25842  -0.24777
  Beta  occ. eigenvalues --   -0.24320  -0.23636  -0.23155  -0.22382  -0.18356
  Beta  occ. eigenvalues --   -0.17695  -0.17072  -0.14444  -0.13691
  Beta virt. eigenvalues --    0.05876   0.06193   0.06330   0.06793   0.06982
  Beta virt. eigenvalues --    0.07896   0.08086   0.08507   0.08600   0.08791
  Beta virt. eigenvalues --    0.09615   0.10059   0.10216   0.10634   0.11128

 Mulliken charges and spin densities:
               1          2
     1  C    0.103340  -0.794112
     2  C   -0.307554   0.196667
     3  C   -0.373495   0.137173
     4  C   -0.219684  -0.210179
     5  O   -0.057576   0.021019
     6  C    0.192932  -0.352847
     7  C   -0.127888  -0.140928
     8  O   -0.003703   0.013705
     9  C   -1.795906   1.045235
    10  N   -0.058007   0.020233
    11  C   -0.492844   0.174676
    12  C   -0.104805  -0.239456
    13  C    0.817376  -0.113509
    14  C    0.391620  -0.002925
    15  C    0.104869  -0.785711
    16  N   -0.269599   0.234731
    17  C    0.967266  -1.340172
    18  C    0.773212  -1.307027
    19  H   -0.018551   0.165971
    20  H   -0.117361   0.252651
    21  H    0.037237   0.092076
    22  H    0.087333   0.079221
    23  H   -0.075748   0.217161
    24  H    0.753841  -0.500181
    25  H   -0.283335   0.426176
    26  H    0.155716   0.044234
    27  H    0.154805  -0.019842
    28  H    0.135989   0.015778
    29  H   -0.236044   0.388037
    30  H   -0.204727   0.389167
    31  H   -0.048371   0.241453
    32  H   -0.487921   0.671833
    33  H    0.861149  -0.725845
    34  H    0.067164   0.122904
    35  H   -0.328955   0.489710
    36  H   -0.174099   0.410683
    37  H   -0.470921   0.595028
    38  H   -0.267454   0.412336
    39  H   -0.184256   0.321548
    40  H    0.088596   0.065229
    41  H    0.085276   0.071177
    42  H   -0.068918   0.216922
 Sum of Mulliken charges =  -1.00000   1.00000

 Dipole moment (field-independent basis, Debye):
    X=              0.6018    Y=              4.9580    Z=             -1.9778  Tot=              5.3718
 Quadrupole moment (field-independent basis, Debye-Ang):
   XX=           -186.5129   YY=           -183.9435   ZZ=           -149.0153
   XY=             -1.4066   XZ=              0.9050   YZ=              3.5605

 Summary of Natural Population Analysis:

                                       Natural Population
                Natural  -----------------------------------------------
    Atom  No    Charge         Core      Valence    Rydberg      Total
 -----------------------------------------------------------------------
      C    1   -0.28645      0.99967     2.28246    0.00432     3.28645
      C    2   -0.19214      0.99964     2.18404    0.00846     3.19214
      C    3   -0.20476      0.99962     2.19575    0.00940     3.20476
      C    4   -0.00754      0.99957     1.99841    0.00957     3.00754
      O    5   -0.30788      0.99988     3.29816    0.00985     4.30788
      C    6   -0.01994      0.99957     2.00798    0.01239     3.01994
      C    7   -0.02473      0.99956     2.01300    0.01218     3.02473
      O    8   -0.27588      0.99985     3.26706    0.00897     4.27588
      C    9    0.27415      0.99943     1.70888    0.01754     2.72585
      N   10   -0.25677      0.99962     2.74687    0.01027     3.75677
      C   11    0.11353      0.99955     1.87266    0.01426     2.88647
      C   12   -0.13735      0.99945     2.12898    0.00892     3.13735
      C   13    0.01509      0.99952     1.97532    0.01008     2.98491
      C   14   -0.17251      0.99944     2.16451    0.00856     3.17251
      C   15   -0.09474      0.99958     2.08338    0.01179     3.09474
      N   16   -0.33690      0.99975     2.82555    0.01159     3.83690
      C   17   -0.17569      0.99966     2.16753    0.00850     3.17569
      C   18   -0.29596      0.99963     2.29096    0.00537     3.29596
      H   19    0.09536      0.00000     0.40342    0.00122     0.40464
      H   20    0.09787      0.00000     0.40120    0.00093     0.40213
      H   21    0.09257      0.00000     0.40632    0.00111     0.40743
      H   22    0.10156      0.00000     0.39681    0.00163     0.39844
      H   23    0.09532      0.00000     0.40355    0.00113     0.40468
      H   24    0.11188      0.00000     0.38553    0.00260     0.38812
      H   25    0.09389      0.00000     0.40516    0.00096     0.40611
      H   26    0.08557      0.00000     0.41231    0.00212     0.41443
      H   27    0.07746      0.00000     0.42121    0.00132     0.42254
      H   28    0.08414      0.00000     0.41454    0.00133     0.41586
      H   29    0.09087      0.00000     0.40773    0.00140     0.40913
      H   30    0.09271      0.00000     0.40600    0.00129     0.40729
      H   31    0.09180      0.00000     0.40654    0.00166     0.40820
      H   32    0.10442      0.00000     0.39442    0.00116     0.39558
      H   33    0.12385      0.00000     0.37183    0.00431     0.37615
      H   34    0.10106      0.00000     0.39752    0.00142     0.39894
      H   35    0.09064      0.00000     0.40720    0.00216     0.40936
      H   36    0.17320      0.00000     0.32366    0.00314     0.32680
      H   37    0.08154      0.00000     0.41623    0.00223     0.41846
      H   38    0.09676      0.00000     0.40211    0.00112     0.40324
      H   39    0.09143      0.00000     0.40713    0.00144     0.40857
      H   40    0.10613      0.00000     0.39274    0.00113     0.39387
      H   41    0.10654      0.00000     0.39225    0.00121     0.39346
      H   42    0.09992      0.00000     0.39931    0.00078     0.40008
 =======================================================================
   * Total *    0.00000     17.99299    50.78619    0.22082    69.00000

 Normal termination of Gaussian 16 at Fri Dec 11 23:34:07 2020.
