 Gaussian 16, Revision A.03,

 -----------------------------------------------------------
 # opt freq B3LYP/6-31G(d) empiricaldispersion=gd3bj scf=xqc
 -----------------------------------------------------------

 ------------------------------
 CID_83752620_JID_3219_neutraal
 ------------------------------
 Symbolic Z-matrix:
 Charge =  0 Multiplicity = 1

 SCF Done:  E(RB3LYP) =  -521.085864033     A.U. after   13 cycles
 SCF Done:  E(RB3LYP) =  -521.088864663     A.U. after   11 cycles
 SCF Done:  E(RB3LYP) =  -521.089227239     A.U. after   10 cycles
 SCF Done:  E(RB3LYP) =  -521.089478630     A.U. after   11 cycles
 SCF Done:  E(RB3LYP) =  -521.089534230     A.U. after   10 cycles
 SCF Done:  E(RB3LYP) =  -521.089549854     A.U. after    9 cycles
 SCF Done:  E(RB3LYP) =  -521.089551454     A.U. after    8 cycles
 SCF Done:  E(RB3LYP) =  -521.089551932     A.U. after    7 cycles
 Optimization completed.
    -- Stationary point found.
 Normal termination of Gaussian 16 at Wed Dec  9 22:26:50 2020.

 --------------------------------------------------------------------
 #N Geom=AllCheck Guess=TCheck SCRF=Check GenChk RB3LYP/6-31G(d) Freq
 --------------------------------------------------------------------

 Structure from the checkpoint file:  "JID_3219.chk"
 ------------------------------
 CID_83752620_JID_3219_neutraal
 ------------------------------
 Charge =  0 Multiplicity = 1

 SCF Done:  E(RB3LYP) =  -521.089551932     A.U. after    1 cycles

  Exact polarizability: 161.234   1.270 138.600   2.640  -3.034  79.758
 Approx polarizability: 225.552   2.039 214.970   5.970  -8.176 123.458

                      1                      2                      3
                      A                      A                      A
 Frequencies --     35.5178                78.6367                99.0724
 Red. masses --      1.0159                 2.8936                 3.4120
 Frc consts  --      0.0008                 0.0105                 0.0197
 IR Inten    --      0.2504                 0.5245                 0.6600

                      4                      5                      6
                      A                      A                      A
 Frequencies --    126.7315               181.7412               226.3952
 Red. masses --      3.2067                 3.2556                 2.7336
 Frc consts  --      0.0303                 0.0634                 0.0825
 IR Inten    --      1.5914                 0.2438                 2.3960

                      7                      8                      9
                      A                      A                      A
 Frequencies --    263.5743               290.0133               326.8758
 Red. masses --      2.9561                 1.6181                 1.4847
 Frc consts  --      0.1210                 0.0802                 0.0935
 IR Inten    --      5.9236                23.4414                32.7567

                     10                     11                     12
                      A                      A                      A
 Frequencies --    339.9864               371.1410               422.4897
 Red. masses --      2.9831                 3.1390                 3.2418
 Frc consts  --      0.2032                 0.2548                 0.3409
 IR Inten    --      0.2892                 1.9839                 0.0693

                     13                     14                     15
                      A                      A                      A
 Frequencies --    463.5065               482.1492               514.7328
 Red. masses --      3.3285                 3.6797                 2.7892
 Frc consts  --      0.4213                 0.5040                 0.4354
 IR Inten    --      5.9111                 4.5919                 0.9782

                     16                     17                     18
                      A                      A                      A
 Frequencies --    552.7412               568.4359               610.3431
 Red. masses --      4.4879                 3.1296                 3.3860
 Frc consts  --      0.8079                 0.5958                 0.7432
 IR Inten    --      2.3732                 2.7972                 3.7446

                     19                     20                     21
                      A                      A                      A
 Frequencies --    698.4011               748.0313               781.5185
 Red. masses --      3.9719                 4.4665                 3.2730
 Frc consts  --      1.1415                 1.4725                 1.1778
 IR Inten    --      0.6685                 0.1148                 2.4176

                     22                     23                     24
                      A                      A                      A
 Frequencies --    792.0661               826.4826               840.0974
 Red. masses --      1.1075                 2.6220                 1.3734
 Frc consts  --      0.4094                 1.0552                 0.5711
 IR Inten    --      0.3908                 7.3995                19.8881

                     25                     26                     27
                      A                      A                      A
 Frequencies --    872.2950               890.1417               903.9935
 Red. masses --      2.2935                 1.4658                 1.9383
 Frc consts  --      1.0282                 0.6843                 0.9333
 IR Inten    --     61.5981                38.7120                33.9264

                     28                     29                     30
                      A                      A                      A
 Frequencies --    934.7424               950.8380               965.1072
 Red. masses --      2.0607                 1.3495                 1.3332
 Frc consts  --      1.0609                 0.7189                 0.7317
 IR Inten    --      4.6474                 7.7065                 8.0286

                     31                     32                     33
                      A                      A                      A
 Frequencies --    973.4953               993.1474              1028.5507
 Red. masses --      1.8532                 2.1994                 1.4878
 Frc consts  --      1.0348                 1.2782                 0.9274
 IR Inten    --     17.6670                 4.2380                 0.7310

                     34                     35                     36
                      A                      A                      A
 Frequencies --   1056.2174              1063.0418              1073.4527
 Red. masses --      2.5898                 1.4689                 1.5828
 Frc consts  --      1.7023                 0.9780                 1.0746
 IR Inten    --     33.1405                 2.0587                10.7116

                     37                     38                     39
                      A                      A                      A
 Frequencies --   1081.0500              1085.7531              1124.6792
 Red. masses --      1.4969                 2.5932                 1.9069
 Frc consts  --      1.0307                 1.8012                 1.4211
 IR Inten    --      4.8096                 5.7861                 3.1048

                     40                     41                     42
                      A                      A                      A
 Frequencies --   1154.4037              1177.6382              1202.8089
 Red. masses --      1.4004                 1.3773                 1.3259
 Frc consts  --      1.0995                 1.1254                 1.1302
 IR Inten    --      1.2334                 4.2120                 0.3911

                     43                     44                     45
                      A                      A                      A
 Frequencies --   1211.6906              1230.2918              1240.7409
 Red. masses --      1.7441                 1.6359                 2.4304
 Frc consts  --      1.5087                 1.4589                 2.2044
 IR Inten    --     10.7170                 4.3474                 2.2016

                     46                     47                     48
                      A                      A                      A
 Frequencies --   1272.9009              1308.3672              1327.2460
 Red. masses --      1.8920                 1.5222                 1.9096
 Frc consts  --      1.8062                 1.5352                 1.9819
 IR Inten    --      1.0763                 0.7795                 1.4110

                     49                     50                     51
                      A                      A                      A
 Frequencies --   1334.6907              1370.1021              1392.1157
 Red. masses --      1.5484                 3.5437                 3.0104
 Frc consts  --      1.6251                 3.9194                 3.4373
 IR Inten    --      0.9665                 8.5433                 2.2186

                     52                     53                     54
                      A                      A                      A
 Frequencies --   1433.7205              1442.0921              1475.2918
 Red. masses --      1.4443                 1.2517                 3.0996
 Frc consts  --      1.7491                 1.5337                 3.9748
 IR Inten    --     23.8945                 0.0982                 4.0283

                     55                     56                     57
                      A                      A                      A
 Frequencies --   1490.4216              1514.7030              1518.7854
 Red. masses --      1.0893                 1.1622                 1.0508
 Frc consts  --      1.4257                 1.5710                 1.4280
 IR Inten    --      1.7579                 1.5818                 5.1379

                     58                     59                     60
                      A                      A                      A
 Frequencies --   1524.8250              1526.5636              1544.0251
 Red. masses --      1.3905                 1.1680                 2.5338
 Frc consts  --      1.9048                 1.6037                 3.5590
 IR Inten    --      6.7239                12.7106                16.3428

                     61                     62                     63
                      A                      A                      A
 Frequencies --   1641.6584              1674.3278              1692.3501
 Red. masses --      6.3142                 4.4656                 1.1935
 Frc consts  --     10.0261                 7.3759                 2.0139
 IR Inten    --      5.1758                20.2303                21.7219

                     64                     65                     66
                      A                      A                      A
 Frequencies --   3014.7063              3029.1993              3039.5265
 Red. masses --      1.0826                 1.0673                 1.0408
 Frc consts  --      5.7973                 5.7701                 5.6654
 IR Inten    --     22.3959                47.5651                37.7054

                     67                     68                     69
                      A                      A                      A
 Frequencies --   3094.5433              3096.2825              3123.5219
 Red. masses --      1.0984                 1.0953                 1.1026
 Frc consts  --      6.1970                 6.1866                 6.3381
 IR Inten    --     41.0354                24.0879                16.8669

                     70                     71                     72
                      A                      A                      A
 Frequencies --   3136.4860              3140.6873              3167.1002
 Red. masses --      1.0510                 1.0572                 1.0894
 Frc consts  --      6.0914                 6.1443                 6.4379
 IR Inten    --     20.9354                15.9773                20.4318

                     73                     74                     75
                      A                      A                      A
 Frequencies --   3178.0260              3207.6391              3211.6176
 Red. masses --      1.0884                 1.0929                 1.1195
 Frc consts  --      6.4765                 6.6254                 6.8032
 IR Inten    --     17.7526                13.1395                 1.2039

                     76                     77                     78
                      A                      A                      A
 Frequencies --   3227.7538              3453.8164              3543.7051
 Red. masses --      1.1168                 1.0492                 1.0926
 Frc consts  --      6.8551                 7.3742                 8.0838
 IR Inten    --     20.5195                 3.5328                 1.1747

 - Thermochemistry -
 -------------------
 Temperature   298.150 Kelvin.  Pressure   1.00000 Atm.
 Atom     1 has atomic number  6 and mass  12.00000

 Molecular mass:   173.12045 amu.
 Principal axes and moments of inertia in atomic units:
                           1         2         3
     Eigenvalues --  1606.180762528.989693899.95082
           X            0.99987  -0.01583   0.00044
           Y            0.01583   0.99987   0.00157
           Z           -0.00046  -0.00156   1.00000
 This molecule is an asymmetric top.
 Rotational symmetry number  1.
 Warning -- assumption of classical behavior for rotation
           may cause significant error
 Rotational temperatures (Kelvin)      0.05393     0.03425     0.02221
 Rotational constants (GHZ):           1.12362     0.71362     0.46276
 Zero-point vibrational energy     640023.4 (Joules/Mol)
                                  152.96927 (Kcal/Mol)
 Warning -- explicit consideration of  18 degrees of freedom as
           vibrations may cause significant error
 Vibrational temperatures:     51.10   113.14   142.54   182.34   261.49
          (Kelvin)            325.73   379.22   417.26   470.30   489.16
                              533.99   607.87   666.88   693.71   740.59
                              795.27   817.85   878.15  1004.84  1076.25
                             1124.43  1139.61  1189.12  1208.71  1255.04
                             1280.72  1300.65  1344.89  1368.04  1388.57
                             1400.64  1428.92  1479.86  1519.66  1529.48
                             1544.46  1555.39  1562.16  1618.16  1660.93
                             1694.36  1730.57  1743.35  1770.12  1785.15
                             1831.42  1882.45  1909.61  1920.32  1971.27
                             2002.94  2062.80  2074.85  2122.62  2144.38
                             2179.32  2185.19  2193.88  2196.38  2221.51
                             2361.98  2408.98  2434.91  4337.49  4358.34
                             4373.20  4452.36  4454.86  4494.05  4512.70
                             4518.75  4556.75  4572.47  4615.08  4620.80
                             4644.02  4969.27  5098.60

 Zero-point correction=                           0.243772 (Hartree/Particle)
 Thermal correction to Energy=                    0.255589
 Thermal correction to Enthalpy=                  0.256534
 Thermal correction to Gibbs Free Energy=         0.205663
 Sum of electronic and zero-point Energies=           -520.845780
 Sum of electronic and thermal Energies=              -520.833963
 Sum of electronic and thermal Enthalpies=            -520.833018
 Sum of electronic and thermal Free Energies=         -520.883889

                     E (Thermal)             CV                S
                      KCal/Mol        Cal/Mol-Kelvin    Cal/Mol-Kelvin
 Total                  160.385             46.855            107.067
 Electronic               0.000              0.000              0.000
 Translational            0.889              2.981             41.354
 Rotational               0.889              2.981             31.139
 Vibrational            158.607             40.894             34.574
 Vibration     1          0.594              1.982              5.495
 Vibration     2          0.600              1.964              3.925
 Vibration     3          0.604              1.950              3.472
 Vibration     4          0.611              1.926              2.995
 Vibration     5          0.630              1.865              2.310
 Vibration     6          0.650              1.801              1.907
 Vibration     7          0.670              1.740              1.638
 Vibration     8          0.686              1.692              1.474
 Vibration     9          0.711              1.622              1.275
 Vibration    10          0.720              1.596              1.212
 Vibration    11          0.743              1.531              1.075
 Vibration    12          0.785              1.421              0.884
 Vibration    13          0.821              1.331              0.756
 Vibration    14          0.838              1.290              0.704
 Vibration    15          0.870              1.217              0.622
 Vibration    16          0.908              1.134              0.539
 Vibration    17          0.924              1.100              0.507
 Vibration    18          0.969              1.010              0.432

                           ! Non-Optimized Parameters !
 Normal termination of Gaussian 16 at Wed Dec  9 22:34:58 2020.

 ----------------------------------------------------------------------
 # B3LYP/6-311++G(d,p) empiricaldispersion=gd3bj scf=xqc pop=npa geom=c
 heck
 ----------------------------------------------------------------------

 --------------------------------------
 CID_83752620_JID_3219_Energie_neutraal
 --------------------------------------
 Structure from the checkpoint file:  "JID_3219.chk"
 Charge =  0 Multiplicity = 1

 SCF Done:  E(RB3LYP) =  -521.229661142     A.U. after   13 cycles
 Normal termination of Gaussian 16 at Wed Dec  9 22:38:21 2020.

 ----------------------------------------------------------------------
 # B3LYP/6-311++G(d,p) empiricaldispersion=gd3bj scf=xqc pop=npa geom=c
 heck
 ----------------------------------------------------------------------

 ------------------------------------
 CID_83752620_JID_3219_Energie_kation
 ------------------------------------
 Structure from the checkpoint file:  "JID_3219.chk"
 Charge =  1 Multiplicity = 2

 SCF Done:  E(UB3LYP) =  -520.943087655     A.U. after   22 cycles
 Normal termination of Gaussian 16 at Wed Dec  9 22:46:06 2020.
 Gaussian 16:  ES64L-G16RevA.03 25-Dec-2016

 ----------------------------------------------------------------------
 # B3LYP/6-311++G(d,p) empiricaldispersion=gd3bj scf=xqc pop=npa geom=c
 heck
 ----------------------------------------------------------------------

 -----------------------------------
 CID_83752620_JID_3219_Energie_anion
 -----------------------------------
 Structure from the checkpoint file:  "JID_3219.chk"
 Charge = -1 Multiplicity = 2

                         Standard orientation:
 ---------------------------------------------------------------------
 Center     Atomic      Atomic             Coordinates (Angstroms)
 Number     Number       Type             X           Y           Z
 ---------------------------------------------------------------------
      1          6           0        3.816701   -0.722622    0.180616
      2          6           0        2.432786   -0.136635    0.031154
      3          6           0        1.300662   -0.961366    0.103045
      4          6           0        0.029380   -0.404343    0.003826
      5          6           0       -0.127517    0.974206   -0.181917
      6          6           0        0.983026    1.806172   -0.255565
      7          6           0        2.257499    1.243506   -0.146781
      8          6           0       -1.592436    1.343417   -0.307112
      9          6           0       -2.303617    0.080754    0.265141
     10          6           0       -1.309991   -1.064163    0.050622
     11          6           0       -1.527146   -2.443807    0.613170
     12          6           0       -1.620957   -2.228203   -0.874279
     13          7           0       -1.895597    2.634601    0.308134
     14          1           0        4.115967   -0.773949    1.236048
     15          1           0        4.565832   -0.117264   -0.340242
     16          1           0        3.865729   -1.741000   -0.219675
     17          1           0        1.427345   -2.032678    0.247569
     18          1           0        0.851476    2.875664   -0.391204
     19          1           0        3.134359    1.884526   -0.200264
     20          1           0       -1.844281    1.442087   -1.373480
     21          1           0       -2.459922    0.233355    1.342683
     22          1           0       -3.282297   -0.103821   -0.190930
     23          1           0       -0.665046   -2.976918    1.006511
     24          1           0       -2.447724   -2.620527    1.164104
     25          1           0       -2.603405   -2.259797   -1.338784
     26          1           0       -0.812913   -2.597180   -1.500252
     27          1           0       -2.886115    2.847266    0.198141
     28          1           0       -1.720173    2.576537    1.311309
 ---------------------------------------------------------------------

 SCF Done:  E(UB3LYP) =  -521.213488811     A.U. after   33 cycles
 SCF Done:  E(UB3LYP) =  -521.213488811     a.u. after    1 cycles

 The electronic state is 2-A.
 Alpha  occ. eigenvalues --  -14.18987 -10.09743 -10.08678 -10.07828 -10.07283
 Alpha  occ. eigenvalues --  -10.07228 -10.07157 -10.06841 -10.06659 -10.06586
 Alpha  occ. eigenvalues --  -10.06552 -10.06373 -10.06245  -0.79923  -0.76962
 Alpha  occ. eigenvalues --   -0.74490  -0.68576  -0.64798  -0.62820  -0.57811
 Alpha  occ. eigenvalues --   -0.53459  -0.50881  -0.50184  -0.46925  -0.44221
 Alpha  occ. eigenvalues --   -0.41059  -0.38754  -0.37931  -0.36328  -0.34867
 Alpha  occ. eigenvalues --   -0.33414  -0.32819  -0.32141  -0.30811  -0.29441
 Alpha  occ. eigenvalues --   -0.28237  -0.27514  -0.26446  -0.25710  -0.24960
 Alpha  occ. eigenvalues --   -0.23542  -0.22782  -0.20120  -0.19618  -0.14651
 Alpha  occ. eigenvalues --   -0.13927  -0.12303   0.04618
 Alpha virt. eigenvalues --    0.06301   0.07310   0.07845   0.08401   0.08680
 Alpha virt. eigenvalues --    0.09018   0.09334   0.10259   0.10459   0.11144
 Alpha virt. eigenvalues --    0.11278   0.11380   0.12236   0.13589   0.13797

  Beta  occ. eigenvalues --  -14.18947 -10.09733 -10.08676 -10.07792 -10.07269
  Beta  occ. eigenvalues --  -10.07227 -10.07133 -10.06816 -10.06659 -10.06559
  Beta  occ. eigenvalues --  -10.06534 -10.06362 -10.06216  -0.79875  -0.76919
  Beta  occ. eigenvalues --   -0.74450  -0.68520  -0.64749  -0.62771  -0.57759
  Beta  occ. eigenvalues --   -0.53415  -0.50816  -0.50121  -0.46879  -0.44170
  Beta  occ. eigenvalues --   -0.41012  -0.38697  -0.37901  -0.36283  -0.34818
  Beta  occ. eigenvalues --   -0.33372  -0.32783  -0.32074  -0.30766  -0.29399
  Beta  occ. eigenvalues --   -0.28203  -0.27475  -0.26404  -0.25663  -0.24908
  Beta  occ. eigenvalues --   -0.23508  -0.22747  -0.20096  -0.19571  -0.14546
  Beta  occ. eigenvalues --   -0.13851  -0.12234
  Beta virt. eigenvalues --    0.06723   0.07402   0.07906   0.08208   0.08793
  Beta virt. eigenvalues --    0.08984   0.09524   0.09615   0.10568   0.10878
  Beta virt. eigenvalues --    0.11457   0.11648   0.11759   0.12668   0.13793

 Mulliken charges and spin densities:
               1          2
     1  C    1.616499  -2.176777
     2  C    0.433187   0.326832
     3  C   -1.062131   0.451411
     4  C   -0.496172   0.893111
     5  C    0.460100  -0.043113
     6  C    0.033959  -0.521420
     7  C   -0.300269  -0.385094
     8  C    0.463019  -1.064679
     9  C   -0.402333  -0.069923
    10  C   -0.197617   0.874430
    11  C   -0.350159   0.100749
    12  C    1.090322  -1.852267
    13  N   -0.350423   0.062947
    14  H    0.047438   0.107631
    15  H   -0.196749   0.334385
    16  H   -0.425663   0.576489
    17  H    0.197503  -0.062761
    18  H    0.029283   0.136287
    19  H   -0.066069   0.196593
    20  H    0.041765   0.154146
    21  H    0.110791   0.070052
    22  H   -0.680319   0.831921
    23  H   -0.279719   0.412888
    24  H   -0.145402   0.306114
    25  H   -0.257222   0.412608
    26  H   -0.080249   0.244633
    27  H   -0.300417   0.545315
    28  H    0.067047   0.137496
 Sum of Mulliken charges =  -1.00000   1.00000

 Dipole moment (field-independent basis, Debye):
    X=              2.7287    Y=              0.2652    Z=              1.5503  Tot=              3.1495
 Quadrupole moment (field-independent basis, Debye-Ang):
   XX=           -153.6393   YY=           -130.0620   ZZ=           -103.7715
   XY=             10.2029   XZ=              0.2308   YZ=             -1.8009

 Summary of Natural Population Analysis:

                                       Natural Population
                Natural  -----------------------------------------------
    Atom  No    Charge         Core      Valence    Rydberg      Total
 -----------------------------------------------------------------------
      C    1   -0.29316      0.99964     2.28739    0.00613     3.29316
      C    2   -0.01422      0.99955     2.00406    0.01062     3.01422
      C    3   -0.09194      0.99947     2.08625    0.00622     3.09194
      C    4   -0.00544      0.99945     1.99457    0.01142     3.00544
      C    5   -0.01621      0.99946     2.00680    0.00994     3.01621
      C    6   -0.08805      0.99951     2.07920    0.00935     3.08805
      C    7   -0.10847      0.99952     2.09997    0.00898     3.10847
      C    8   -0.01638      0.99956     2.00346    0.01336     3.01638
      C    9   -0.18181      0.99959     2.17244    0.00977     3.18181
      C   10   -0.05227      0.99953     2.03977    0.01297     3.05227
      C   11   -0.19194      0.99959     2.18338    0.00897     3.19194
      C   12   -0.18521      0.99959     2.17690    0.00872     3.18521
      N   13   -0.41822      0.99977     2.90780    0.01065     3.91822
      H   14    0.10146      0.00000     0.39761    0.00092     0.39854
      H   15    0.10140      0.00000     0.39743    0.00116     0.39860
      H   16    0.10437      0.00000     0.39401    0.00162     0.39563
      H   17    0.09808      0.00000     0.40028    0.00165     0.40192
      H   18    0.10615      0.00000     0.39273    0.00112     0.39385
      H   19    0.09620      0.00000     0.40291    0.00089     0.40380
      H   20    0.09498      0.00000     0.40309    0.00193     0.40502
      H   21    0.09524      0.00000     0.40300    0.00176     0.40476
      H   22    0.10411      0.00000     0.39304    0.00285     0.39589
      H   23    0.10236      0.00000     0.39652    0.00112     0.39764
      H   24    0.10305      0.00000     0.39594    0.00101     0.39695
      H   25    0.10345      0.00000     0.39523    0.00133     0.39655
      H   26    0.10335      0.00000     0.39548    0.00117     0.39665
      H   27    0.17810      0.00000     0.31845    0.00345     0.32190
      H   28    0.17104      0.00000     0.32704    0.00192     0.32896
 =======================================================================
   * Total *    0.00002     12.99422    33.85476    0.15100    46.99998

 Normal termination of Gaussian 16 at Wed Dec  9 22:57:54 2020.
