 Gaussian 16, Revision A.03,

 -----------------------------------------------------------
 # opt freq B3LYP/6-31G(d) empiricaldispersion=gd3bj scf=xqc
 -----------------------------------------------------------

 ------------------------------
 CID_129703993_JID_306_neutraal
 ------------------------------
 Symbolic Z-matrix:
 Charge =  0 Multiplicity = 1

 SCF Done:  E(RB3LYP) =  -530.193305839     A.U. after   27 cycles
 SCF Done:  E(RB3LYP) =  -530.239108703     A.U. after   21 cycles
 SCF Done:  E(RB3LYP) =  -530.268922309     A.U. after   19 cycles
 SCF Done:  E(RB3LYP) =  -530.284500729     A.U. after   18 cycles
 SCF Done:  E(RB3LYP) =  -530.301261539     A.U. after   18 cycles
 SCF Done:  E(RB3LYP) =  -530.307322843     A.U. after   17 cycles
 SCF Done:  E(RB3LYP) =  -530.309531036     A.U. after   16 cycles
 SCF Done:  E(RB3LYP) =  -530.310739972     A.U. after   15 cycles
 SCF Done:  E(RB3LYP) =  -530.313559074     A.U. after   17 cycles
 SCF Done:  E(RB3LYP) =  -530.317693121     A.U. after   18 cycles
 SCF Done:  E(RB3LYP) =  -530.422779243     A.U. after   12 cycles
 SCF Done:  E(RB3LYP) =  -530.422807961     A.U. after   11 cycles
 SCF Done:  E(RB3LYP) =  -530.422814665     A.U. after   10 cycles
 SCF Done:  E(RB3LYP) =  -530.422820006     A.U. after   11 cycles
 SCF Done:  E(RB3LYP) =  -530.422821282     A.U. after   10 cycles
 SCF Done:  E(RB3LYP) =  -530.422821810     A.U. after    9 cycles
 Optimization completed.
    -- Stationary point found.
 Normal termination of Gaussian 16 at Tue Dec  8 10:27:59 2020.

 --------------------------------------------------------------------
 #N Geom=AllCheck Guess=TCheck SCRF=Check GenChk RB3LYP/6-31G(d) Freq
 --------------------------------------------------------------------

 Structure from the checkpoint file:  "JID_306.chk"
 ------------------------------
 CID_129703993_JID_306_neutraal
 ------------------------------
 Charge =  0 Multiplicity = 1

 SCF Done:  E(RB3LYP) =  -530.422821810     A.U. after    1 cycles

  Exact polarizability:  82.383  -8.063  70.350  12.047  -1.975  59.377
 Approx polarizability: 176.530 -47.297 156.444  51.628 -16.622 152.580

                      1                      2                      3
                      A                      A                      A
 Frequencies --    106.1193               149.8485               238.6145
 Red. masses --     11.2997                 7.8488                 2.9228
 Frc consts  --      0.0750                 0.1038                 0.0980
 IR Inten    --      3.2459                 1.1016                49.7285

                      4                      5                      6
                      A                      A                      A
 Frequencies --    271.4713               312.0366               325.5033
 Red. masses --      2.4443                 1.4821                 5.0515
 Frc consts  --      0.1061                 0.0850                 0.3153
 IR Inten    --     33.7844                30.5433                19.7081

                      7                      8                      9
                      A                      A                      A
 Frequencies --    364.0739               418.9546               527.6805
 Red. masses --      2.3823                 4.9613                11.4239
 Frc consts  --      0.1860                 0.5131                 1.8742
 IR Inten    --     28.1157                84.4361                25.8423

                     10                     11                     12
                      A                      A                      A
 Frequencies --    539.7273               591.5885               604.3711
 Red. masses --      8.6688                 9.9391                11.9623
 Frc consts  --      1.4878                 2.0495                 2.5744
 IR Inten    --     42.4095                27.6032                 5.1774

                     13                     14                     15
                      A                      A                      A
 Frequencies --    622.0257               684.4450               719.1440
 Red. masses --     10.0070                10.3849                10.9567
 Frc consts  --      2.2812                 2.8664                 3.3386
 IR Inten    --      2.6052                12.7096                26.5026

                     16                     17                     18
                      A                      A                      A
 Frequencies --    768.8225               800.6210               893.6276
 Red. masses --      8.9372                10.2840                 6.9560
 Frc consts  --      3.1125                 3.8839                 3.2728
 IR Inten    --     17.4219                 8.8763                58.1061

                     19                     20                     21
                      A                      A                      A
 Frequencies --    912.5845               941.7155              1038.6746
 Red. masses --     10.2791                 8.5652                 9.8931
 Frc consts  --      5.0437                 4.4754                 6.2884
 IR Inten    --     56.1651                56.9045               172.8497

                     22                     23                     24
                      A                      A                      A
 Frequencies --   1084.0348              1137.9330              1310.9362
 Red. masses --      5.2443                 6.9572                 1.5683
 Frc consts  --      3.6310                 5.3078                 1.5880
 IR Inten    --     14.2402                63.5282               193.5564

                     25                     26                     27
                      A                      A                      A
 Frequencies --   1325.7479              1471.9341              1572.1042
 Red. masses --      1.6728                 5.0631                 8.5776
 Frc consts  --      1.7323                 6.4631                12.4905
 IR Inten    --    238.0036               159.9754               175.3708

                     28                     29                     30
                      A                      A                      A
 Frequencies --   1947.0191              3708.7651              3727.8039
 Red. masses --     13.2520                 1.0657                 1.0658
 Frc consts  --     29.5987                 8.6363                 8.7267
 IR Inten    --    393.5826                57.5805               132.7705

 - Thermochemistry -
 -------------------
 Temperature   298.150 Kelvin.  Pressure   1.00000 Atm.
 Atom     1 has atomic number  6 and mass  12.00000

 Molecular mass:   137.99531 amu.
 Principal axes and moments of inertia in atomic units:
                           1         2         3
     Eigenvalues --   957.061631126.764651488.43611
           X            0.99941   0.03079   0.01502
           Y           -0.03071   0.99951  -0.00527
           Z           -0.01518   0.00480   0.99987
 This molecule is an asymmetric top.
 Rotational symmetry number  1.
 Warning -- assumption of classical behavior for rotation
           may cause significant error
 Rotational temperatures (Kelvin)      0.09050     0.07687     0.05819
 Rotational constants (GHZ):           1.88571     1.60170     1.21251
 Zero-point vibrational energy     174163.9 (Joules/Mol)
                                   41.62617 (Kcal/Mol)
 Warning -- explicit consideration of  12 degrees of freedom as
           vibrations may cause significant error
 Vibrational temperatures:    152.68   215.60   343.31   390.59   448.95
          (Kelvin)            468.33   523.82   602.78   759.21   776.55
                              851.16   869.56   894.96   984.76  1034.69
                             1106.16  1151.91  1285.73  1313.01  1354.92
                             1494.42  1559.68  1637.23  1886.14  1907.46
                             2117.78  2261.91  2801.33  5336.09  5363.48

 Zero-point correction=                           0.066336 (Hartree/Particle)
 Thermal correction to Energy=                    0.074451
 Thermal correction to Enthalpy=                  0.075395
 Thermal correction to Gibbs Free Energy=         0.033686
 Sum of electronic and zero-point Energies=           -530.356486
 Sum of electronic and thermal Energies=              -530.348371
 Sum of electronic and thermal Enthalpies=            -530.347426
 Sum of electronic and thermal Free Energies=         -530.389136

                     E (Thermal)             CV                S
                      KCal/Mol        Cal/Mol-Kelvin    Cal/Mol-Kelvin
 Total                   46.719             30.732             87.785
 Electronic               0.000              0.000              0.000
 Translational            0.889              2.981             40.678
 Rotational               0.889              2.981             28.864
 Vibrational             44.941             24.770             18.244
 Vibration     1          0.605              1.944              3.339
 Vibration     2          0.618              1.903              2.674
 Vibration     3          0.657              1.781              1.813
 Vibration     4          0.675              1.726              1.587
 Vibration     5          0.700              1.651              1.352
 Vibration     6          0.710              1.624              1.282
 Vibration     7          0.738              1.546              1.105
 Vibration     8          0.782              1.429              0.896
 Vibration     9          0.883              1.189              0.592
 Vibration    10          0.895              1.162              0.566
 Vibration    11          0.949              1.050              0.464
 Vibration    12          0.963              1.023              0.442

                           ! Non-Optimized Parameters !
 Normal termination of Gaussian 16 at Tue Dec  8 10:29:51 2020.

 ----------------------------------------------------------------------
 # B3LYP/6-311++G(d,p) empiricaldispersion=gd3bj scf=xqc pop=npa geom=c
 heck
 ----------------------------------------------------------------------

 --------------------------------------
 CID_129703993_JID_306_Energie_neutraal
 --------------------------------------
 Structure from the checkpoint file:  "JID_306.chk"
 Charge =  0 Multiplicity = 1

 SCF Done:  E(RB3LYP) =  -530.587443330     A.U. after   17 cycles
 Normal termination of Gaussian 16 at Tue Dec  8 10:30:29 2020.

 ----------------------------------------------------------------------
 # B3LYP/6-311++G(d,p) empiricaldispersion=gd3bj scf=xqc pop=npa geom=c
 heck
 ----------------------------------------------------------------------

 ------------------------------------
 CID_129703993_JID_306_Energie_kation
 ------------------------------------
 Structure from the checkpoint file:  "JID_306.chk"
 Charge =  1 Multiplicity = 2

 SCF Done:  E(UB3LYP) =  -530.276561740     A.U. after   23 cycles
 Normal termination of Gaussian 16 at Tue Dec  8 10:31:50 2020.
 Gaussian 16:  ES64L-G16RevA.03 25-Dec-2016

 ----------------------------------------------------------------------
 # B3LYP/6-311++G(d,p) empiricaldispersion=gd3bj scf=xqc pop=npa geom=c
 heck
 ----------------------------------------------------------------------

 -----------------------------------
 CID_129703993_JID_306_Energie_anion
 -----------------------------------
 Structure from the checkpoint file:  "JID_306.chk"
 Charge = -1 Multiplicity = 2

                         Standard orientation:
 ---------------------------------------------------------------------
 Center     Atomic      Atomic             Coordinates (Angstroms)
 Number     Number       Type             X           Y           Z
 ---------------------------------------------------------------------
      1          6           0        1.094108    0.500540   -0.178965
      2          6           0       -0.083749    1.027839    0.559413
      3          6           0       -1.134371    0.926871   -0.405377
      4          6           0       -0.169047    0.019118   -0.926699
      5          6           0        0.051287   -1.401853   -0.121419
      6          6           0        0.959672   -0.649254    0.885598
      7          8           0       -0.034033    0.183868    1.650332
      8          8           0       -0.253355   -2.512765   -0.382171
      9          8           0       -2.450449    0.839166   -0.198403
     10          8           0        2.190304    1.008925   -0.786772
     11          1           0       -2.862638    0.410322   -0.967647
     12          1           0        2.935500    0.896558   -0.171547
 ---------------------------------------------------------------------

 SCF Done:  E(UB3LYP) =  -530.619562576     A.U. after   28 cycles

 The electronic state is 2-A.
 Alpha  occ. eigenvalues --  -19.02845 -19.02140 -18.99156 -18.98690 -10.11630
 Alpha  occ. eigenvalues --  -10.11303 -10.10533 -10.07743 -10.04782 -10.03640
 Alpha  occ. eigenvalues --   -0.95260  -0.93676  -0.92495  -0.91616  -0.74292
 Alpha  occ. eigenvalues --   -0.59891  -0.51018  -0.46318  -0.44836  -0.39478
 Alpha  occ. eigenvalues --   -0.36803  -0.33942  -0.32769  -0.30865  -0.30257
 Alpha  occ. eigenvalues --   -0.26313  -0.25855  -0.25363  -0.23623  -0.22302
 Alpha  occ. eigenvalues --   -0.17158  -0.14052  -0.13330  -0.09487  -0.04995
 Alpha  occ. eigenvalues --    0.03744
 Alpha virt. eigenvalues --    0.09028   0.09589   0.10411   0.13000   0.15343
 Alpha virt. eigenvalues --    0.16264   0.16321   0.17269   0.18099   0.18379
 Alpha virt. eigenvalues --    0.19509   0.20211   0.20474   0.21076   0.22093

  Beta  occ. eigenvalues --  -19.02633 -19.02142 -18.99033 -18.98637 -10.11398
  Beta  occ. eigenvalues --  -10.11333 -10.10526 -10.06895 -10.04430 -10.03463
  Beta  occ. eigenvalues --   -0.94952  -0.93356  -0.92363  -0.91462  -0.73859
  Beta  occ. eigenvalues --   -0.59204  -0.50675  -0.45899  -0.44572  -0.38750
  Beta  occ. eigenvalues --   -0.36231  -0.33677  -0.32466  -0.30634  -0.29365
  Beta  occ. eigenvalues --   -0.25876  -0.25246  -0.24733  -0.22936  -0.22051
  Beta  occ. eigenvalues --   -0.16875  -0.13578  -0.12038  -0.08690  -0.02315
  Beta virt. eigenvalues --    0.09137   0.09710   0.10527   0.11972   0.13452
  Beta virt. eigenvalues --    0.15397   0.16295   0.16512   0.17400   0.18315
  Beta virt. eigenvalues --    0.18425   0.19592   0.20247   0.20549   0.21117

 Mulliken charges and spin densities:
               1          2
     1  C   -1.140246  -0.075334
     2  C    0.687410  -0.002383
     3  C   -0.834298   0.449104
     4  C    0.715800   0.285678
     5  C   -0.250452   0.137829
     6  C    0.279264   0.092801
     7  O   -0.159508   0.018968
     8  O   -0.303372   0.029684
     9  O   -0.217079   0.047862
    10  O   -0.245826   0.002440
    11  H    0.250716   0.002808
    12  H    0.217592   0.010543
 Sum of Mulliken charges =  -1.00000   1.00000

 Dipole moment (field-independent basis, Debye):
    X=             -1.2768    Y=              2.4485    Z=             -1.6774  Tot=              3.2309
 Quadrupole moment (field-independent basis, Debye-Ang):
   XX=            -62.1582   YY=            -76.8576   ZZ=            -71.6415
   XY=              4.7933   XZ=              1.7129   YZ=              3.5110

 Summary of Natural Population Analysis:

                                       Natural Population
                Natural  -----------------------------------------------
    Atom  No    Charge         Core      Valence    Rydberg      Total
 -----------------------------------------------------------------------
      C    1    0.07974      0.99924     1.89300    0.02803     2.92026
      C    2    0.13601      0.99929     1.84073    0.02397     2.86399
      C    3    0.28115      0.99907     1.69933    0.02044     2.71885
      C    4    0.00254      0.99932     1.98183    0.01631     2.99746
      C    5    0.30838      0.99966     1.65884    0.03312     2.69162
      C    6   -0.04170      0.99950     2.01743    0.02477     3.04170
      O    7   -0.28588      0.99989     3.27747    0.00851     4.28588
      O    8   -0.26837      0.99985     3.26038    0.00815     4.26837
      O    9   -0.31807      0.99987     3.31136    0.00684     4.31807
      O   10   -0.35512      0.99986     3.34697    0.00829     4.35512
      H   11    0.23172      0.00000     0.26488    0.00341     0.26828
      H   12    0.22960      0.00000     0.26544    0.00497     0.27040
 =======================================================================
   * Total *   -0.00000      9.99555    24.81765    0.18680    35.00000

 Normal termination of Gaussian 16 at Tue Dec  8 10:34:14 2020.
