 Gaussian 16, Revision A.03,

 -----------------------------------------------------------
 # opt freq B3LYP/6-31G(d) empiricaldispersion=gd3bj scf=xqc
 -----------------------------------------------------------

 -------------------------------
 CID_116936499_JID_9473_neutraal
 -------------------------------
 Symbolic Z-matrix:
 Charge =  0 Multiplicity = 1

 SCF Done:  E(RB3LYP) =  -803.934446450     A.U. after   15 cycles
 SCF Done:  E(RB3LYP) =  -803.938677739     A.U. after   12 cycles
 SCF Done:  E(RB3LYP) =  -803.939215087     A.U. after   12 cycles
 SCF Done:  E(RB3LYP) =  -803.939865759     A.U. after   12 cycles
 SCF Done:  E(RB3LYP) =  -803.940340755     A.U. after   12 cycles
 SCF Done:  E(RB3LYP) =  -803.940578885     A.U. after   11 cycles
 SCF Done:  E(RB3LYP) =  -803.940181146     A.U. after   14 cycles
 SCF Done:  E(RB3LYP) =  -803.940814544     A.U. after   13 cycles
 SCF Done:  E(RB3LYP) =  -803.940856526     A.U. after   11 cycles
 SCF Done:  E(RB3LYP) =  -803.940872208     A.U. after   10 cycles
 SCF Done:  E(RB3LYP) =  -803.940919778     A.U. after    9 cycles
 SCF Done:  E(RB3LYP) =  -803.940925195     A.U. after   10 cycles
 SCF Done:  E(RB3LYP) =  -803.940926015     A.U. after    9 cycles
 SCF Done:  E(RB3LYP) =  -803.940926366     A.U. after    8 cycles
 SCF Done:  E(RB3LYP) =  -803.940926425     A.U. after    7 cycles
 Optimization completed.
    -- Stationary point found.
 Normal termination of Gaussian 16 at Sat Dec 12 09:44:44 2020.

 --------------------------------------------------------------------
 #N Geom=AllCheck Guess=TCheck SCRF=Check GenChk RB3LYP/6-31G(d) Freq
 --------------------------------------------------------------------

 Structure from the checkpoint file:  "JID_9473.chk"
 -------------------------------
 CID_116936499_JID_9473_neutraal
 -------------------------------
 Charge =  0 Multiplicity = 1

 SCF Done:  E(RB3LYP) =  -803.940926425     A.U. after    1 cycles

  Exact polarizability: 214.843 -36.831 165.347   9.247  15.588 160.231
 Approx polarizability: 289.732 -66.877 246.723  18.677  39.268 273.087

                      1                      2                      3
                      A                      A                      A
 Frequencies --     25.6616                30.1716                49.5498
 Red. masses --      3.7850                 4.9369                 3.0762
 Frc consts  --      0.0015                 0.0026                 0.0044
 IR Inten    --      2.2207                 0.5810                 0.9532

                      4                      5                      6
                      A                      A                      A
 Frequencies --     91.6274                93.9872               127.6426
 Red. masses --      2.6039                 1.2310                 3.8060
 Frc consts  --      0.0129                 0.0064                 0.0365
 IR Inten    --      1.2345                 0.2477                 0.0355

                      7                      8                      9
                      A                      A                      A
 Frequencies --    156.8683               177.8904               193.3437
 Red. masses --      3.6775                 3.6277                 3.1276
 Frc consts  --      0.0533                 0.0676                 0.0689
 IR Inten    --      0.4888                 1.2297                 2.2847

                     10                     11                     12
                      A                      A                      A
 Frequencies --    235.2407               256.1280               270.4259
 Red. masses --      3.4286                 1.7399                 1.4794
 Frc consts  --      0.1118                 0.0672                 0.0637
 IR Inten    --      0.9340                 6.2858                33.4248

                     13                     14                     15
                      A                      A                      A
 Frequencies --    278.9676               286.4764               317.0414
 Red. masses --      3.4422                 2.9997                 2.9645
 Frc consts  --      0.1578                 0.1450                 0.1756
 IR Inten    --      4.8454                 5.8082                18.4298

                     16                     17                     18
                      A                      A                      A
 Frequencies --    355.9463               359.2321               409.0696
 Red. masses --      3.7980                 2.3404                 2.1266
 Frc consts  --      0.2835                 0.1779                 0.2097
 IR Inten    --      0.2473                 1.1250                29.9096

                     19                     20                     21
                      A                      A                      A
 Frequencies --    419.4203               424.3530               440.3018
 Red. masses --      1.8484                 2.9097                 2.5512
 Frc consts  --      0.1916                 0.3087                 0.2914
 IR Inten    --     57.7098                 2.4695                18.7839

                     22                     23                     24
                      A                      A                      A
 Frequencies --    448.5318               464.5723               484.0051
 Red. masses --      1.9057                 3.0855                 3.3755
 Frc consts  --      0.2259                 0.3924                 0.4659
 IR Inten    --      9.6946                 4.2492                14.4641

                     25                     26                     27
                      A                      A                      A
 Frequencies --    537.5405               560.9529               592.7706
 Red. masses --      4.5428                 1.9218                 3.2327
 Frc consts  --      0.7734                 0.3563                 0.6693
 IR Inten    --      3.7964                20.9616                 5.0055

                     28                     29                     30
                      A                      A                      A
 Frequencies --    614.3875               674.1571               695.8655
 Red. masses --      3.4467                 3.5909                 5.3211
 Frc consts  --      0.7665                 0.9615                 1.5181
 IR Inten    --      1.5746                 2.3125                 1.4077

                     31                     32                     33
                      A                      A                      A
 Frequencies --    706.4629               751.1288               775.9968
 Red. masses --      3.6655                 3.9712                 4.0656
 Frc consts  --      1.0779                 1.3201                 1.4424
 IR Inten    --      3.3467                 4.6803                 3.3287

                     34                     35                     36
                      A                      A                      A
 Frequencies --    798.1237               815.9192               838.2710
 Red. masses --      2.4748                 1.6440                 1.4617
 Frc consts  --      0.9288                 0.6448                 0.6052
 IR Inten    --      5.2857                90.1194                 1.0920

                     37                     38                     39
                      A                      A                      A
 Frequencies --    855.6332               863.7824               867.3089
 Red. masses --      1.5585                 3.1533                 1.5502
 Frc consts  --      0.6723                 1.3862                 0.6871
 IR Inten    --     42.1097                33.9442                 9.0379

                     40                     41                     42
                      A                      A                      A
 Frequencies --    870.5386               910.0429               919.3813
 Red. masses --      3.1260                 2.0522                 1.8369
 Frc consts  --      1.3958                 1.0014                 0.9148
 IR Inten    --     10.1898                41.6518                32.7857

                     43                     44                     45
                      A                      A                      A
 Frequencies --    944.6735               955.8232               972.9362
 Red. masses --      1.8491                 2.3351                 1.3572
 Frc consts  --      0.9722                 1.2570                 0.7569
 IR Inten    --     16.9627                16.6507                 1.7086

                     46                     47                     48
                      A                      A                      A
 Frequencies --    989.4471               994.7759              1010.6244
 Red. masses --      2.2466                 2.2887                 1.4997
 Frc consts  --      1.2959                 1.3344                 0.9025
 IR Inten    --     27.9397                 3.7129                 4.3536

                     49                     50                     51
                      A                      A                      A
 Frequencies --   1032.7090              1041.7840              1072.6017
 Red. masses --      2.1339                 2.5824                 1.6579
 Frc consts  --      1.3408                 1.6513                 1.1238
 IR Inten    --     10.9987                 9.6503                 7.3927

                     52                     53                     54
                      A                      A                      A
 Frequencies --   1074.8547              1075.3784              1116.5862
 Red. masses --      1.4970                 1.9902                 2.1857
 Frc consts  --      1.0190                 1.3560                 1.6056
 IR Inten    --      1.9060                 1.4790                 2.1324

                     55                     56                     57
                      A                      A                      A
 Frequencies --   1129.4030              1145.4016              1159.1480
 Red. masses --      2.2384                 2.2445                 1.4749
 Frc consts  --      1.6822                 1.7350                 1.1676
 IR Inten    --      5.7859                 8.9304                 1.4802

                     58                     59                     60
                      A                      A                      A
 Frequencies --   1172.6237              1185.2355              1191.3040
 Red. masses --      3.2482                 1.7686                 1.1483
 Frc consts  --      2.6316                 1.4638                 0.9601
 IR Inten    --     18.2653                 5.8168                 2.3812

                     61                     62                     63
                      A                      A                      A
 Frequencies --   1197.4105              1232.5535              1238.4043
 Red. masses --      1.3675                 1.7624                 1.2240
 Frc consts  --      1.1552                 1.5775                 1.1060
 IR Inten    --     11.0665                 6.0877                 3.5172

                     64                     65                     66
                      A                      A                      A
 Frequencies --   1258.4886              1264.0709              1305.2568
 Red. masses --      1.5436                 2.1668                 2.5595
 Frc consts  --      1.4404                 2.0399                 2.5692
 IR Inten    --      2.8578                 1.2659                31.8520

                     67                     68                     69
                      A                      A                      A
 Frequencies --   1309.2854              1319.6260              1326.2905
 Red. masses --      1.6190                 1.2176                 1.3915
 Frc consts  --      1.6352                 1.2493                 1.4422
 IR Inten    --     22.8149                 1.9816                 5.4802

                     70                     71                     72
                      A                      A                      A
 Frequencies --   1334.6003              1347.3704              1362.1566
 Red. masses --      1.7236                 1.3062                 1.2751
 Frc consts  --      1.8088                 1.3971                 1.3940
 IR Inten    --     12.9227                11.1770                 1.0719

                     73                     74                     75
                      A                      A                      A
 Frequencies --   1371.1652              1387.9251              1402.5705
 Red. masses --      1.3152                 4.5241                 1.3861
 Frc consts  --      1.4569                 5.1346                 1.6065
 IR Inten    --     29.7641                 6.9336                 2.9900

                     76                     77                     78
                      A                      A                      A
 Frequencies --   1412.2358              1420.0761              1426.8151
 Red. masses --      1.4595                 2.0144                 1.5535
 Frc consts  --      1.7151                 2.3935                 1.8634
 IR Inten    --      6.6327                72.1175                 2.9427

                     79                     80                     81
                      A                      A                      A
 Frequencies --   1439.8107              1443.4370              1450.7422
 Red. masses --      1.6376                 1.3946                 1.4664
 Frc consts  --      2.0002                 1.7120                 1.8184
 IR Inten    --     24.4733                18.4353                10.4416

                     82                     83                     84
                      A                      A                      A
 Frequencies --   1491.5641              1497.1498              1506.5278
 Red. masses --      3.1136                 1.2180                 1.1337
 Frc consts  --      4.0813                 1.6086                 1.5160
 IR Inten    --     40.7995                 2.6590                 1.8084

                     85                     86                     87
                      A                      A                      A
 Frequencies --   1511.4945              1513.1427              1515.8961
 Red. masses --      1.0437                 1.2495                 1.1443
 Frc consts  --      1.4049                 1.6856                 1.5493
 IR Inten    --      8.1824                 2.8413                 1.8116

                     88                     89                     90
                      A                      A                      A
 Frequencies --   1521.4395              1527.3248              1538.6491
 Red. masses --      1.0903                 1.1263                 1.1141
 Frc consts  --      1.4870                 1.5481                 1.5540
 IR Inten    --      5.8814                 1.6781                 2.2761

                     91                     92                     93
                      A                      A                      A
 Frequencies --   1539.9609              1604.2946              1637.1117
 Red. masses --      2.6496                 5.4101                 7.2579
 Frc consts  --      3.7021                 8.2040                11.4609
 IR Inten    --      1.8455                44.1511                 4.7628

                     94                     95                     96
                      A                      A                      A
 Frequencies --   1693.0113              1700.4154              2911.8397
 Red. masses --      6.1062                 1.1079                 1.0740
 Frc consts  --     10.3119                 1.8874                 5.3655
 IR Inten    --     20.4039                27.4885                43.6887

                     97                     98                     99
                      A                      A                      A
 Frequencies --   2921.5687              3010.1412              3024.0774
 Red. masses --      1.0729                 1.0700                 1.0761
 Frc consts  --      5.3955                 5.7123                 5.7980
 IR Inten    --     98.5916                10.4022                34.9021

                    100                    101                    102
                      A                      A                      A
 Frequencies --   3025.9027              3033.4933              3039.4083
 Red. masses --      1.0776                 1.0605                 1.0658
 Frc consts  --      5.8134                 5.7500                 5.8011
 IR Inten    --     13.3125                24.0477                53.4743

                    103                    104                    105
                      A                      A                      A
 Frequencies --   3046.5076              3051.1566              3076.2163
 Red. masses --      1.0402                 1.1005                 1.0912
 Frc consts  --      5.6884                 6.0361                 6.0842
 IR Inten    --     37.7719                38.7792                71.7255

                    106                    107                    108
                      A                      A                      A
 Frequencies --   3079.0966              3080.7499              3093.9642
 Red. masses --      1.0984                 1.0896                 1.1010
 Frc consts  --      6.1355                 6.0931                 6.2099
 IR Inten    --     30.4528                65.1680                44.5969

                    109                    110                    111
                      A                      A                      A
 Frequencies --   3095.7805              3169.0271              3187.9138
 Red. masses --      1.1012                 1.0977                 1.0900
 Frc consts  --      6.2180                 6.4951                 6.5267
 IR Inten    --     16.9282                 3.6700                14.6115

                    112                    113                    114
                      A                      A                      A
 Frequencies --   3208.5460              3233.5104              3485.5446
 Red. masses --      1.0896                 1.0916                 1.0503
 Frc consts  --      6.6089                 6.7244                 7.5183
 IR Inten    --      7.2326                 4.5739                 1.1934

                    115                    116                    117
                      A                      A                      A
 Frequencies --   3498.5702              3570.4017              3655.1926
 Red. masses --      1.0745                 1.0908                 1.0800
 Frc consts  --      7.7492                 8.1924                 8.5018
 IR Inten    --      3.0647                 1.8913                38.8165

 - Thermochemistry -
 -------------------
 Temperature   298.150 Kelvin.  Pressure   1.00000 Atm.
 Atom     1 has atomic number  6 and mass  12.00000

 Molecular mass:   258.18445 amu.
 Principal axes and moments of inertia in atomic units:
                           1         2         3
     Eigenvalues --  3118.674078550.123129830.82950
           X            0.99996  -0.00861  -0.00221
           Y            0.00863   0.99992   0.00890
           Z            0.00214  -0.00892   0.99996
 This molecule is an asymmetric top.
 Rotational symmetry number  1.
 Warning -- assumption of classical behavior for rotation
           may cause significant error
 Rotational temperatures (Kelvin)      0.02777     0.01013     0.00881
 Rotational constants (GHZ):           0.57869     0.21108     0.18358
 Zero-point vibrational energy     950175.3 (Joules/Mol)
                                  227.09736 (Kcal/Mol)
 Warning -- explicit consideration of  28 degrees of freedom as
           vibrations may cause significant error
 Vibrational temperatures:     36.92    43.41    71.29   131.83   135.23
          (Kelvin)            183.65   225.70   255.94   278.18   338.46
                              368.51   389.08   401.37   412.18   456.15
                              512.13   516.85   588.56   603.45   610.55
                              633.50   645.34   668.42   696.38   773.40
                              807.09   852.86   883.97   969.96  1001.20
                             1016.44  1080.71  1116.49  1148.32  1173.93
                             1206.08  1231.07  1242.79  1247.86  1252.51
                             1309.35  1322.78  1359.17  1375.22  1399.84
                             1423.59  1431.26  1454.06  1485.84  1498.89
                             1543.23  1546.48  1547.23  1606.52  1624.96
                             1647.98  1667.76  1687.14  1705.29  1714.02
                             1722.81  1773.37  1781.79  1810.68  1818.72
                             1877.97  1883.77  1898.65  1908.24  1920.19
                             1938.57  1959.84  1972.80  1996.91  2017.99
                             2031.89  2043.17  2052.87  2071.57  2076.78
                             2087.29  2146.03  2154.06  2167.56  2174.70
                             2177.07  2181.04  2189.01  2197.48  2213.77
                             2215.66  2308.22  2355.44  2435.87  2446.52
                             4189.49  4203.49  4330.92  4350.97  4353.60
                             4364.52  4373.03  4383.24  4389.93  4425.99
                             4430.13  4432.51  4451.52  4454.14  4559.52
                             4586.70  4616.38  4652.30  5014.92  5033.66
                             5137.01  5259.01

 Zero-point correction=                           0.361903 (Hartree/Particle)
 Thermal correction to Energy=                    0.379234
 Thermal correction to Enthalpy=                  0.380178
 Thermal correction to Gibbs Free Energy=         0.316052
 Sum of electronic and zero-point Energies=           -803.579024
 Sum of electronic and thermal Energies=              -803.561693
 Sum of electronic and thermal Enthalpies=            -803.560749
 Sum of electronic and thermal Free Energies=         -803.624874

                     E (Thermal)             CV                S
                      KCal/Mol        Cal/Mol-Kelvin    Cal/Mol-Kelvin
 Total                  237.973             69.055            134.964
 Electronic               0.000              0.000              0.000
 Translational            0.889              2.981             42.545
 Rotational               0.889              2.981             33.927
 Vibrational            236.195             63.093             58.492
 Vibration     1          0.593              1.985              6.139
 Vibration     2          0.594              1.984              5.818
 Vibration     3          0.595              1.978              4.835
 Vibration     4          0.602              1.955              3.625
 Vibration     5          0.603              1.953              3.575
 Vibration     6          0.611              1.926              2.981
 Vibration     7          0.621              1.895              2.587
 Vibration     8          0.628              1.870              2.350
 Vibration     9          0.635              1.849              2.196
 Vibration    10          0.655              1.787              1.839
 Vibration    11          0.666              1.752              1.688
 Vibration    12          0.674              1.728              1.593
 Vibration    13          0.679              1.712              1.540
 Vibration    14          0.684              1.699              1.495
 Vibration    15          0.704              1.641              1.325
 Vibration    16          0.731              1.563              1.140
 Vibration    17          0.734              1.556              1.125
 Vibration    18          0.773              1.451              0.930
 Vibration    19          0.782              1.428              0.894
 Vibration    20          0.786              1.417              0.877
 Vibration    21          0.800              1.382              0.826
 Vibration    22          0.808              1.364              0.800
 Vibration    23          0.822              1.329              0.753
 Vibration    24          0.840              1.286              0.699
 Vibration    25          0.893              1.167              0.571
 Vibration    26          0.917              1.116              0.522
 Vibration    27          0.950              1.047              0.462
 Vibration    28          0.974              1.001              0.426

 Optimization completed.
    -- Stationary point found.
 Normal termination of Gaussian 16 at Sat Dec 12 10:08:20 2020.

 ----------------------------------------------------------------------
 # B3LYP/6-311++G(d,p) empiricaldispersion=gd3bj scf=xqc pop=npa geom=c
 heck
 ----------------------------------------------------------------------

 ---------------------------------------
 CID_116936499_JID_9473_Energie_neutraal
 ---------------------------------------
 Structure from the checkpoint file:  "JID_9473.chk"
 Charge =  0 Multiplicity = 1

 SCF Done:  E(RB3LYP) =  -804.163979017     A.U. after   16 cycles
 Normal termination of Gaussian 16 at Sat Dec 12 10:20:04 2020.

 ----------------------------------------------------------------------
 # B3LYP/6-311++G(d,p) empiricaldispersion=gd3bj scf=xqc pop=npa geom=c
 heck
 ----------------------------------------------------------------------

 -------------------------------------
 CID_116936499_JID_9473_Energie_kation
 -------------------------------------
 Structure from the checkpoint file:  "JID_9473.chk"
 Charge =  1 Multiplicity = 2

 SCF Done:  E(UB3LYP) =  -803.889807302     A.U. after   27 cycles
 Normal termination of Gaussian 16 at Sat Dec 12 10:48:47 2020.
 Gaussian 16:  ES64L-G16RevA.03 25-Dec-2016

 ----------------------------------------------------------------------
 # B3LYP/6-311++G(d,p) empiricaldispersion=gd3bj scf=xqc pop=npa geom=c
 heck
 ----------------------------------------------------------------------

 ------------------------------------
 CID_116936499_JID_9473_Energie_anion
 ------------------------------------
 Structure from the checkpoint file:  "JID_9473.chk"
 Charge = -1 Multiplicity = 2

                         Standard orientation:
 ---------------------------------------------------------------------
 Center     Atomic      Atomic             Coordinates (Angstroms)
 Number     Number       Type             X           Y           Z
 ---------------------------------------------------------------------
      1          6           0        5.225800   -1.991658   -0.232339
      2          6           0        4.077357   -1.056985   -0.050166
      3          7           0        3.860295   -0.312756    1.007816
      4          6           0        2.688420    0.386936    0.733206
      5          6           0        2.193151    0.035627   -0.546401
      6          7           0        3.105928   -0.891845   -1.024007
      7          6           0        1.028257    0.579948   -1.077811
      8          6           0        0.331886    1.514396   -0.301738
      9          6           0        0.829932    1.881341    0.966086
     10          6           0        1.993244    1.327969    1.495228
     11          6           0       -0.956112    2.124224   -0.848863
     12          6           0       -1.942512    1.046937   -1.386532
     13          6           0       -2.183510   -0.206014   -0.529066
     14          6           0       -2.604369    0.075186    0.923632
     15          6           0       -2.914736   -1.225345    1.669750
     16          7           0       -3.954143   -1.971138    0.961527
     17          6           0       -3.507896   -2.365648   -0.373874
     18          6           0       -3.228359   -1.112170   -1.204122
     19          7           0       -1.549396    3.069703    0.108736
     20          1           0        4.885922   -3.024570   -0.378479
     21          1           0        5.835900   -1.715864   -1.101502
     22          1           0        5.852675   -1.953537    0.659907
     23          1           0        3.074205   -1.360489   -1.916755
     24          1           0        0.668269    0.291166   -2.061450
     25          1           0        0.291944    2.638533    1.523581
     26          1           0        2.362690    1.621236    2.472898
     27          1           0       -0.678076    2.740279   -1.715833
     28          1           0       -2.902476    1.550820   -1.571166
     29          1           0       -1.595639    0.708438   -2.373173
     30          1           0       -1.239131   -0.766288   -0.481450
     31          1           0       -1.799439    0.594792    1.455394
     32          1           0       -3.498634    0.713230    0.937367
     33          1           0       -1.974355   -1.803606    1.772385
     34          1           0       -3.271693   -1.003082    2.681684
     35          1           0       -4.205837   -2.798728    1.497447
     36          1           0       -4.296012   -2.965193   -0.843711
     37          1           0       -2.590658   -2.988904   -0.346993
     38          1           0       -4.168195   -0.557037   -1.324705
     39          1           0       -2.885898   -1.398670   -2.207220
     40          1           0       -2.305525    3.569099   -0.355571
     41          1           0       -1.982130    2.562167    0.876902
 ---------------------------------------------------------------------

 SCF Done:  E(UB3LYP) =  -804.157506513     A.U. after   33 cycles
 SCF Done:  E(UB3LYP) =  -804.157506513     a.u. after    1 cycles

 The electronic state is 2-A.
 Alpha  occ. eigenvalues --  -14.26040 -14.21115 -14.20950 -14.19731 -10.14653
 Alpha  occ. eigenvalues --  -10.11713 -10.11158 -10.10494 -10.10155 -10.09438
 Alpha  occ. eigenvalues --  -10.08400 -10.08399 -10.08128 -10.07784 -10.07773
 Alpha  occ. eigenvalues --  -10.07769 -10.07563 -10.07355 -10.06941  -0.91667
 Alpha  occ. eigenvalues --   -0.82618  -0.80984  -0.77886  -0.74975  -0.71673
 Alpha  occ. eigenvalues --   -0.67679  -0.66538  -0.65582  -0.63149  -0.60984
 Alpha  occ. eigenvalues --   -0.55467  -0.53615  -0.52803  -0.51157  -0.49826
 Alpha  occ. eigenvalues --   -0.47792  -0.46600  -0.44077  -0.42630  -0.41199
 Alpha  occ. eigenvalues --   -0.40384  -0.37315  -0.36666  -0.36251  -0.36098
 Alpha  occ. eigenvalues --   -0.35789  -0.34430  -0.34000  -0.33790  -0.32213
 Alpha  occ. eigenvalues --   -0.31343  -0.31149  -0.30652  -0.30350  -0.29788
 Alpha  occ. eigenvalues --   -0.29145  -0.27864  -0.26425  -0.26130  -0.25642
 Alpha  occ. eigenvalues --   -0.23892  -0.23114  -0.22492  -0.21897  -0.20800
 Alpha  occ. eigenvalues --   -0.18068  -0.16073  -0.14426  -0.13396  -0.12505
 Alpha  occ. eigenvalues --    0.03766
 Alpha virt. eigenvalues --    0.05500   0.05881   0.06919   0.07121   0.07750
 Alpha virt. eigenvalues --    0.08378   0.08560   0.08814   0.09146   0.09948
 Alpha virt. eigenvalues --    0.10316   0.10586   0.10979   0.11142   0.11503

  Beta  occ. eigenvalues --  -14.25980 -14.21101 -14.20943 -14.19728 -10.14646
  Beta  occ. eigenvalues --  -10.11709 -10.11159 -10.10487 -10.10139 -10.09433
  Beta  occ. eigenvalues --  -10.08394 -10.08361 -10.08126 -10.07774 -10.07765
  Beta  occ. eigenvalues --  -10.07751 -10.07557 -10.07345 -10.06941  -0.91629
  Beta  occ. eigenvalues --   -0.82597  -0.80969  -0.77829  -0.74956  -0.71658
  Beta  occ. eigenvalues --   -0.67646  -0.66518  -0.65556  -0.63115  -0.60950
  Beta  occ. eigenvalues --   -0.55444  -0.53589  -0.52727  -0.51124  -0.49771
  Beta  occ. eigenvalues --   -0.47757  -0.46572  -0.44027  -0.42590  -0.41173
  Beta  occ. eigenvalues --   -0.40361  -0.37293  -0.36645  -0.36221  -0.36061
  Beta  occ. eigenvalues --   -0.35768  -0.34404  -0.33970  -0.33767  -0.32187
  Beta  occ. eigenvalues --   -0.31308  -0.31112  -0.30626  -0.30325  -0.29753
  Beta  occ. eigenvalues --   -0.29128  -0.27843  -0.26406  -0.26111  -0.25620
  Beta  occ. eigenvalues --   -0.23865  -0.23099  -0.22473  -0.21872  -0.20774
  Beta  occ. eigenvalues --   -0.18060  -0.16061  -0.14393  -0.13359  -0.12472
  Beta virt. eigenvalues --    0.05631   0.06142   0.06796   0.07070   0.07339
  Beta virt. eigenvalues --    0.08130   0.08510   0.08903   0.09178   0.09528
  Beta virt. eigenvalues --    0.10246   0.10445   0.10838   0.11091   0.11302

 Mulliken charges and spin densities:
               1          2
     1  C    0.149585  -0.246227
     2  C   -0.285018   0.623331
     3  N   -0.107526  -0.024478
     4  C    0.100472  -0.697106
     5  C    0.096457  -0.391326
     6  N   -0.256620   0.115566
     7  C   -0.426599  -0.174775
     8  C    1.579168  -0.829516
     9  C   -0.121648  -0.067831
    10  C   -0.534371   0.211415
    11  C   -0.163477  -0.205896
    12  C   -0.076674  -0.730639
    13  C    0.522658   0.305436
    14  C   -0.482890  -0.087085
    15  C   -0.272089  -0.310510
    16  N   -0.242390   0.123580
    17  C    0.343728  -0.864337
    18  C   -0.280630   0.082399
    19  N   -0.313967  -0.039110
    20  H   -0.364167   0.537345
    21  H   -0.275551   0.441416
    22  H    0.095058   0.068864
    23  H   -0.617858   0.953341
    24  H   -0.499753   0.671199
    25  H    0.134188   0.039633
    26  H    0.125927   0.031289
    27  H    0.052293   0.176528
    28  H    0.124561   0.037982
    29  H   -0.037153   0.181043
    30  H    0.498536  -0.271908
    31  H    0.215015  -0.095495
    32  H    0.089432   0.080577
    33  H    0.001198   0.130019
    34  H    0.049616   0.108414
    35  H    0.052070   0.195489
    36  H   -0.077713   0.259353
    37  H   -0.173551   0.289484
    38  H    0.142905  -0.007877
    39  H   -0.166852   0.316151
    40  H    0.204029   0.049012
    41  H    0.199602   0.015250
 Sum of Mulliken charges =  -1.00000   1.00000

 Dipole moment (field-independent basis, Debye):
    X=             -5.3265    Y=              4.8264    Z=              4.1361  Tot=              8.2929
 Quadrupole moment (field-independent basis, Debye-Ang):
   XX=           -198.3595   YY=           -164.9429   ZZ=           -158.7641
   XY=              1.8459   XZ=              8.6940   YZ=             -9.7854

 Summary of Natural Population Analysis:

                                       Natural Population
                Natural  -----------------------------------------------
    Atom  No    Charge         Core      Valence    Rydberg      Total
 -----------------------------------------------------------------------
      C    1   -0.30817      0.99963     2.30291    0.00563     3.30817
      C    2    0.21296      0.99963     1.77049    0.01692     2.78704
      N    3   -0.26455      0.99968     2.75596    0.00891     3.76455
      C    4    0.05370      0.99945     1.93276    0.01409     2.94630
      C    5    0.06911      0.99946     1.91920    0.01223     2.93089
      N    6   -0.27954      0.99963     2.76950    0.01041     3.77954
      C    7   -0.11648      0.99947     2.10766    0.00934     3.11648
      C    8   -0.01964      0.99951     2.00926    0.01087     3.01964
      C    9   -0.11691      0.99952     2.10908    0.00830     3.11691
      C   10   -0.09737      0.99952     2.08980    0.00805     3.09737
      C   11   -0.01708      0.99956     2.00481    0.01271     3.01708
      C   12   -0.19019      0.99960     2.17969    0.01090     3.19019
      C   13   -0.11885      0.99958     2.10874    0.01054     3.11885
      C   14   -0.19766      0.99961     2.19045    0.00761     3.19766
      C   15   -0.08628      0.99963     2.07534    0.01132     3.08628
      N   16   -0.34157      0.99974     2.83073    0.01111     3.84157
      C   17   -0.08678      0.99962     2.07598    0.01118     3.08678
      C   18   -0.19081      0.99961     2.18138    0.00982     3.19081
      N   19   -0.41982      0.99977     2.91152    0.00852     3.91982
      H   20    0.11129      0.00000     0.38711    0.00160     0.38871
      H   21    0.10898      0.00000     0.38983    0.00119     0.39102
      H   22    0.11220      0.00000     0.38675    0.00105     0.38780
      H   23    0.21282      0.00000     0.26368    0.02350     0.28718
      H   24    0.10684      0.00000     0.39106    0.00211     0.39316
      H   25    0.10758      0.00000     0.39124    0.00118     0.39242
      H   26    0.10109      0.00000     0.39778    0.00113     0.39891
      H   27    0.09693      0.00000     0.40161    0.00146     0.40307
      H   28    0.09406      0.00000     0.40477    0.00117     0.40594
      H   29    0.10252      0.00000     0.39615    0.00133     0.39748
      H   30    0.10231      0.00000     0.39481    0.00288     0.39769
      H   31    0.10176      0.00000     0.39705    0.00120     0.39824
      H   32    0.09391      0.00000     0.40479    0.00130     0.40609
      H   33    0.07996      0.00000     0.41850    0.00154     0.42004
      H   34    0.09302      0.00000     0.40615    0.00083     0.40698
      H   35    0.17380      0.00000     0.32360    0.00260     0.32620
      H   36    0.09425      0.00000     0.40474    0.00101     0.40575
      H   37    0.07968      0.00000     0.41865    0.00167     0.42032
      H   38    0.09413      0.00000     0.40443    0.00144     0.40587
      H   39    0.10209      0.00000     0.39692    0.00099     0.39791
      H   40    0.17308      0.00000     0.32536    0.00156     0.32692
      H   41    0.17365      0.00000     0.32464    0.00170     0.32635
 =======================================================================
   * Total *    0.00000     18.99220    50.75490    0.25290    70.00000

 Normal termination of Gaussian 16 at Sat Dec 12 11:23:55 2020.
