 Gaussian 16, Revision A.03,

 -----------------------------------------------------------
 # opt freq B3LYP/6-31G(d) empiricaldispersion=gd3bj scf=xqc
 -----------------------------------------------------------

 -------------------------------
 CID_130142315_JID_4252_neutraal
 -------------------------------
 Symbolic Z-matrix:
 Charge =  0 Multiplicity = 1

 SCF Done:  E(RB3LYP) =  -618.589765333     A.U. after   13 cycles
 SCF Done:  E(RB3LYP) =  -618.595345235     A.U. after   10 cycles
 SCF Done:  E(RB3LYP) =  -618.595560148     A.U. after   10 cycles
 SCF Done:  E(RB3LYP) =  -618.595578715     A.U. after    8 cycles
 SCF Done:  E(RB3LYP) =  -618.595581679     A.U. after    7 cycles
 SCF Done:  E(RB3LYP) =  -618.595582315     A.U. after    7 cycles
 SCF Done:  E(RB3LYP) =  -618.595582542     A.U. after    7 cycles
 SCF Done:  E(RB3LYP) =  -618.595582655     A.U. after    7 cycles
 SCF Done:  E(RB3LYP) =  -618.595582711     A.U. after    7 cycles
 SCF Done:  E(RB3LYP) =  -618.595582733     A.U. after    6 cycles
 Optimization completed.
    -- Stationary point found.
 Normal termination of Gaussian 16 at Thu Dec 10 09:20:40 2020.

 --------------------------------------------------------------------
 #N Geom=AllCheck Guess=TCheck SCRF=Check GenChk RB3LYP/6-31G(d) Freq
 --------------------------------------------------------------------

 Structure from the checkpoint file:  "JID_4252.chk"
 -------------------------------
 CID_130142315_JID_4252_neutraal
 -------------------------------
 Charge =  0 Multiplicity = 1

 SCF Done:  E(RB3LYP) =  -618.595582733     A.U. after    1 cycles

  Exact polarizability: 129.471   1.337 116.593  -0.897   0.100 106.906
 Approx polarizability: 171.549  -0.495 168.912  -3.621   0.466 165.925

                      1                      2                      3
                      A                      A                      A
 Frequencies --     49.6306                61.0349               159.5695
 Red. masses --      1.9132                 3.6825                 2.6004
 Frc consts  --      0.0028                 0.0081                 0.0390
 IR Inten    --      2.1489                 1.4415                 0.3360

                      4                      5                      6
                      A                      A                      A
 Frequencies --    190.1631               206.0307               248.8339
 Red. masses --      2.3538                 1.7665                 3.1006
 Frc consts  --      0.0501                 0.0442                 0.1131
 IR Inten    --      0.0913                 2.9020                 2.4747

                      7                      8                      9
                      A                      A                      A
 Frequencies --    287.9018               338.9101               354.7422
 Red. masses --      1.3545                 2.1812                 2.9832
 Frc consts  --      0.0661                 0.1476                 0.2212
 IR Inten    --     37.3945                56.7178                 0.8624

                     10                     11                     12
                      A                      A                      A
 Frequencies --    368.0711               381.3658               454.7873
 Red. masses --      2.9979                 2.6544                 2.2621
 Frc consts  --      0.2393                 0.2275                 0.2757
 IR Inten    --      6.3743                 1.3591                 3.3971

                     13                     14                     15
                      A                      A                      A
 Frequencies --    462.9646               501.5731               517.1251
 Red. masses --      2.1847                 2.9946                 3.8726
 Frc consts  --      0.2759                 0.4439                 0.6102
 IR Inten    --      0.5003                 1.4486                 3.0170

                     16                     17                     18
                      A                      A                      A
 Frequencies --    556.0579               599.4250               651.6935
 Red. masses --      4.1577                 3.1575                 4.6526
 Frc consts  --      0.7574                 0.6684                 1.1642
 IR Inten    --      1.4815                 2.8629                 3.4072

                     19                     20                     21
                      A                      A                      A
 Frequencies --    717.3708               755.7915               765.9395
 Red. masses --      4.4315                 3.3263                 3.9577
 Frc consts  --      1.3437                 1.1195                 1.3680
 IR Inten    --      7.2185                 2.0743                 3.8603

                     22                     23                     24
                      A                      A                      A
 Frequencies --    810.8919               829.4546               848.5797
 Red. masses --      2.8448                 2.7273                 2.1416
 Frc consts  --      1.1021                 1.1055                 0.9086
 IR Inten    --      0.9104                 1.8816                 1.7972

                     25                     26                     27
                      A                      A                      A
 Frequencies --    866.2627               876.4033               910.7067
 Red. masses --      3.1670                 3.2737                 2.5853
 Frc consts  --      1.4002                 1.4815                 1.2633
 IR Inten    --      2.6579                 0.6396                 5.0985

                     28                     29                     30
                      A                      A                      A
 Frequencies --    932.1984               942.4746               975.2802
 Red. masses --      2.3245                 2.0881                 1.7457
 Frc consts  --      1.1902                 1.0928                 0.9783
 IR Inten    --      0.8678                 1.0236                 2.9708

                     31                     32                     33
                      A                      A                      A
 Frequencies --    985.1998               993.4577              1013.1469
 Red. masses --      1.7420                 1.9498                 1.9560
 Frc consts  --      0.9962                 1.1338                 1.1829
 IR Inten    --      3.7038                 4.9411                 3.8629

                     34                     35                     36
                      A                      A                      A
 Frequencies --   1017.5013              1033.5955              1056.1453
 Red. masses --      2.0597                 2.6934                 2.5091
 Frc consts  --      1.2564                 1.6953                 1.6490
 IR Inten    --      9.9674                11.2892                22.7125

                     37                     38                     39
                      A                      A                      A
 Frequencies --   1064.1085              1083.5062              1101.8485
 Red. masses --      1.8907                 2.5118                 1.9875
 Frc consts  --      1.2614                 1.7374                 1.4217
 IR Inten    --     21.1799                26.2624                22.8350

                     40                     41                     42
                      A                      A                      A
 Frequencies --   1120.9404              1129.6501              1153.8562
 Red. masses --      1.6728                 1.1677                 1.8085
 Frc consts  --      1.2384                 0.8780                 1.4187
 IR Inten    --     13.6203                 1.0498                18.1512

                     43                     44                     45
                      A                      A                      A
 Frequencies --   1172.9901              1187.0897              1190.6015
 Red. masses --      2.3847                 1.5512                 1.2915
 Frc consts  --      1.9332                 1.2879                 1.0786
 IR Inten    --     97.6034                19.7115                10.0229

                     46                     47                     48
                      A                      A                      A
 Frequencies --   1195.3911              1215.9018              1236.2161
 Red. masses --      1.4149                 1.5488                 1.6693
 Frc consts  --      1.1912                 1.3491                 1.5030
 IR Inten    --     12.7238                 3.3853                17.8695

                     49                     50                     51
                      A                      A                      A
 Frequencies --   1238.9436              1255.1889              1261.0587
 Red. masses --      1.4376                 1.5336                 1.9241
 Frc consts  --      1.3002                 1.4236                 1.8028
 IR Inten    --     12.7096                 4.6935                58.1288

                     52                     53                     54
                      A                      A                      A
 Frequencies --   1280.4845              1295.7564              1304.0322
 Red. masses --      1.4606                 1.5478                 1.6397
 Frc consts  --      1.4110                 1.5311                 1.6428
 IR Inten    --      4.0335                11.6852                10.6088

                     55                     56                     57
                      A                      A                      A
 Frequencies --   1305.8911              1310.6011              1326.5970
 Red. masses --      1.4689                 1.4113                 1.7127
 Frc consts  --      1.4759                 1.4282                 1.7758
 IR Inten    --      0.6127                 2.7286                11.1145

                     58                     59                     60
                      A                      A                      A
 Frequencies --   1330.7535              1346.0107              1348.0497
 Red. masses --      1.4795                 1.5449                 1.5057
 Frc consts  --      1.5437                 1.6491                 1.6122
 IR Inten    --      3.3734                 1.1821                 7.0358

                     61                     62                     63
                      A                      A                      A
 Frequencies --   1364.3874              1369.6748              1383.1107
 Red. masses --      1.6307                 1.4486                 1.4632
 Frc consts  --      1.7886                 1.6011                 1.6492
 IR Inten    --     10.4437                 1.1106                 0.5106

                     64                     65                     66
                      A                      A                      A
 Frequencies --   1387.8892              1454.4788              1505.2403
 Red. masses --      1.6222                 1.2227                 1.1540
 Frc consts  --      1.8410                 1.5240                 1.5405
 IR Inten    --     28.1532                56.9327                 0.3059

                     67                     68                     69
                      A                      A                      A
 Frequencies --   1515.0807              1522.3036              1522.9058
 Red. masses --      1.0888                 1.0631                 1.0826
 Frc consts  --      1.4726                 1.4515                 1.4794
 IR Inten    --      0.9032                 2.9239                 2.3333

                     70                     71                     72
                      A                      A                      A
 Frequencies --   1531.5937              1537.7463              1547.2128
 Red. masses --      1.1022                 1.0591                 1.0891
 Frc consts  --      1.5233                 1.4756                 1.5361
 IR Inten    --      5.7797                13.2788                 5.4668

                     73                     74                     75
                      A                      A                      A
 Frequencies --   3013.5182              3042.4794              3058.4244
 Red. masses --      1.0356                 1.0645                 1.0848
 Frc consts  --      5.5408                 5.8055                 5.9787
 IR Inten    --     46.0279                26.1115                12.5416

                     76                     77                     78
                      A                      A                      A
 Frequencies --   3062.7815              3066.9373              3072.6323
 Red. masses --      1.0646                 1.0744                 1.0852
 Frc consts  --      5.8838                 5.9544                 6.0362
 IR Inten    --     11.7600                58.5308                17.5681

                     79                     80                     81
                      A                      A                      A
 Frequencies --   3074.5001              3081.2088              3086.3780
 Red. masses --      1.0806                 1.0857                 1.0748
 Frc consts  --      6.0179                 6.0732                 6.0323
 IR Inten    --     27.6898                43.4937                55.0762

                     82                     83                     84
                      A                      A                      A
 Frequencies --   3088.5102              3092.1868              3102.6859
 Red. masses --      1.0995                 1.0884                 1.0962
 Frc consts  --      6.1794                 6.1317                 6.2174
 IR Inten    --     45.8470                 7.7946                39.4424

                     85                     86                     87
                      A                      A                      A
 Frequencies --   3110.4511              3111.6150              3113.9790
 Red. masses --      1.0937                 1.0903                 1.1035
 Frc consts  --      6.2344                 6.2199                 6.3044
 IR Inten    --     48.7039                35.1015                57.6729

                     88                     89                     90
                      A                      A                      A
 Frequencies --   3125.5371              3136.4759              3722.0192
 Red. masses --      1.1014                 1.0985                 1.0660
 Frc consts  --      6.3392                 6.3669                 8.7012
 IR Inten    --     28.0074                34.8844                 4.8604

 - Thermochemistry -
 -------------------
 Temperature   298.150 Kelvin.  Pressure   1.00000 Atm.
 Atom     1 has atomic number  6 and mass  12.00000

 Molecular mass:   194.13068 amu.
 Principal axes and moments of inertia in atomic units:
                           1         2         3
     Eigenvalues --  1812.421912378.450143292.24977
           X            0.99989   0.01502  -0.00094
           Y           -0.01502   0.99988   0.00227
           Z            0.00097  -0.00226   1.00000
 This molecule is an asymmetric top.
 Rotational symmetry number  1.
 Warning -- assumption of classical behavior for rotation
           may cause significant error
 Rotational temperatures (Kelvin)      0.04779     0.03642     0.02631
 Rotational constants (GHZ):           0.99576     0.75879     0.54818
 Zero-point vibrational energy     753525.9 (Joules/Mol)
                                  180.09701 (Kcal/Mol)
 Warning -- explicit consideration of  17 degrees of freedom as
           vibrations may cause significant error
 Vibrational temperatures:     71.41    87.82   229.58   273.60   296.43
          (Kelvin)            358.02   414.23   487.62   510.39   529.57
                              548.70   654.34   666.10   721.65   744.03
                              800.04   862.44   937.64  1032.14  1087.42
                             1102.02  1166.69  1193.40  1220.92  1246.36
                             1260.95  1310.30  1341.23  1356.01  1403.21
                             1417.48  1429.36  1457.69  1463.96  1487.11
                             1519.56  1531.01  1558.92  1585.31  1612.78
                             1625.31  1660.14  1687.67  1707.96  1713.01
                             1719.90  1749.41  1778.64  1782.56  1805.94
                             1814.38  1842.33  1864.30  1876.21  1878.89
                             1885.66  1908.68  1914.66  1936.61  1939.54
                             1963.05  1970.66  1989.99  1996.86  2092.67
                             2165.71  2179.86  2190.26  2191.12  2203.62
                             2212.47  2226.09  4335.78  4377.45  4400.39
                             4406.66  4412.64  4420.83  4423.52  4433.17
                             4440.61  4443.68  4448.97  4464.07  4475.25
                             4476.92  4480.32  4496.95  4512.69  5355.16

 Zero-point correction=                           0.287003 (Hartree/Particle)
 Thermal correction to Energy=                    0.298452
 Thermal correction to Enthalpy=                  0.299396
 Thermal correction to Gibbs Free Energy=         0.249762
 Sum of electronic and zero-point Energies=           -618.308580
 Sum of electronic and thermal Energies=              -618.297131
 Sum of electronic and thermal Enthalpies=            -618.296187
 Sum of electronic and thermal Free Energies=         -618.345820

                     E (Thermal)             CV                S
                      KCal/Mol        Cal/Mol-Kelvin    Cal/Mol-Kelvin
 Total                  187.281             48.148            104.463
 Electronic               0.000              0.000              0.000
 Translational            0.889              2.981             41.695
 Rotational               0.889              2.981             31.029
 Vibrational            185.504             42.187             31.738
 Vibration     1          0.595              1.978              4.832
 Vibration     2          0.597              1.973              4.423
 Vibration     3          0.621              1.892              2.555
 Vibration     4          0.633              1.853              2.226
 Vibration     5          0.641              1.831              2.079
 Vibration     6          0.662              1.765              1.739
 Vibration     7          0.685              1.696              1.486
 Vibration     8          0.719              1.598              1.217
 Vibration     9          0.731              1.566              1.145
 Vibration    10          0.741              1.538              1.088
 Vibration    11          0.751              1.510              1.034
 Vibration    12          0.813              1.350              0.781
 Vibration    13          0.821              1.332              0.758
 Vibration    14          0.857              1.247              0.654
 Vibration    15          0.872              1.212              0.617
 Vibration    16          0.912              1.126              0.532
 Vibration    17          0.957              1.033              0.451

                           ! Non-Optimized Parameters !
 Normal termination of Gaussian 16 at Thu Dec 10 09:32:18 2020.

 ----------------------------------------------------------------------
 # B3LYP/6-311++G(d,p) empiricaldispersion=gd3bj scf=xqc pop=npa geom=c
 heck
 ----------------------------------------------------------------------

 ---------------------------------------
 CID_130142315_JID_4252_Energie_neutraal
 ---------------------------------------
 Structure from the checkpoint file:  "JID_4252.chk"
 Charge =  0 Multiplicity = 1

 SCF Done:  E(RB3LYP) =  -618.770960224     A.U. after   13 cycles
 Normal termination of Gaussian 16 at Thu Dec 10 09:37:00 2020.

 ----------------------------------------------------------------------
 # B3LYP/6-311++G(d,p) empiricaldispersion=gd3bj scf=xqc pop=npa geom=c
 heck
 ----------------------------------------------------------------------

 -------------------------------------
 CID_130142315_JID_4252_Energie_kation
 -------------------------------------
 Structure from the checkpoint file:  "JID_4252.chk"
 Charge =  1 Multiplicity = 2

 SCF Done:  E(UB3LYP) =  -618.447234574     A.U. after   23 cycles
 Normal termination of Gaussian 16 at Thu Dec 10 09:48:45 2020.
 Gaussian 16:  ES64L-G16RevA.03 25-Dec-2016

 ----------------------------------------------------------------------
 # B3LYP/6-311++G(d,p) empiricaldispersion=gd3bj scf=xqc pop=npa geom=c
 heck
 ----------------------------------------------------------------------

 ------------------------------------
 CID_130142315_JID_4252_Energie_anion
 ------------------------------------
 Structure from the checkpoint file:  "JID_4252.chk"
 Charge = -1 Multiplicity = 2

                         Standard orientation:
 ---------------------------------------------------------------------
 Center     Atomic      Atomic             Coordinates (Angstroms)
 Number     Number       Type             X           Y           Z
 ---------------------------------------------------------------------
      1          6           0        3.389260    0.732099   -0.523807
      2          8           0        2.084897    1.157346   -0.184830
      3          6           0        1.141762    0.143424    0.079453
      4          6           0        0.806868   -0.805449   -1.101573
      5          6           0       -0.016740   -1.952475   -0.432647
      6          6           0       -1.517243   -1.917577   -0.734522
      7          6           0       -2.035791   -0.663025    0.009773
      8          6           0       -2.071999    0.617069   -0.873692
      9          6           0       -1.018027    1.612470   -0.330728
     10          6           0       -0.136129    0.809896    0.634611
     11          6           0       -0.967368   -0.410535    1.123506
     12          6           0        0.066582   -1.575163    1.072018
     13          6           0        1.427019   -0.880985    1.208259
     14          8           0       -1.629117    2.725056    0.332328
     15          1           0        3.990069    1.638571   -0.632255
     16          1           0        3.419343    0.178145   -1.472801
     17          1           0        3.835142    0.104782    0.261074
     18          1           0        0.275032   -0.299348   -1.911449
     19          1           0        1.732929   -1.203011   -1.527888
     20          1           0        0.425271   -2.930032   -0.650302
     21          1           0       -1.983437   -2.821512   -0.322044
     22          1           0       -1.743882   -1.896640   -1.806622
     23          1           0       -3.024467   -0.857308    0.436093
     24          1           0       -3.052245    1.104644   -0.855865
     25          1           0       -1.874640    0.368420   -1.921915
     26          1           0       -0.425031    2.068668   -1.127659
     27          1           0        0.187171    1.470502    1.445359
     28          1           0       -1.404730   -0.259355    2.114581
     29          1           0       -0.137518   -2.404383    1.754285
     30          1           0        2.268481   -1.549596    0.994403
     31          1           0        1.590040   -0.398427    2.177639
     32          1           0       -2.132941    2.368168    1.081480
 ---------------------------------------------------------------------

 SCF Done:  E(UB3LYP) =  -618.759025818     A.U. after   28 cycles

 The electronic state is 2-A.
 Alpha  occ. eigenvalues --  -19.02596 -19.01856 -10.12417 -10.11403 -10.11285
 Alpha  occ. eigenvalues --  -10.06676 -10.06604 -10.06573 -10.06339 -10.06180
 Alpha  occ. eigenvalues --  -10.06172 -10.06138 -10.06013 -10.05818  -0.94019
 Alpha  occ. eigenvalues --   -0.91981  -0.78683  -0.69601  -0.67630  -0.63121
 Alpha  occ. eigenvalues --   -0.60237  -0.58649  -0.56028  -0.54589  -0.48347
 Alpha  occ. eigenvalues --   -0.45853  -0.44298  -0.42372  -0.42143  -0.40268
 Alpha  occ. eigenvalues --   -0.38391  -0.35699  -0.34894  -0.34652  -0.33490
 Alpha  occ. eigenvalues --   -0.32455  -0.31271  -0.30954  -0.29627  -0.27318
 Alpha  occ. eigenvalues --   -0.26915  -0.25602  -0.25050  -0.23988  -0.23148
 Alpha  occ. eigenvalues --   -0.21935  -0.21344  -0.20887  -0.20409  -0.20055
 Alpha  occ. eigenvalues --   -0.18862  -0.16624  -0.15447   0.04296
 Alpha virt. eigenvalues --    0.06359   0.07490   0.07870   0.08884   0.09281
 Alpha virt. eigenvalues --    0.09555   0.10067   0.10339   0.11542   0.11739
 Alpha virt. eigenvalues --    0.12028   0.12767   0.13188   0.13630   0.14010

  Beta  occ. eigenvalues --  -19.02587 -19.01837 -10.12418 -10.11402 -10.11256
  Beta  occ. eigenvalues --  -10.06664 -10.06591 -10.06560 -10.06318 -10.06176
  Beta  occ. eigenvalues --  -10.06156 -10.06129 -10.05997 -10.05804  -0.93999
  Beta  occ. eigenvalues --   -0.91943  -0.78650  -0.69573  -0.67604  -0.63086
  Beta  occ. eigenvalues --   -0.60200  -0.58616  -0.55990  -0.54547  -0.48309
  Beta  occ. eigenvalues --   -0.45812  -0.44258  -0.42321  -0.42097  -0.40232
  Beta  occ. eigenvalues --   -0.38356  -0.35662  -0.34865  -0.34632  -0.33465
  Beta  occ. eigenvalues --   -0.32423  -0.31238  -0.30915  -0.29596  -0.27294
  Beta  occ. eigenvalues --   -0.26895  -0.25578  -0.25023  -0.23955  -0.23116
  Beta  occ. eigenvalues --   -0.21910  -0.21315  -0.20853  -0.20376  -0.20023
  Beta  occ. eigenvalues --   -0.18834  -0.16606  -0.15429
  Beta virt. eigenvalues --    0.06650   0.07384   0.08213   0.08380   0.09439
  Beta virt. eigenvalues --    0.09768   0.10059   0.10497   0.10695   0.11873
  Beta virt. eigenvalues --    0.12069   0.12594   0.13147   0.13438   0.13830

 Mulliken charges and spin densities:
               1          2
     1  C    0.832303  -1.048871
     2  O   -0.076734   0.012653
     3  C   -0.765183   0.189683
     4  C    0.762635  -1.044742
     5  C    0.164807   0.061002
     6  C    0.573765  -1.369499
     7  C    0.658192  -0.315041
     8  C   -0.348216  -0.195439
     9  C   -0.274692  -0.352057
    10  C   -0.088640   0.228145
    11  C   -0.145573  -0.140406
    12  C    0.266522  -0.235909
    13  C   -0.240612  -0.213707
    14  O   -0.193885  -0.008070
    15  H    0.016145   0.126260
    16  H   -0.284723   0.411172
    17  H   -0.204883   0.343104
    18  H    0.137852   0.030777
    19  H   -0.042772   0.194134
    20  H   -0.371275   0.611844
    21  H   -0.064533   0.199146
    22  H   -0.046363   0.180046
    23  H   -0.415322   0.654183
    24  H    0.035190   0.153284
    25  H    0.047918   0.056235
    26  H    0.236581  -0.005667
    27  H    0.211012   0.048805
    28  H   -0.548141   0.798266
    29  H   -0.614631   0.848184
    30  H   -0.284536   0.440614
    31  H   -0.013060   0.175368
    32  H    0.080852   0.166502
 Sum of Mulliken charges =  -1.00000   1.00000

 Dipole moment (field-independent basis, Debye):
    X=              0.2451    Y=              2.8618    Z=             -2.5589  Tot=              3.8468
 Quadrupole moment (field-independent basis, Debye-Ang):
   XX=           -141.9674   YY=           -139.8769   ZZ=           -121.1257
   XY=              3.3525   XZ=              7.9393   YZ=              1.2860

 Summary of Natural Population Analysis:

                                       Natural Population
                Natural  -----------------------------------------------
    Atom  No    Charge         Core      Valence    Rydberg      Total
 -----------------------------------------------------------------------
      C    1   -0.09736      0.99959     2.08875    0.00902     3.09736
      O    2   -0.30149      0.99985     3.29137    0.01027     4.30149
      C    3    0.14650      0.99941     1.83412    0.01998     2.85350
      C    4   -0.20755      0.99957     2.19820    0.00979     3.20755
      C    5   -0.10846      0.99959     2.09603    0.01284     3.10846
      C    6   -0.18383      0.99960     2.17498    0.00925     3.18383
      C    7   -0.11561      0.99960     2.10366    0.01236     3.11561
      C    8   -0.20287      0.99961     2.19504    0.00822     3.20287
      C    9    0.06428      0.99951     1.92215    0.01406     2.93572
      C   10   -0.12478      0.99951     2.11127    0.01400     3.12478
      C   11   -0.10579      0.99959     2.09281    0.01339     3.10579
      C   12   -0.10384      0.99958     2.09087    0.01339     3.10384
      C   13   -0.20193      0.99957     2.19282    0.00954     3.20193
      O   14   -0.37094      0.99990     3.36528    0.00576     4.37094
      H   15    0.08800      0.00000     0.41120    0.00081     0.41200
      H   16    0.08011      0.00000     0.41856    0.00133     0.41989
      H   17    0.08119      0.00000     0.41750    0.00132     0.41881
      H   18    0.09987      0.00000     0.39887    0.00126     0.40013
      H   19    0.10545      0.00000     0.39289    0.00166     0.39455
      H   20    0.10397      0.00000     0.39408    0.00195     0.39603
      H   21    0.10148      0.00000     0.39698    0.00154     0.39852
      H   22    0.09614      0.00000     0.40289    0.00097     0.40386
      H   23    0.10402      0.00000     0.39412    0.00186     0.39598
      H   24    0.10550      0.00000     0.39351    0.00099     0.39450
      H   25    0.09862      0.00000     0.40028    0.00110     0.40138
      H   26    0.09097      0.00000     0.40738    0.00165     0.40903
      H   27    0.11229      0.00000     0.38618    0.00153     0.38771
      H   28    0.10912      0.00000     0.38815    0.00273     0.39088
      H   29    0.10642      0.00000     0.39156    0.00202     0.39358
      H   30    0.10288      0.00000     0.39536    0.00175     0.39712
      H   31    0.10243      0.00000     0.39636    0.00121     0.39757
      H   32    0.22522      0.00000     0.27186    0.00292     0.27478
 =======================================================================
   * Total *   -0.00000     13.99448    38.81506    0.19045    53.00000

 Normal termination of Gaussian 16 at Thu Dec 10 10:03:05 2020.
