 Gaussian 16, Revision A.03,

 -----------------------------------------------------------
 # opt freq B3LYP/6-31G(d) empiricaldispersion=gd3bj scf=xqc
 -----------------------------------------------------------

 -------------------------------
 CID_116555590_JID_5152_neutraal
 -------------------------------
 Symbolic Z-matrix:
 Charge =  0 Multiplicity = 1

 SCF Done:  E(RB3LYP) =  -668.926224862     A.U. after   15 cycles
 SCF Done:  E(RB3LYP) =  -668.928668954     A.U. after   13 cycles
 SCF Done:  E(RB3LYP) =  -668.899498797     A.U. after   14 cycles
 SCF Done:  E(RB3LYP) =  -668.927069683     A.U. after   13 cycles
 SCF Done:  E(RB3LYP) =  -668.929364984     A.U. after   10 cycles
 SCF Done:  E(RB3LYP) =  -668.930516758     A.U. after   12 cycles
 SCF Done:  E(RB3LYP) =  -668.930374798     A.U. after   13 cycles
 SCF Done:  E(RB3LYP) =  -668.931855450     A.U. after   12 cycles
 SCF Done:  E(RB3LYP) =  -668.931809622     A.U. after   12 cycles
 SCF Done:  E(RB3LYP) =  -668.932279081     A.U. after   11 cycles
 SCF Done:  E(RB3LYP) =  -668.943161752     A.U. after    9 cycles
 SCF Done:  E(RB3LYP) =  -668.943164678     A.U. after   10 cycles
 SCF Done:  E(RB3LYP) =  -668.943167251     A.U. after   10 cycles
 SCF Done:  E(RB3LYP) =  -668.943168330     A.U. after    9 cycles
 SCF Done:  E(RB3LYP) =  -668.943168522     A.U. after    8 cycles
 Optimization completed.
    -- Stationary point found.
 Normal termination of Gaussian 16 at Thu Dec 10 15:06:25 2020.

 --------------------------------------------------------------------
 #N Geom=AllCheck Guess=TCheck SCRF=Check GenChk RB3LYP/6-31G(d) Freq
 --------------------------------------------------------------------

 Structure from the checkpoint file:  "JID_5152.chk"
 -------------------------------
 CID_116555590_JID_5152_neutraal
 -------------------------------
 Charge =  0 Multiplicity = 1

 SCF Done:  E(RB3LYP) =  -668.943168522     A.U. after    1 cycles

  Exact polarizability: 166.755  -0.073 141.492   9.290  11.692  95.674
 Approx polarizability: 232.223  -8.547 231.146  20.562  28.565 146.534

                      1                      2                      3
                      A                      A                      A
 Frequencies --     30.8095                45.8423                73.1471
 Red. masses --      5.2737                 4.0793                 4.8366
 Frc consts  --      0.0029                 0.0051                 0.0152
 IR Inten    --      2.3636                 0.8579                 0.2936

                      4                      5                      6
                      A                      A                      A
 Frequencies --     81.9828               105.8243               155.6759
 Red. masses --      3.8506                 4.2806                 2.3725
 Frc consts  --      0.0152                 0.0282                 0.0339
 IR Inten    --      0.1395                 0.9916                 2.8208

                      7                      8                      9
                      A                      A                      A
 Frequencies --    157.6780               172.5694               202.8816
 Red. masses --      2.2123                 3.0555                 3.8728
 Frc consts  --      0.0324                 0.0536                 0.0939
 IR Inten    --      0.1675                 2.7093                 3.1760

                     10                     11                     12
                      A                      A                      A
 Frequencies --    264.7540               281.0936               284.1642
 Red. masses --      1.4544                 4.0113                 3.6376
 Frc consts  --      0.0601                 0.1867                 0.1731
 IR Inten    --      3.5822                 0.6835                 4.1835

                     13                     14                     15
                      A                      A                      A
 Frequencies --    301.7828               359.0659               392.5614
 Red. masses --      2.1967                 2.5820                 2.1783
 Frc consts  --      0.1179                 0.1961                 0.1978
 IR Inten    --      4.1179                 2.7255                 3.6295

                     16                     17                     18
                      A                      A                      A
 Frequencies --    420.4611               471.1720               477.8824
 Red. masses --      2.8886                 1.7594                 3.3438
 Frc consts  --      0.3009                 0.2301                 0.4499
 IR Inten    --      9.6577                53.8334                 9.0105

                     19                     20                     21
                      A                      A                      A
 Frequencies --    500.3913               509.2678               552.0306
 Red. masses --      1.8250                 2.4518                 5.2990
 Frc consts  --      0.2692                 0.3747                 0.9514
 IR Inten    --     27.9211                11.5674                 0.4948

                     22                     23                     24
                      A                      A                      A
 Frequencies --    580.5372               636.9664               710.4013
 Red. masses --      3.7975                 4.6885                 4.1534
 Frc consts  --      0.7541                 1.1208                 1.2350
 IR Inten    --      2.9499                 7.1428                 2.9307

                     25                     26                     27
                      A                      A                      A
 Frequencies --    736.9439               745.2111               771.1736
 Red. masses --      1.3677                 2.2986                 2.1027
 Frc consts  --      0.4376                 0.7521                 0.7368
 IR Inten    --     87.7160                42.5844                17.2488

                     28                     29                     30
                      A                      A                      A
 Frequencies --    788.3801               822.9399               832.1996
 Red. masses --      2.6214                 3.6783                 1.4469
 Frc consts  --      0.9599                 1.4677                 0.5904
 IR Inten    --     16.8954                 3.3175                20.6740

                     31                     32                     33
                      A                      A                      A
 Frequencies --    871.0917               894.9449               895.6819
 Red. masses --      1.8040                 3.3709                 1.8320
 Frc consts  --      0.8065                 1.5907                 0.8659
 IR Inten    --     99.0201                 6.2724                36.5194

                     34                     35                     36
                      A                      A                      A
 Frequencies --    938.3480               947.3913               963.3843
 Red. masses --      1.6107                 1.3609                 1.8917
 Frc consts  --      0.8356                 0.7197                 1.0344
 IR Inten    --     12.3514                 0.7421                 7.7441

                     37                     38                     39
                      A                      A                      A
 Frequencies --    980.1366              1040.1122              1047.3260
 Red. masses --      1.4283                 1.4750                 1.7569
 Frc consts  --      0.8084                 0.9402                 1.1355
 IR Inten    --      0.0945                 6.8849                13.2139

                     40                     41                     42
                      A                      A                      A
 Frequencies --   1077.4867              1080.0193              1120.8522
 Red. masses --      2.6745                 2.4789                 1.6844
 Frc consts  --      1.8294                 1.7036                 1.2468
 IR Inten    --      4.4489                21.0226                22.7714

                     43                     44                     45
                      A                      A                      A
 Frequencies --   1135.7312              1142.6647              1160.3086
 Red. masses --      1.9964                 1.4554                 1.6358
 Frc consts  --      1.5172                 1.1196                 1.2976
 IR Inten    --      9.2333                 9.4142                12.9261

                     46                     47                     48
                      A                      A                      A
 Frequencies --   1186.0437              1217.8352              1227.4647
 Red. masses --      1.6699                 1.9282                 2.1270
 Frc consts  --      1.3840                 1.6849                 1.8881
 IR Inten    --      7.2988                23.3060                11.6831

                     49                     50                     51
                      A                      A                      A
 Frequencies --   1243.3548              1246.9699              1293.8890
 Red. masses --      1.5519                 1.3812                 1.5426
 Frc consts  --      1.4135                 1.2654                 1.5216
 IR Inten    --     32.4254                16.9322                 6.9612

                     52                     53                     54
                      A                      A                      A
 Frequencies --   1317.4981              1322.7597              1341.6112
 Red. masses --      1.2396                 1.5135                 4.9964
 Frc consts  --      1.2677                 1.5603                 5.2986
 IR Inten    --      5.2189                 6.2450                40.1420

                     55                     56                     57
                      A                      A                      A
 Frequencies --   1359.0688              1378.4425              1381.2835
 Red. masses --      2.1982                 1.4819                 1.4372
 Frc consts  --      2.3923                 1.6590                 1.6156
 IR Inten    --      9.7375                 8.7554                19.7360

                     58                     59                     60
                      A                      A                      A
 Frequencies --   1398.4526              1417.9342              1469.5636
 Red. masses --      1.3762                 1.3794                 2.6726
 Frc consts  --      1.5858                 1.6341                 3.4007
 IR Inten    --      8.4512                 1.4296                13.5315

                     61                     62                     63
                      A                      A                      A
 Frequencies --   1484.5924              1494.0164              1497.1374
 Red. masses --      1.1851                 1.2002                 1.1030
 Frc consts  --      1.5389                 1.5783                 1.4566
 IR Inten    --      3.1049                16.2637                 7.6028

                     64                     65                     66
                      A                      A                      A
 Frequencies --   1512.1585              1519.5397              1520.6011
 Red. masses --      1.1102                 1.0502                 1.1146
 Frc consts  --      1.4957                 1.4287                 1.5185
 IR Inten    --      1.3144                 8.6408                 7.1767

                     67                     68                     69
                      A                      A                      A
 Frequencies --   1542.9005              1549.3550              1551.8996
 Red. masses --      1.0527                 2.2848                 1.1346
 Frc consts  --      1.4765                 3.2315                 1.6100
 IR Inten    --     10.7618                51.3171                12.3821

                     70                     71                     72
                      A                      A                      A
 Frequencies --   1623.6639              1655.4263              1745.2591
 Red. masses --      5.9465                 5.4119                 1.1418
 Frc consts  --      9.2365                 8.7381                 2.0491
 IR Inten    --     33.0523               128.7504               118.8962

                     73                     74                     75
                      A                      A                      A
 Frequencies --   1805.3379              2972.9238              2993.5416
 Red. masses --     10.5081                 1.0730                 1.0542
 Frc consts  --     20.1786                 5.5878                 5.5662
 IR Inten    --    178.3829                82.3230               118.4985

                     76                     77                     78
                      A                      A                      A
 Frequencies --   3042.4282              3047.8732              3071.7409
 Red. masses --      1.0683                 1.0645                 1.0872
 Frc consts  --      5.8264                 5.8264                 6.0442
 IR Inten    --     28.4984                16.1482                30.8883

                     79                     80                     81
                      A                      A                      A
 Frequencies --   3079.5681              3092.0924              3105.0117
 Red. masses --      1.0670                 1.0803                 1.0971
 Frc consts  --      5.9619                 6.0855                 6.2319
 IR Inten    --     12.4064                25.4807                11.5860

                     82                     83                     84
                      A                      A                      A
 Frequencies --   3116.7784              3132.4412              3149.3679
 Red. masses --      1.0975                 1.1039                 1.0903
 Frc consts  --      6.2817                 6.3820                 6.3715
 IR Inten    --      6.3854                22.2303                13.7225

                     85                     86                     87
                      A                      A                      A
 Frequencies --   3150.1957              3163.2599              3185.3323
 Red. masses --      1.0955                 1.0872                 1.0949
 Frc consts  --      6.4054                 6.4097                 6.5451
 IR Inten    --     32.7220                25.4263                35.0287

                     88                     89                     90
                      A                      A                      A
 Frequencies --   3352.8677              3466.5738              3622.1540
 Red. masses --      1.0680                 1.0738                 1.0835
 Frc consts  --      7.0740                 7.6026                 8.3752
 IR Inten    --    673.9241                 0.3208                29.0572

 - Thermochemistry -
 -------------------
 Temperature   298.150 Kelvin.  Pressure   1.00000 Atm.
 Atom     1 has atomic number  6 and mass  12.00000

 Molecular mass:   207.13716 amu.
 Principal axes and moments of inertia in atomic units:
                           1         2         3
     Eigenvalues --  1956.333024478.459635678.37658
           X            0.99989  -0.01443   0.00240
           Y            0.01446   0.99984  -0.01069
           Z           -0.00224   0.01073   0.99994
 This molecule is an asymmetric top.
 Rotational symmetry number  1.
 Warning -- assumption of classical behavior for rotation
           may cause significant error
 Rotational temperatures (Kelvin)      0.04427     0.01934     0.01525
 Rotational constants (GHZ):           0.92251     0.40298     0.31783
 Zero-point vibrational energy     728582.5 (Joules/Mol)
                                  174.13540 (Kcal/Mol)
 Warning -- explicit consideration of  22 degrees of freedom as
           vibrations may cause significant error
 Vibrational temperatures:     44.33    65.96   105.24   117.96   152.26
          (Kelvin)            223.98   226.86   248.29   291.90   380.92
                              404.43   408.85   434.20   516.62   564.81
                              604.95   677.91   687.57   719.95   732.72
                              794.25   835.26   916.45  1022.11  1060.30
                             1072.19  1109.55  1134.30  1184.03  1197.35
                             1253.31  1287.63  1288.69  1350.07  1363.08
                             1386.10  1410.20  1496.49  1506.87  1550.26
                             1553.91  1612.66  1634.06  1644.04  1669.43
                             1706.45  1752.19  1766.05  1788.91  1794.11
                             1861.62  1895.59  1903.16  1930.28  1955.40
                             1983.27  1987.36  2012.06  2040.09  2114.37
                             2136.00  2149.56  2154.05  2175.66  2186.28
                             2187.81  2219.89  2229.18  2232.84  2336.09
                             2381.79  2511.04  2597.48  4277.37  4307.04
                             4377.38  4385.21  4419.55  4430.81  4448.83
                             4467.42  4484.35  4506.88  4531.24  4532.43
                             4551.23  4582.98  4824.03  4987.63  5211.47

 Zero-point correction=                           0.277502 (Hartree/Particle)
 Thermal correction to Energy=                    0.292287
 Thermal correction to Enthalpy=                  0.293231
 Thermal correction to Gibbs Free Energy=         0.234952
 Sum of electronic and zero-point Energies=           -668.665666
 Sum of electronic and thermal Energies=              -668.650882
 Sum of electronic and thermal Enthalpies=            -668.649938
 Sum of electronic and thermal Free Energies=         -668.708216

                     E (Thermal)             CV                S
                      KCal/Mol        Cal/Mol-Kelvin    Cal/Mol-Kelvin
 Total                  183.413             56.178            122.658
 Electronic               0.000              0.000              0.000
 Translational            0.889              2.981             41.889
 Rotational               0.889              2.981             32.276
 Vibrational            181.635             50.216             48.494
 Vibration     1          0.594              1.984              5.777
 Vibration     2          0.595              1.979              4.989
 Vibration     3          0.599              1.967              4.067
 Vibration     4          0.600              1.961              3.843
 Vibration     5          0.605              1.945              3.344
 Vibration     6          0.620              1.896              2.602
 Vibration     7          0.621              1.894              2.577
 Vibration     8          0.626              1.876              2.407
 Vibration     9          0.639              1.836              2.107
 Vibration    10          0.671              1.738              1.630
 Vibration    11          0.681              1.709              1.527
 Vibration    12          0.683              1.703              1.508
 Vibration    13          0.694              1.670              1.407
 Vibration    14          0.734              1.557              1.126
 Vibration    15          0.760              1.486              0.990
 Vibration    16          0.783              1.426              0.890
 Vibration    17          0.828              1.314              0.734
 Vibration    18          0.834              1.299              0.716
 Vibration    19          0.856              1.249              0.657
 Vibration    20          0.864              1.229              0.635
 Vibration    21          0.907              1.135              0.540
 Vibration    22          0.937              1.073              0.484

 Optimization completed.
    -- Stationary point found.
 Normal termination of Gaussian 16 at Thu Dec 10 15:17:05 2020.

 ----------------------------------------------------------------------
 # B3LYP/6-311++G(d,p) empiricaldispersion=gd3bj scf=xqc pop=npa geom=c
 heck
 ----------------------------------------------------------------------

 ---------------------------------------
 CID_116555590_JID_5152_Energie_neutraal
 ---------------------------------------
 Structure from the checkpoint file:  "JID_5152.chk"
 Charge =  0 Multiplicity = 1

 SCF Done:  E(RB3LYP) =  -669.137416072     A.U. after   15 cycles
 Normal termination of Gaussian 16 at Thu Dec 10 15:21:32 2020.

 ----------------------------------------------------------------------
 # B3LYP/6-311++G(d,p) empiricaldispersion=gd3bj scf=xqc pop=npa geom=c
 heck
 ----------------------------------------------------------------------

 -------------------------------------
 CID_116555590_JID_5152_Energie_kation
 -------------------------------------
 Structure from the checkpoint file:  "JID_5152.chk"
 Charge =  1 Multiplicity = 2

 SCF Done:  E(UB3LYP) =  -668.846402809     A.U. after   25 cycles
 Normal termination of Gaussian 16 at Thu Dec 10 15:30:43 2020.
 Gaussian 16:  ES64L-G16RevA.03 25-Dec-2016

 ----------------------------------------------------------------------
 # B3LYP/6-311++G(d,p) empiricaldispersion=gd3bj scf=xqc pop=npa geom=c
 heck
 ----------------------------------------------------------------------

 ------------------------------------
 CID_116555590_JID_5152_Energie_anion
 ------------------------------------
 Structure from the checkpoint file:  "JID_5152.chk"
 Charge = -1 Multiplicity = 2

                         Standard orientation:
 ---------------------------------------------------------------------
 Center     Atomic      Atomic             Coordinates (Angstroms)
 Number     Number       Type             X           Y           Z
 ---------------------------------------------------------------------
      1          6           0        3.069625   -2.127409    0.881749
      2          7           0        2.510471   -1.256845   -0.154212
      3          6           0        3.111635    0.082534   -0.150476
      4          6           0        2.525150    0.979362   -1.241921
      5          6           0        0.996083    1.139196   -1.156919
      6          6           0        0.602875    1.700124    0.206454
      7          8           0        0.961546    2.814610    0.538908
      8          6           0       -0.197636    0.810017    1.155761
      9          6           0       -1.447870    0.230134    0.536698
     10          6           0       -1.503844   -1.084088    0.016834
     11          6           0       -2.738026   -1.508803   -0.510387
     12          6           0       -3.818580   -0.639179   -0.515369
     13          7           0       -3.779962    0.614988   -0.041344
     14          6           0       -2.606626    1.005418    0.467769
     15          7           0       -0.422549   -1.938700    0.065342
     16          1           0        2.808376   -1.723733    1.865630
     17          1           0        4.167373   -2.220824    0.833458
     18          1           0        2.628606   -3.125522    0.801052
     19          1           0        2.679936   -1.679469   -1.067403
     20          1           0        2.918973    0.526184    0.834312
     21          1           0        4.209395    0.037268   -0.260735
     22          1           0        2.987219    1.968377   -1.155562
     23          1           0        2.792854    0.584426   -2.231294
     24          1           0        0.668556    1.855224   -1.918862
     25          1           0        0.494386    0.190578   -1.354650
     26          1           0        0.464893    0.001735    1.494022
     27          1           0       -0.441478    1.419300    2.030625
     28          1           0       -2.839982   -2.512928   -0.915100
     29          1           0       -4.771649   -0.965743   -0.928914
     30          1           0       -2.574658    2.020487    0.865314
     31          1           0       -0.527053   -2.792353   -0.466984
     32          1           0        0.529464   -1.559831    0.034181
 ---------------------------------------------------------------------

 SCF Done:  E(UB3LYP) =  -669.134020541     A.U. after   33 cycles
 SCF Done:  E(UB3LYP) =  -669.134020541     a.u. after    1 cycles

 The electronic state is 2-A.
 Alpha  occ. eigenvalues --  -19.00946 -14.21827 -14.21091 -14.20387 -10.15468
 Alpha  occ. eigenvalues --  -10.13291 -10.10807 -10.10748 -10.09865 -10.09280
 Alpha  occ. eigenvalues --  -10.08891 -10.08731 -10.07891 -10.07518 -10.07291
 Alpha  occ. eigenvalues --   -0.94349  -0.84849  -0.82002  -0.81326  -0.71234
 Alpha  occ. eigenvalues --   -0.68905  -0.67305  -0.62760  -0.60279  -0.55648
 Alpha  occ. eigenvalues --   -0.53553  -0.52232  -0.50200  -0.43997  -0.43635
 Alpha  occ. eigenvalues --   -0.42444  -0.39409  -0.38554  -0.37519  -0.36719
 Alpha  occ. eigenvalues --   -0.36339  -0.35269  -0.34226  -0.33715  -0.33185
 Alpha  occ. eigenvalues --   -0.31714  -0.30948  -0.30421  -0.29317  -0.28420
 Alpha  occ. eigenvalues --   -0.27278  -0.26301  -0.25414  -0.24896  -0.24092
 Alpha  occ. eigenvalues --   -0.23692  -0.17347  -0.16426  -0.15114  -0.14782
 Alpha  occ. eigenvalues --   -0.12661   0.03922
 Alpha virt. eigenvalues --    0.05958   0.06873   0.07247   0.07751   0.08066
 Alpha virt. eigenvalues --    0.08775   0.08926   0.09464   0.10075   0.10505
 Alpha virt. eigenvalues --    0.10998   0.11712   0.12371   0.12782   0.13050

  Beta  occ. eigenvalues --  -19.00861 -14.21793 -14.21049 -14.20388 -10.15362
  Beta  occ. eigenvalues --  -10.13286 -10.10788 -10.10744 -10.09848 -10.09243
  Beta  occ. eigenvalues --  -10.08880 -10.08735 -10.07884 -10.07485 -10.07296
  Beta  occ. eigenvalues --   -0.94175  -0.84827  -0.81955  -0.81269  -0.71170
  Beta  occ. eigenvalues --   -0.68850  -0.67275  -0.62684  -0.60228  -0.55543
  Beta  occ. eigenvalues --   -0.53521  -0.52162  -0.50105  -0.43952  -0.43572
  Beta  occ. eigenvalues --   -0.42321  -0.39315  -0.38496  -0.37443  -0.36620
  Beta  occ. eigenvalues --   -0.36294  -0.35198  -0.34189  -0.33667  -0.33070
  Beta  occ. eigenvalues --   -0.31673  -0.30884  -0.30359  -0.29269  -0.28336
  Beta  occ. eigenvalues --   -0.27131  -0.26235  -0.25317  -0.24837  -0.24000
  Beta  occ. eigenvalues --   -0.23544  -0.17282  -0.16421  -0.15062  -0.14718
  Beta  occ. eigenvalues --   -0.12615
  Beta virt. eigenvalues --    0.06759   0.06814   0.07287   0.07430   0.08165
  Beta virt. eigenvalues --    0.08568   0.09003   0.09335   0.09969   0.10332
  Beta virt. eigenvalues --    0.10865   0.11479   0.11968   0.12548   0.12876

 Mulliken charges and spin densities:
               1          2
     1  C    0.530554  -0.871507
     2  N   -0.424910   0.155955
     3  C   -0.142143  -0.163422
     4  C    1.040596  -1.670509
     5  C   -0.905717   0.941570
     6  C    0.023576  -0.212792
     7  O   -0.259179   0.031774
     8  C   -0.618222  -0.208350
     9  C    1.794950  -0.339557
    10  C   -0.862388  -0.056425
    11  C   -0.721173   0.784266
    12  C    0.038631  -0.479022
    13  N   -0.093827   0.008252
    14  C   -0.298345   0.006766
    15  N   -0.285545   0.007272
    16  H    0.181707  -0.050844
    17  H   -0.488151   0.621997
    18  H   -0.536034   0.690852
    19  H   -0.484026   0.747843
    20  H    0.208049  -0.048283
    21  H   -0.161390   0.318766
    22  H    0.168689  -0.002002
    23  H   -0.391134   0.583074
    24  H    0.030326   0.197017
    25  H   -0.139788   0.254925
    26  H    0.109472   0.095339
    27  H    0.221121  -0.008725
    28  H   -0.314750   0.478773
    29  H    0.151781  -0.004069
    30  H    0.167211   0.012511
    31  H   -0.482956   0.734275
    32  H    1.943015  -1.555719
 Sum of Mulliken charges =  -1.00000   1.00000

 Dipole moment (field-independent basis, Debye):
    X=             -3.7347    Y=              3.4287    Z=              3.6396  Tot=              6.2410
 Quadrupole moment (field-independent basis, Debye-Ang):
   XX=           -160.6493   YY=           -149.8435   ZZ=           -119.8049
   XY=             14.8246   XZ=             11.0940   YZ=             -6.2275

 Summary of Natural Population Analysis:

                                       Natural Population
                Natural  -----------------------------------------------
    Atom  No    Charge         Core      Valence    Rydberg      Total
 -----------------------------------------------------------------------
      C    1   -0.17633      0.99965     2.16765    0.00903     3.17633
      N    2   -0.35820      0.99975     2.84320    0.01525     3.85820
      C    3   -0.08412      0.99962     2.07324    0.01126     3.08412
      C    4   -0.18819      0.99962     2.17907    0.00950     3.18819
      C    5   -0.23983      0.99957     2.23091    0.00934     3.23983
      C    6    0.31680      0.99966     1.66174    0.02180     2.68320
      O    7   -0.28805      0.99987     3.28128    0.00690     4.28805
      C    8   -0.24566      0.99956     2.23735    0.00876     3.24566
      C    9   -0.06173      0.99946     2.05274    0.00954     3.06173
      C   10    0.10583      0.99945     1.88333    0.01139     2.89417
      C   11   -0.14650      0.99952     2.13759    0.00939     3.14650
      C   12    0.02638      0.99959     1.95741    0.01662     2.97362
      N   13   -0.25461      0.99972     2.74425    0.01064     3.75461
      C   14    0.03529      0.99954     1.95179    0.01339     2.96471
      N   15   -0.39988      0.99969     2.89047    0.00972     3.89988
      H   16    0.08798      0.00000     0.41102    0.00100     0.41202
      H   17    0.08472      0.00000     0.41368    0.00160     0.41528
      H   18    0.10009      0.00000     0.39843    0.00148     0.39991
      H   19    0.18341      0.00000     0.29936    0.01723     0.31659
      H   20    0.08891      0.00000     0.40978    0.00131     0.41109
      H   21    0.08709      0.00000     0.41163    0.00128     0.41291
      H   22    0.10318      0.00000     0.39577    0.00106     0.39682
      H   23    0.10243      0.00000     0.39578    0.00178     0.39757
      H   24    0.11276      0.00000     0.38628    0.00097     0.38724
      H   25    0.10514      0.00000     0.39267    0.00219     0.39486
      H   26    0.11662      0.00000     0.38179    0.00159     0.38338
      H   27    0.11069      0.00000     0.38804    0.00127     0.38931
      H   28    0.10301      0.00000     0.39599    0.00101     0.39699
      H   29    0.08646      0.00000     0.41227    0.00127     0.41354
      H   30    0.08813      0.00000     0.41054    0.00133     0.41187
      H   31    0.18919      0.00000     0.30722    0.00360     0.31081
      H   32    0.20898      0.00000     0.28783    0.00319     0.29102
 =======================================================================
   * Total *   -0.00000     14.99426    40.79007    0.21567    56.00000

 Normal termination of Gaussian 16 at Thu Dec 10 15:45:32 2020.
