 Gaussian 16, Revision A.03,

 -----------------------------------------------------------
 # opt freq B3LYP/6-31G(d) empiricaldispersion=gd3bj scf=xqc
 -----------------------------------------------------------

 -------------------------------
 CID_115034434_JID_7736_neutraal
 -------------------------------
 Symbolic Z-matrix:
 Charge =  0 Multiplicity = 1

 SCF Done:  E(RB3LYP) =  -725.526716534     A.U. after   15 cycles
 SCF Done:  E(RB3LYP) =  -725.531058821     A.U. after   13 cycles
 SCF Done:  E(RB3LYP) =  -725.531604009     A.U. after   12 cycles
 SCF Done:  E(RB3LYP) =  -725.531395128     A.U. after   12 cycles
 SCF Done:  E(RB3LYP) =  -725.531699460     A.U. after   11 cycles
 SCF Done:  E(RB3LYP) =  -725.531732060     A.U. after   10 cycles
 SCF Done:  E(RB3LYP) =  -725.531766156     A.U. after   10 cycles
 SCF Done:  E(RB3LYP) =  -725.531790514     A.U. after   10 cycles
 SCF Done:  E(RB3LYP) =  -725.531834429     A.U. after   10 cycles
 SCF Done:  E(RB3LYP) =  -725.531890108     A.U. after   11 cycles
 SCF Done:  E(RB3LYP) =  -725.531958251     A.U. after   11 cycles
 SCF Done:  E(RB3LYP) =  -725.531959082     A.U. after   11 cycles
 SCF Done:  E(RB3LYP) =  -725.531961652     A.U. after    9 cycles
 SCF Done:  E(RB3LYP) =  -725.531962085     A.U. after    9 cycles
 SCF Done:  E(RB3LYP) =  -725.531962123     A.U. after    9 cycles
 SCF Done:  E(RB3LYP) =  -725.531962175     A.U. after    7 cycles
 Optimization completed.
    -- Stationary point found.
 Normal termination of Gaussian 16 at Fri Dec 11 13:18:20 2020.

 --------------------------------------------------------------------
 #N Geom=AllCheck Guess=TCheck SCRF=Check GenChk RB3LYP/6-31G(d) Freq
 --------------------------------------------------------------------

 Structure from the checkpoint file:  "JID_7736.chk"
 -------------------------------
 CID_115034434_JID_7736_neutraal
 -------------------------------
 Charge =  0 Multiplicity = 1

 SCF Done:  E(RB3LYP) =  -725.531962175     A.U. after    1 cycles

  Exact polarizability: 300.662  -7.564 167.163   0.000   0.000  64.463
 Approx polarizability: 467.882 -24.063 301.289   0.001   0.000 101.746

                      1                      2                      3
                      A                      A                      A
 Frequencies --     52.9579                58.4896                75.9433
 Red. masses --      5.4816                 1.0334                 1.0652
 Frc consts  --      0.0091                 0.0021                 0.0036
 IR Inten    --      0.1434                 0.1056                 0.5138

                      4                      5                      6
                      A                      A                      A
 Frequencies --     90.1493               140.0564               144.5018
 Red. masses --      3.6141                 5.5735                 4.4103
 Frc consts  --      0.0173                 0.0644                 0.0543
 IR Inten    --      0.4610                 0.7140                 3.3399

                      7                      8                      9
                      A                      A                      A
 Frequencies --    180.0531               195.0565               201.6047
 Red. masses --      4.0104                 2.4862                 4.0647
 Frc consts  --      0.0766                 0.0557                 0.0973
 IR Inten    --      8.0499                 2.2016                 6.5406

                     10                     11                     12
                      A                      A                      A
 Frequencies --    260.1376               293.8502               310.0075
 Red. masses --      3.8167                 3.0478                 6.2219
 Frc consts  --      0.1522                 0.1551                 0.3523
 IR Inten    --      2.1730                 0.1125                 1.5590

                     13                     14                     15
                      A                      A                      A
 Frequencies --    311.5207               376.6507               403.4947
 Red. masses --      4.4379                 5.0191                 3.9383
 Frc consts  --      0.2537                 0.4195                 0.3778
 IR Inten    --      0.1544                 0.7507                 2.3838

                     16                     17                     18
                      A                      A                      A
 Frequencies --    429.4709               462.5004               518.5449
 Red. masses --      3.2680                 4.9188                 6.0599
 Frc consts  --      0.3551                 0.6199                 0.9600
 IR Inten    --      2.8193                 2.6911                 5.5826

                     19                     20                     21
                      A                      A                      A
 Frequencies --    526.3424               571.2827               591.5922
 Red. masses --      3.2768                 5.2198                 5.1539
 Frc consts  --      0.5349                 1.0037                 1.0627
 IR Inten    --      0.6706                 4.6105                 2.8448

                     22                     23                     24
                      A                      A                      A
 Frequencies --    606.2921               649.0507               677.9861
 Red. masses --      3.8433                 6.8543                 4.5464
 Frc consts  --      0.8324                 1.7013                 1.2313
 IR Inten    --      0.0001                 3.2956                 0.3051

                     25                     26                     27
                      A                      A                      A
 Frequencies --    715.8072               739.2465               777.6866
 Red. masses --      4.0094                 6.0413                 2.6910
 Frc consts  --      1.2104                 1.9452                 0.9589
 IR Inten    --     16.1912                 3.8543                 0.1935

                     28                     29                     30
                      A                      A                      A
 Frequencies --    790.4634               796.3507               841.1853
 Red. masses --      4.2641                 1.9971                 6.1413
 Frc consts  --      1.5698                 0.7462                 2.5603
 IR Inten    --     68.6180                16.0374                 8.5323

                     31                     32                     33
                      A                      A                      A
 Frequencies --    847.3329               885.2181               898.6410
 Red. masses --      1.4212                 5.5879                 1.3985
 Frc consts  --      0.6012                 2.5799                 0.6654
 IR Inten    --     26.5361                 1.9265                 5.4095

                     34                     35                     36
                      A                      A                      A
 Frequencies --    932.2122               959.5963               986.1615
 Red. masses --      1.2784                 3.0344                 1.2989
 Frc consts  --      0.6545                 1.6463                 0.7443
 IR Inten    --      1.4709                 0.3386                 0.4020

                     37                     38                     39
                      A                      A                      A
 Frequencies --   1002.7700              1026.4491              1036.3445
 Red. masses --      1.7372                 1.7859                 1.5088
 Frc consts  --      1.0292                 1.1086                 0.9548
 IR Inten    --      0.5151                24.1904                12.3393

                     40                     41                     42
                      A                      A                      A
 Frequencies --   1072.8273              1076.2760              1076.3129
 Red. masses --      1.5289                 4.8560                 1.5240
 Frc consts  --      1.0368                 3.3142                 1.0402
 IR Inten    --      2.9225                 3.3458                 4.8717

                     43                     44                     45
                      A                      A                      A
 Frequencies --   1130.0339              1180.1555              1206.1700
 Red. masses --      2.5714                 1.3866                 1.4130
 Frc consts  --      1.9347                 1.1379                 1.2112
 IR Inten    --      4.8900                 4.2316                 1.1244

                     46                     47                     48
                      A                      A                      A
 Frequencies --   1232.9807              1267.2599              1277.1104
 Red. masses --      2.2948                 2.7022                 3.1114
 Frc consts  --      2.0555                 2.5568                 2.9899
 IR Inten    --     18.3505                69.9274                 6.1956

                     49                     50                     51
                      A                      A                      A
 Frequencies --   1324.7011              1332.9596              1382.2719
 Red. masses --      1.9392                 4.1984                 3.6016
 Frc consts  --      2.0049                 4.3950                 4.0545
 IR Inten    --     19.1677                32.1308                23.1902

                     52                     53                     54
                      A                      A                      A
 Frequencies --   1397.3258              1404.6971              1429.7468
 Red. masses --      3.6413                 2.9916                 1.7507
 Frc consts  --      4.1890                 3.4779                 2.1086
 IR Inten    --     73.5604               208.8681                13.8720

                     55                     56                     57
                      A                      A                      A
 Frequencies --   1443.3768              1444.5180              1477.4745
 Red. masses --      1.3362                 1.6459                 1.8591
 Frc consts  --      1.6401                 2.0235                 2.3910
 IR Inten    --     12.9995                 9.8976                48.1564

                     58                     59                     60
                      A                      A                      A
 Frequencies --   1502.6629              1504.5357              1508.9241
 Red. masses --      1.4218                 1.0438                 1.6763
 Frc consts  --      1.8915                 1.3921                 2.2488
 IR Inten    --     56.7717                 6.3652                 6.1522

                     61                     62                     63
                      A                      A                      A
 Frequencies --   1513.1681              1518.0891              1532.4438
 Red. masses --      1.0441                 2.4132                 1.5692
 Frc consts  --      1.4085                 3.2767                 2.1712
 IR Inten    --      6.0550                13.0302                 3.8737

                     64                     65                     66
                      A                      A                      A
 Frequencies --   1558.2849              1566.0113              1602.5323
 Red. masses --      6.6442                 6.6625                 5.8836
 Frc consts  --      9.5058                 9.6268                 8.9024
 IR Inten    --     62.5352               134.1704                 5.0904

                     67                     68                     69
                      A                      A                      A
 Frequencies --   1675.7363              1694.4758              1756.0249
 Red. masses --      5.7302                 6.5035                 8.4539
 Frc consts  --      9.4805                11.0018                15.3592
 IR Inten    --      9.3463                 8.2621               425.0016

                     70                     71                     72
                      A                      A                      A
 Frequencies --   2896.6399              3046.0030              3065.1039
 Red. masses --      1.0810                 1.0375                 1.0361
 Frc consts  --      5.3440                 5.6714                 5.7351
 IR Inten    --    133.1948                36.5867                11.5664

                     73                     74                     75
                      A                      A                      A
 Frequencies --   3098.3848              3119.8016              3131.5542
 Red. masses --      1.1008                 1.0997                 1.1011
 Frc consts  --      6.2263                 6.3064                 6.3619
 IR Inten    --     17.0237                 7.1324                15.2128

                     76                     77                     78
                      A                      A                      A
 Frequencies --   3159.0948              3180.8328              3187.7386
 Red. masses --      1.1038                 1.0902                 1.0893
 Frc consts  --      6.4902                 6.4986                 6.5220
 IR Inten    --     10.5961                18.4470                15.3679

                     79                     80                     81
                      A                      A                      A
 Frequencies --   3217.9525              3226.9757              3259.2869
 Red. masses --      1.0899                 1.0933                 1.0953
 Frc consts  --      6.6495                 6.7078                 6.8552
 IR Inten    --      3.9835                 2.9201                 4.1004

 - Thermochemistry -
 -------------------
 Temperature   298.150 Kelvin.  Pressure   1.00000 Atm.
 Atom     1 has atomic number  6 and mass  12.00000

 Molecular mass:   224.09496 amu.
 Principal axes and moments of inertia in atomic units:
                           1         2         3
     Eigenvalues --  1312.380006834.095378124.24852
           X            0.99997   0.00819  -0.00000
           Y           -0.00819   0.99997   0.00000
           Z            0.00000  -0.00000   1.00000
 This molecule is an asymmetric top.
 Rotational symmetry number  1.
 Warning -- assumption of classical behavior for rotation
           may cause significant error
 Rotational temperatures (Kelvin)      0.06600     0.01267     0.01066
 Rotational constants (GHZ):           1.37517     0.26408     0.22214
 Zero-point vibrational energy     604362.1 (Joules/Mol)
                                  144.44602 (Kcal/Mol)
 Warning -- explicit consideration of  22 degrees of freedom as
           vibrations may cause significant error
 Vibrational temperatures:     76.19    84.15   109.27   129.70   201.51
          (Kelvin)            207.91   259.06   280.64   290.06   374.28
                              422.78   446.03   448.21   541.92   580.54
                              617.91   665.43   746.07   757.29   821.95
                              851.17   872.32   933.84   975.47  1029.89
                             1063.61  1118.92  1137.30  1145.77  1210.28
                             1219.12  1273.63  1292.94  1341.25  1380.65
                             1418.87  1442.76  1476.83  1491.07  1543.56
                             1548.52  1548.57  1625.87  1697.98  1735.41
                             1773.98  1823.30  1837.48  1905.95  1917.83
                             1988.78  2010.44  2021.05  2057.09  2076.70
                             2078.34  2125.76  2162.00  2164.69  2171.01
                             2177.11  2184.19  2204.84  2242.02  2253.14
                             2305.69  2411.01  2437.97  2526.53  4167.62
                             4382.52  4410.00  4457.88  4488.70  4505.61
                             4545.23  4576.51  4586.44  4629.92  4642.90
                             4689.39

 Zero-point correction=                           0.230189 (Hartree/Particle)
 Thermal correction to Energy=                    0.244511
 Thermal correction to Enthalpy=                  0.245456
 Thermal correction to Gibbs Free Energy=         0.188571
 Sum of electronic and zero-point Energies=           -725.301773
 Sum of electronic and thermal Energies=              -725.287451
 Sum of electronic and thermal Enthalpies=            -725.286507
 Sum of electronic and thermal Free Energies=         -725.343391

                     E (Thermal)             CV                S
                      KCal/Mol        Cal/Mol-Kelvin    Cal/Mol-Kelvin
 Total                  153.433             54.866            119.724
 Electronic               0.000              0.000              0.000
 Translational            0.889              2.981             42.123
 Rotational               0.889              2.981             32.655
 Vibrational            151.656             48.905             44.946
 Vibration     1          0.596              1.976              4.704
 Vibration     2          0.596              1.974              4.508
 Vibration     3          0.599              1.965              3.993
 Vibration     4          0.602              1.956              3.657
 Vibration     5          0.615              1.913              2.803
 Vibration     6          0.616              1.909              2.743
 Vibration     7          0.629              1.867              2.328
 Vibration     8          0.636              1.847              2.179
 Vibration     9          0.638              1.838              2.118
 Vibration    10          0.668              1.746              1.661
 Vibration    11          0.689              1.685              1.452
 Vibration    12          0.699              1.655              1.362
 Vibration    13          0.700              1.652              1.354
 Vibration    14          0.747              1.520              1.053
 Vibration    15          0.769              1.463              0.950
 Vibration    16          0.791              1.406              0.860
 Vibration    17          0.820              1.333              0.759
 Vibration    18          0.874              1.209              0.613
 Vibration    19          0.881              1.192              0.595
 Vibration    20          0.927              1.093              0.502
 Vibration    21          0.949              1.050              0.464
 Vibration    22          0.965              1.018              0.439

 Optimization completed.
    -- Stationary point found.
 Normal termination of Gaussian 16 at Fri Dec 11 13:28:06 2020.

 ----------------------------------------------------------------------
 # B3LYP/6-311++G(d,p) empiricaldispersion=gd3bj scf=xqc pop=npa geom=c
 heck
 ----------------------------------------------------------------------

 ---------------------------------------
 CID_115034434_JID_7736_Energie_neutraal
 ---------------------------------------
 Structure from the checkpoint file:  "JID_7736.chk"
 Charge =  0 Multiplicity = 1

 SCF Done:  E(RB3LYP) =  -725.715660357     A.U. after   15 cycles
 Normal termination of Gaussian 16 at Fri Dec 11 13:32:45 2020.

 ----------------------------------------------------------------------
 # B3LYP/6-311++G(d,p) empiricaldispersion=gd3bj scf=xqc pop=npa geom=c
 heck
 ----------------------------------------------------------------------

 -------------------------------------
 CID_115034434_JID_7736_Energie_kation
 -------------------------------------
 Structure from the checkpoint file:  "JID_7736.chk"
 Charge =  1 Multiplicity = 2

 SCF Done:  E(UB3LYP) =  -725.427888022     A.U. after   26 cycles
 Normal termination of Gaussian 16 at Fri Dec 11 13:44:11 2020.
 Gaussian 16:  ES64L-G16RevA.03 25-Dec-2016

 ----------------------------------------------------------------------
 # B3LYP/6-311++G(d,p) empiricaldispersion=gd3bj scf=xqc pop=npa geom=c
 heck
 ----------------------------------------------------------------------

 ------------------------------------
 CID_115034434_JID_7736_Energie_anion
 ------------------------------------
 Structure from the checkpoint file:  "JID_7736.chk"
 Charge = -1 Multiplicity = 2

                         Standard orientation:
 ---------------------------------------------------------------------
 Center     Atomic      Atomic             Coordinates (Angstroms)
 Number     Number       Type             X           Y           Z
 ---------------------------------------------------------------------
      1          6           0       -5.330441    0.034182   -0.000000
      2          6           0       -3.826348    0.138455    0.000005
      3          6           0       -3.024751   -0.992084    0.000002
      4          6           0       -1.617076   -0.898308   -0.000001
      5          6           0       -1.018087    0.390217   -0.000000
      6          6           0       -1.832283    1.540364    0.000002
      7          6           0       -3.205886    1.411261    0.000005
      8          6           0        0.408466    0.477376   -0.000002
      9          7           0        1.187610    1.565062   -0.000004
     10          6           0        2.467010    1.114075    0.000000
     11          6           0        2.506729   -0.287887   -0.000001
     12          7           0        1.162220   -0.685407   -0.000006
     13          6           0        0.583392   -1.940414   -0.000003
     14          6           0       -0.768002   -2.057393   -0.000001
     15          6           0        3.635750   -1.180593   -0.000011
     16          8           0        4.803047   -0.807325    0.000029
     17          6           0        3.637958    2.037825   -0.000008
     18          1           0       -5.659991   -1.008893    0.000068
     19          1           0       -5.760909    0.524357   -0.881774
     20          1           0       -5.760923    0.524480    0.881698
     21          1           0       -3.482755   -1.978371    0.000003
     22          1           0       -1.354027    2.513887    0.000003
     23          1           0       -3.829476    2.301675    0.000008
     24          1           0        1.258599   -2.785387    0.000001
     25          1           0       -1.212808   -3.046566    0.000001
     26          1           0        3.397911   -2.267545   -0.000066
     27          1           0        4.272466    1.864301   -0.875512
     28          1           0        3.287644    3.072326   -0.000002
     29          1           0        4.272479    1.864298    0.875486
 ---------------------------------------------------------------------

 SCF Done:  E(UB3LYP) =  -725.733605288     A.U. after   28 cycles

 The electronic state is 2-A.
 Alpha  occ. eigenvalues --  -18.93385 -14.24089 -14.15978 -10.10074 -10.08642
 Alpha  occ. eigenvalues --  -10.08087 -10.07011 -10.06457 -10.06330 -10.05825
 Alpha  occ. eigenvalues --  -10.05822 -10.05645 -10.05417 -10.05250 -10.04970
 Alpha  occ. eigenvalues --  -10.04419 -10.03747  -0.89480  -0.86901  -0.77479
 Alpha  occ. eigenvalues --   -0.74600  -0.68753  -0.65903  -0.63542  -0.61917
 Alpha  occ. eigenvalues --   -0.59032  -0.56877  -0.52837  -0.49924  -0.48036
 Alpha  occ. eigenvalues --   -0.46758  -0.42817  -0.40219  -0.39335  -0.37155
 Alpha  occ. eigenvalues --   -0.35663  -0.33581  -0.33328  -0.32182  -0.31986
 Alpha  occ. eigenvalues --   -0.31065  -0.30047  -0.28991  -0.28598  -0.27833
 Alpha  occ. eigenvalues --   -0.27145  -0.26271  -0.25189  -0.25119  -0.23178
 Alpha  occ. eigenvalues --   -0.23147  -0.22221  -0.21159  -0.16276  -0.14673
 Alpha  occ. eigenvalues --   -0.14603  -0.10294  -0.09828  -0.08488   0.03638
 Alpha virt. eigenvalues --    0.07001   0.07824   0.08472   0.09364   0.09375
 Alpha virt. eigenvalues --    0.10120   0.10433   0.11104   0.12006   0.12767
 Alpha virt. eigenvalues --    0.13216   0.13322   0.13845   0.14171   0.14960

  Beta  occ. eigenvalues --  -18.92855 -14.23790 -14.16092 -10.10119 -10.08369
  Beta  occ. eigenvalues --  -10.07836 -10.07030 -10.06413 -10.06197 -10.05856
  Beta  occ. eigenvalues --  -10.05741 -10.05499 -10.05397 -10.05253 -10.04927
  Beta  occ. eigenvalues --  -10.04205 -10.03758  -0.89095  -0.85972  -0.77344
  Beta  occ. eigenvalues --   -0.74353  -0.68496  -0.65635  -0.63322  -0.61764
  Beta  occ. eigenvalues --   -0.58960  -0.56586  -0.52712  -0.49283  -0.47845
  Beta  occ. eigenvalues --   -0.46527  -0.42603  -0.39994  -0.39117  -0.37030
  Beta  occ. eigenvalues --   -0.35568  -0.33164  -0.32721  -0.31915  -0.31901
  Beta  occ. eigenvalues --   -0.30911  -0.29862  -0.28926  -0.28328  -0.27768
  Beta  occ. eigenvalues --   -0.26759  -0.26127  -0.25033  -0.24396  -0.23022
  Beta  occ. eigenvalues --   -0.22143  -0.20972  -0.20750  -0.15455  -0.14659
  Beta  occ. eigenvalues --   -0.13764  -0.09678  -0.09381  -0.07137
  Beta virt. eigenvalues --    0.06968   0.08010   0.08433   0.08868   0.09321
  Beta virt. eigenvalues --    0.10101   0.10404   0.10482   0.11855   0.11977
  Beta virt. eigenvalues --    0.12738   0.13289   0.13609   0.14031   0.14140

 Mulliken charges and spin densities:
               1          2
     1  C   -0.449956  -0.012073
     2  C    0.426624   0.138252
     3  C   -0.592146   0.034300
     4  C   -0.239902   0.034316
     5  C    0.463467  -0.042818
     6  C   -0.648882   0.167212
     7  C   -0.516763  -0.070057
     8  C   -0.911330   0.164021
     9  N   -0.038560  -0.065243
    10  C    0.279804   0.096289
    11  C    0.430396  -0.001779
    12  N    0.209857   0.091948
    13  C    0.176042  -0.010935
    14  C   -0.275168   0.088135
    15  C   -0.073042   0.226023
    16  O   -0.396078   0.169657
    17  C   -0.310752  -0.006629
    18  H    0.134920   0.000152
    19  H    0.125986   0.010492
    20  H    0.125984   0.010487
    21  H    0.038984  -0.004730
    22  H    0.146264  -0.011156
    23  H    0.124673   0.003475
    24  H    0.128671   0.000432
    25  H    0.150073  -0.003995
    26  H    0.037202  -0.014894
    27  H    0.168220   0.004506
    28  H    0.117189   0.000107
    29  H    0.168222   0.004506
 Sum of Mulliken charges =  -1.00000   1.00000

 Dipole moment (field-independent basis, Debye):
    X=             -7.2399    Y=             -1.1760    Z=             -0.0001  Tot=              7.3348
 Quadrupole moment (field-independent basis, Debye-Ang):
   XX=           -170.8308   YY=           -108.7533   ZZ=           -108.7992
   XY=              5.8791   XZ=             -0.0004   YZ=              0.0001

 Summary of Natural Population Analysis:

                                       Natural Population
                Natural  -----------------------------------------------
    Atom  No    Charge         Core      Valence    Rydberg      Total
 -----------------------------------------------------------------------
      C    1   -0.30372      0.99962     2.29386    0.01024     3.30372
      C    2    0.09934      0.99939     1.89531    0.00597     2.90066
      C    3   -0.12014      0.99947     2.10134    0.01932     3.12014
      C    4   -0.02304      0.99952     2.01339    0.01013     3.02304
      C    5   -0.04669      0.99939     2.03704    0.01025     3.04669
      C    6   -0.03773      0.99946     2.02856    0.00971     3.03773
      C    7   -0.14446      0.99951     2.12697    0.01799     3.14446
      C    8    0.24150      0.99957     1.74479    0.01414     2.75850
      N    9   -0.28913      0.99968     2.77944    0.01001     3.78913
      C   10    0.12100      0.99954     1.86677    0.01269     2.87900
      C   11   -0.00912      0.99947     1.99701    0.01264     3.00912
      N   12   -0.14700      0.99959     2.63864    0.00877     3.64700
      C   13    0.00842      0.99956     1.98189    0.01012     2.99158
      C   14   -0.10795      0.99955     2.09969    0.00872     3.10795
      C   15    0.21054      0.99967     1.77040    0.01939     2.78946
      O   16   -0.25241      0.99989     3.24461    0.00791     4.25241
      C   17   -0.30037      0.99964     2.29575    0.00498     3.30037
      H   18    0.09479      0.00000     0.40329    0.00193     0.40521
      H   19    0.09736      0.00000     0.40053    0.00210     0.40264
      H   20    0.09736      0.00000     0.40053    0.00210     0.40264
      H   21    0.08743      0.00000     0.40951    0.00305     0.41257
      H   22    0.10301      0.00000     0.39475    0.00224     0.39699
      H   23    0.08934      0.00000     0.40822    0.00244     0.41066
      H   24    0.09829      0.00000     0.39993    0.00178     0.40171
      H   25    0.09653      0.00000     0.40208    0.00139     0.40347
      H   26    0.03192      0.00000     0.46544    0.00263     0.46808
      H   27    0.10806      0.00000     0.39090    0.00104     0.39194
      H   28    0.09788      0.00000     0.40097    0.00115     0.40212
      H   29    0.10806      0.00000     0.39090    0.00104     0.39194
 =======================================================================
   * Total *    0.00911     16.99252    41.78249    0.21588    58.99089

 Normal termination of Gaussian 16 at Fri Dec 11 13:56:14 2020.
