 Gaussian 16, Revision A.03,

 -----------------------------------------------------------
 # opt freq B3LYP/6-31G(d) empiricaldispersion=gd3bj scf=xqc
 -----------------------------------------------------------

 -------------------------------
 CID_107874345_JID_7527_neutraal
 -------------------------------
 Symbolic Z-matrix:
 Charge =  0 Multiplicity = 1

 SCF Done:  E(RB3LYP) =  -1110.29209452     A.U. after   15 cycles
 SCF Done:  E(RB3LYP) =  -1110.29649786     A.U. after   13 cycles
 SCF Done:  E(RB3LYP) =  -1110.29534138     A.U. after   13 cycles
 SCF Done:  E(RB3LYP) =  -1110.29453201     A.U. after   13 cycles
 SCF Done:  E(RB3LYP) =  -1110.29437890     A.U. after   13 cycles
 SCF Done:  E(RB3LYP) =  -1110.29659657     A.U. after   10 cycles
 SCF Done:  E(RB3LYP) =  -1110.29682955     A.U. after   13 cycles
 SCF Done:  E(RB3LYP) =  -1110.29754575     A.U. after   13 cycles
 SCF Done:  E(RB3LYP) =  -1110.29788062     A.U. after   12 cycles
 SCF Done:  E(RB3LYP) =  -1110.29860810     A.U. after   15 cycles
 SCF Done:  E(RB3LYP) =  -1110.30883483     A.U. after   12 cycles
 SCF Done:  E(RB3LYP) =  -1110.30883717     A.U. after   11 cycles
 SCF Done:  E(RB3LYP) =  -1110.30883736     A.U. after    8 cycles
 SCF Done:  E(RB3LYP) =  -1110.30883765     A.U. after    8 cycles
 SCF Done:  E(RB3LYP) =  -1110.30883767     A.U. after    7 cycles
 Optimization completed.
    -- Stationary point found.
 Normal termination of Gaussian 16 at Fri Dec 11 12:52:42 2020.

 --------------------------------------------------------------------
 #N Geom=AllCheck Guess=TCheck SCRF=Check GenChk RB3LYP/6-31G(d) Freq
 --------------------------------------------------------------------

 Structure from the checkpoint file:  "JID_7527.chk"
 -------------------------------
 CID_107874345_JID_7527_neutraal
 -------------------------------
 Charge =  0 Multiplicity = 1

 SCF Done:  E(RB3LYP) =  -1110.30883767     A.U. after    1 cycles

  Exact polarizability: 244.022  -0.509 156.914   0.009   0.009 107.978
 Approx polarizability: 311.388  -6.421 277.056   0.024   0.020 159.231

                      1                      2                      3
                      A                      A                      A
 Frequencies --     10.9518                40.4376                47.3956
 Red. masses --      4.5032                 4.3193                 4.8785
 Frc consts  --      0.0003                 0.0042                 0.0065
 IR Inten    --      2.2639                 0.0189                 0.5888

                      4                      5                      6
                      A                      A                      A
 Frequencies --     65.5229                78.8999               102.7427
 Red. masses --      4.5314                 5.3508                 4.6207
 Frc consts  --      0.0115                 0.0196                 0.0287
 IR Inten    --      0.5192                 1.4764                 0.1750

                      7                      8                      9
                      A                      A                      A
 Frequencies --    164.5048               193.0637               203.9758
 Red. masses --      5.7068                 4.1430                 2.5009
 Frc consts  --      0.0910                 0.0910                 0.0613
 IR Inten    --      4.0803                 0.1472                 0.0605

                     10                     11                     12
                      A                      A                      A
 Frequencies --    226.3357               246.3609               263.0506
 Red. masses --      1.3884                 1.2357                 3.5832
 Frc consts  --      0.0419                 0.0442                 0.1461
 IR Inten    --      0.0509                 0.0800                 0.4349

                     13                     14                     15
                      A                      A                      A
 Frequencies --    277.9727               279.8122               286.4940
 Red. masses --      1.1080                 1.0430                 1.6700
 Frc consts  --      0.0504                 0.0481                 0.0808
 IR Inten    --      0.1419                 0.0727                 0.1901

                     16                     17                     18
                      A                      A                      A
 Frequencies --    316.4210               324.1759               333.5418
 Red. masses --      3.2956                 3.5246                 1.0581
 Frc consts  --      0.1944                 0.2182                 0.0694
 IR Inten    --      1.4834                 0.3128                 0.1052

                     19                     20                     21
                      A                      A                      A
 Frequencies --    333.8497               342.7709               356.0755
 Red. masses --      2.6545                 2.9521                 2.5390
 Frc consts  --      0.1743                 0.2044                 0.1897
 IR Inten    --      5.5272                 4.7638                 0.1145

                     22                     23                     24
                      A                      A                      A
 Frequencies --    363.1633               411.2173               433.2152
 Red. masses --      3.6362                 3.1485                 3.3866
 Frc consts  --      0.2826                 0.3137                 0.3745
 IR Inten    --      0.1827                 1.6907                 1.4409

                     25                     26                     27
                      A                      A                      A
 Frequencies --    439.2137               470.8944               476.6711
 Red. masses --      5.2339                 4.4392                 3.8543
 Frc consts  --      0.5949                 0.5800                 0.5160
 IR Inten    --      0.9992                 2.1851                 2.3891

                     28                     29                     30
                      A                      A                      A
 Frequencies --    567.6197               584.4716               600.9946
 Red. masses --      3.1487                 4.0763                 4.2625
 Frc consts  --      0.5977                 0.8204                 0.9071
 IR Inten    --      3.4688                10.9935                 3.6401

                     31                     32                     33
                      A                      A                      A
 Frequencies --    609.3521               651.5371               664.2443
 Red. masses --      1.1874                 3.9458                 6.8739
 Frc consts  --      0.2598                 0.9869                 1.7869
 IR Inten    --     88.1949                45.2106                14.5459

                     34                     35                     36
                      A                      A                      A
 Frequencies --    762.3308               776.8877               782.8715
 Red. masses --      4.9778                 5.5717                 5.0516
 Frc consts  --      1.7044                 1.9813                 1.8241
 IR Inten    --      7.3775                15.6687                28.7433

                     37                     38                     39
                      A                      A                      A
 Frequencies --    815.2110               845.5697               860.2097
 Red. masses --      2.8374                 1.4430                 2.8104
 Frc consts  --      1.1110                 0.6079                 1.2253
 IR Inten    --     12.0088                15.8120                 1.2615

                     40                     41                     42
                      A                      A                      A
 Frequencies --    940.4156               944.4796               952.9883
 Red. masses --      1.7849                 2.5110                 1.7051
 Frc consts  --      0.9301                 1.3197                 0.9124
 IR Inten    --      0.2604                25.1633                 0.7277

                     43                     44                     45
                      A                      A                      A
 Frequencies --    955.0086               969.5692               976.4174
 Red. masses --      1.3907                 1.5490                 1.2026
 Frc consts  --      0.7473                 0.8580                 0.6755
 IR Inten    --      1.6666                 1.3621                 0.2258

                     46                     47                     48
                      A                      A                      A
 Frequencies --    985.4054              1040.6080              1050.7793
 Red. masses --      1.3177                 3.6196                 1.2904
 Frc consts  --      0.7539                 2.3093                 0.8395
 IR Inten    --      0.1022                 9.5627                 0.4280

                     49                     50                     51
                      A                      A                      A
 Frequencies --   1057.0941              1065.4971              1133.7530
 Red. masses --      1.4050                 1.3924                 3.6937
 Frc consts  --      0.9250                 0.9314                 2.7974
 IR Inten    --      2.4213                 0.0031               253.1396

                     52                     53                     54
                      A                      A                      A
 Frequencies --   1140.7047              1168.2196              1175.7025
 Red. masses --      2.9295                 1.8941                 3.3614
 Frc consts  --      2.2459                 1.5230                 2.7376
 IR Inten    --    247.9069                49.9776                 0.3450

                     55                     56                     57
                      A                      A                      A
 Frequencies --   1196.5021              1209.6567              1241.7599
 Red. masses --      1.6383                 2.1550                 2.3064
 Frc consts  --      1.3818                 1.8579                 2.0954
 IR Inten    --     10.8669                 6.6542                 5.6322

                     58                     59                     60
                      A                      A                      A
 Frequencies --   1244.0727              1246.5434              1307.2880
 Red. masses --      2.7071                 1.9432                 4.3052
 Frc consts  --      2.4685                 1.7790                 4.3350
 IR Inten    --      3.3151                13.4641                14.9849

                     61                     62                     63
                      A                      A                      A
 Frequencies --   1313.5231              1340.9367              1371.1712
 Red. masses --      4.1430                 1.5931                 2.2578
 Frc consts  --      4.2115                 1.6878                 2.5010
 IR Inten    --     11.7278                 2.6132                41.6625

                     64                     65                     66
                      A                      A                      A
 Frequencies --   1410.7500              1415.5781              1428.1954
 Red. masses --      2.0125                 1.1988                 1.2121
 Frc consts  --      2.3598                 1.4153                 1.4567
 IR Inten    --     27.7655                 9.4086                 4.2449

                     67                     68                     69
                      A                      A                      A
 Frequencies --   1433.8453              1444.0976              1460.6565
 Red. masses --      1.3919                 1.2645                 1.2190
 Frc consts  --      1.6861                 1.5537                 1.5324
 IR Inten    --     15.3492                 5.7606                 2.9484

                     70                     71                     72
                      A                      A                      A
 Frequencies --   1508.8775              1512.9798              1515.1058
 Red. masses --      1.0452                 1.0493                 1.7160
 Frc consts  --      1.4021                 1.4151                 2.3209
 IR Inten    --      0.0164                 0.0020                82.7053

                     73                     74                     75
                      A                      A                      A
 Frequencies --   1516.6389              1521.5988              1532.9520
 Red. masses --      1.0456                 1.1212                 1.0815
 Frc consts  --      1.4170                 1.5294                 1.4974
 IR Inten    --      0.0865                16.7403                 0.6018

                     76                     77                     78
                      A                      A                      A
 Frequencies --   1533.2046              1536.3914              1539.1994
 Red. masses --      1.0469                 1.1169                 1.0502
 Frc consts  --      1.4499                 1.5533                 1.4659
 IR Inten    --      0.9819                18.0930                 5.5366

                     79                     80                     81
                      A                      A                      A
 Frequencies --   1549.0353              1551.3318              1598.8488
 Red. masses --      1.0491                 1.0762                 5.6649
 Frc consts  --      1.4831                 1.5260                 8.5322
 IR Inten    --      7.1655                20.7344                12.3212

                     82                     83                     84
                      A                      A                      A
 Frequencies --   1651.8939              1837.9021              3045.7444
 Red. masses --      5.3284                10.3086                 1.0348
 Frc consts  --      8.5667                20.5162                 5.6559
 IR Inten    --     74.3873               216.5499                23.0128

                     85                     86                     87
                      A                      A                      A
 Frequencies --   3046.2884              3053.5542              3067.6200
 Red. masses --      1.0351                 1.0363                 1.0359
 Frc consts  --      5.6592                 5.6932                 5.7433
 IR Inten    --     25.8901                25.6953                23.6460

                     88                     89                     90
                      A                      A                      A
 Frequencies --   3071.2132              3112.8872              3114.0530
 Red. masses --      1.0364                 1.1024                 1.1024
 Frc consts  --      5.7597                 6.2936                 6.2985
 IR Inten    --     24.2861                 1.3580                 6.4344

                     91                     92                     93
                      A                      A                      A
 Frequencies --   3116.7639              3121.8850              3124.7881
 Red. masses --      1.1027                 1.1015                 1.1025
 Frc consts  --      6.3114                 6.3249                 6.3428
 IR Inten    --     27.5095                97.1776                17.8326

                     94                     95                     96
                      A                      A                      A
 Frequencies --   3126.8553              3136.2754              3139.2941
 Red. masses --      1.1016                 1.1035                 1.1032
 Frc consts  --      6.3456                 6.3951                 6.4058
 IR Inten    --     42.5277                 9.5877                22.2467

                     97                     98                     99
                      A                      A                      A
 Frequencies --   3173.9779              3177.8088              3179.5175
 Red. masses --      1.0893                 1.1010                 1.1008
 Frc consts  --      6.4656                 6.5511                 6.5564
 IR Inten    --     34.7687                 0.1595                 1.6242

                    100                    101                    102
                      A                      A                      A
 Frequencies --   3201.3053              3225.4776              3688.6695
 Red. masses --      1.0892                 1.0924                 1.0641
 Frc consts  --      6.5768                 6.6961                 8.5305
 IR Inten    --      4.4349                10.5584                70.2749

 - Thermochemistry -
 -------------------
 Temperature   298.150 Kelvin.  Pressure   1.00000 Atm.
 Atom     1 has atomic number  6 and mass  12.00000

 Molecular mass:   253.11365 amu.
 Principal axes and moments of inertia in atomic units:
                           1         2         3
     Eigenvalues --  1457.73672********************
           X            0.99999   0.00478   0.00000
           Y           -0.00478   0.99999   0.00006
           Z           -0.00000  -0.00006   1.00000
 This molecule is an asymmetric top.
 Rotational symmetry number  1.
 Warning -- assumption of classical behavior for rotation
           may cause significant error
 Rotational temperatures (Kelvin)      0.05942     0.00847     0.00796
 Rotational constants (GHZ):           1.23804     0.17656     0.16578
 Zero-point vibrational energy     795882.6 (Joules/Mol)
                                  190.22052 (Kcal/Mol)
 Warning -- explicit consideration of  31 degrees of freedom as
           vibrations may cause significant error
 Vibrational temperatures:     15.76    58.18    68.19    94.27   113.52
          (Kelvin)            147.82   236.69   277.78   293.48   325.65
                              354.46   378.47   399.94   402.59   412.20
                              455.26   466.42   479.89   480.34   493.17
                              512.31   522.51   591.65   623.30   631.93
                              677.51   685.82   816.68   840.92   864.70
                              876.72   937.42   955.70  1096.82  1117.77
                             1126.38  1172.91  1216.59  1237.65  1353.05
                             1358.90  1371.14  1374.04  1394.99  1404.85
                             1417.78  1497.20  1511.84  1520.92  1533.01
                             1631.22  1641.22  1680.81  1691.57  1721.50
                             1740.43  1786.62  1789.94  1793.50  1880.90
                             1889.87  1929.31  1972.81  2029.75  2036.70
                             2054.85  2062.98  2077.73  2101.56  2170.94
                             2176.84  2179.90  2182.11  2189.24  2205.58
                             2205.94  2210.52  2214.56  2228.72  2232.02
                             2300.39  2376.71  2644.33  4382.15  4382.93
                             4393.38  4413.62  4418.79  4478.75  4480.43
                             4484.33  4491.70  4495.87  4498.85  4512.40
                             4516.74  4566.65  4572.16  4574.62  4605.96
                             4640.74  5307.17

 Zero-point correction=                           0.303136 (Hartree/Particle)
 Thermal correction to Energy=                    0.321503
 Thermal correction to Enthalpy=                  0.322447
 Thermal correction to Gibbs Free Energy=         0.255742
 Sum of electronic and zero-point Energies=          -1110.005702
 Sum of electronic and thermal Energies=             -1109.987335
 Sum of electronic and thermal Enthalpies=           -1109.986391
 Sum of electronic and thermal Free Energies=        -1110.053096

                     E (Thermal)             CV                S
                      KCal/Mol        Cal/Mol-Kelvin    Cal/Mol-Kelvin
 Total                  201.746             69.803            140.392
 Electronic               0.000              0.000              0.000
 Translational            0.889              2.981             42.486
 Rotational               0.889              2.981             33.450
 Vibrational            199.969             63.842             64.456
 Vibration     1          0.593              1.987              7.830
 Vibration     2          0.594              1.981              5.238
 Vibration     3          0.595              1.979              4.923
 Vibration     4          0.597              1.971              4.284
 Vibration     5          0.600              1.963              3.918
 Vibration     6          0.605              1.947              3.402
 Vibration     7          0.623              1.886              2.497
 Vibration     8          0.635              1.849              2.198
 Vibration     9          0.640              1.834              2.097
 Vibration    10          0.650              1.801              1.908
 Vibration    11          0.661              1.769              1.756
 Vibration    12          0.670              1.741              1.641
 Vibration    13          0.679              1.714              1.546
 Vibration    14          0.680              1.711              1.535
 Vibration    15          0.684              1.699              1.495
 Vibration    16          0.703              1.642              1.329
 Vibration    17          0.709              1.627              1.289
 Vibration    18          0.715              1.609              1.243
 Vibration    19          0.715              1.608              1.241
 Vibration    20          0.722              1.590              1.199
 Vibration    21          0.732              1.563              1.139
 Vibration    22          0.737              1.548              1.109
 Vibration    23          0.775              1.446              0.922
 Vibration    24          0.794              1.398              0.848
 Vibration    25          0.799              1.385              0.829
 Vibration    26          0.828              1.315              0.735
 Vibration    27          0.833              1.302              0.719
 Vibration    28          0.924              1.101              0.509
 Vibration    29          0.941              1.065              0.477
 Vibration    30          0.959              1.030              0.448
 Vibration    31          0.968              1.012              0.434

                           ! Non-Optimized Parameters !
 Normal termination of Gaussian 16 at Fri Dec 11 13:04:25 2020.

 ----------------------------------------------------------------------
 # B3LYP/6-311++G(d,p) empiricaldispersion=gd3bj scf=xqc pop=npa geom=c
 heck
 ----------------------------------------------------------------------

 ---------------------------------------
 CID_107874345_JID_7527_Energie_neutraal
 ---------------------------------------
 Structure from the checkpoint file:  "JID_7527.chk"
 Charge =  0 Multiplicity = 1

 SCF Done:  E(RB3LYP) =  -1110.53788244     A.U. after   15 cycles
 Normal termination of Gaussian 16 at Fri Dec 11 13:09:57 2020.

 ----------------------------------------------------------------------
 # B3LYP/6-311++G(d,p) empiricaldispersion=gd3bj scf=xqc pop=npa geom=c
 heck
 ----------------------------------------------------------------------

 -------------------------------------
 CID_107874345_JID_7527_Energie_kation
 -------------------------------------
 Structure from the checkpoint file:  "JID_7527.chk"
 Charge =  1 Multiplicity = 2

 SCF Done:  E(UB3LYP) =  -1110.25501785     A.U. after   21 cycles
 Normal termination of Gaussian 16 at Fri Dec 11 13:20:38 2020.
 Gaussian 16:  ES64L-G16RevA.03 25-Dec-2016

 ----------------------------------------------------------------------
 # B3LYP/6-311++G(d,p) empiricaldispersion=gd3bj scf=xqc pop=npa geom=c
 heck
 ----------------------------------------------------------------------

 ------------------------------------
 CID_107874345_JID_7527_Energie_anion
 ------------------------------------
 Structure from the checkpoint file:  "JID_7527.chk"
 Charge = -1 Multiplicity = 2

                         Standard orientation:
 ---------------------------------------------------------------------
 Center     Atomic      Atomic             Coordinates (Angstroms)
 Number     Number       Type             X           Y           Z
 ---------------------------------------------------------------------
      1          6           0        5.025477    0.934730    0.001544
      2          6           0        4.082301   -0.279367    0.000128
      3          6           0        4.374013   -1.121019   -1.261353
      4          6           0        4.373353   -1.123399    1.260163
      5          6           0        2.609803    0.142014    0.000073
      6          6           0        1.595391   -0.819808   -0.000786
      7          7           0        0.282793   -0.555685   -0.001069
      8          6           0       -0.104842    0.721616   -0.000376
      9          6           0        0.821702    1.776359    0.000625
     10          6           0        2.176353    1.475897    0.000784
     11         16           0       -1.823675    1.200474   -0.000978
     12          6           0       -2.772090   -0.403981    0.000036
     13          6           0       -2.503057   -1.224900   -1.273921
     14          6           0       -2.502137   -1.223825    1.274469
     15          6           0       -4.230444    0.053086    0.000287
     16          8           0       -4.629403    1.195668   -0.000419
     17          8           0       -5.074944   -1.007641    0.001314
     18          1           0        6.065904    0.592813    0.001572
     19          1           0        4.881903    1.559295    0.890339
     20          1           0        4.882507    1.560916   -0.886206
     21          1           0        5.425215   -1.432113   -1.276575
     22          1           0        3.757037   -2.024534   -1.296784
     23          1           0        4.174652   -0.542712   -2.170126
     24          1           0        4.173508   -0.546820    2.169929
     25          1           0        3.756411   -2.027012    1.293581
     26          1           0        5.424557   -1.434488    1.275340
     27          1           0        1.844656   -1.878941   -0.001339
     28          1           0        0.480443    2.807023    0.001296
     29          1           0        2.893478    2.289207    0.001537
     30          1           0       -1.453787   -1.520168   -1.295727
     31          1           0       -3.130616   -2.121621   -1.270175
     32          1           0       -2.730727   -0.639786   -2.169796
     33          1           0       -2.729188   -0.637994    2.170032
     34          1           0       -3.129671   -2.120561    1.271894
     35          1           0       -1.452862   -1.519122    1.295809
     36          1           0       -5.974344   -0.629811    0.001314
 ---------------------------------------------------------------------

 SCF Done:  E(UB3LYP) =  -1110.52863818     A.U. after   33 cycles
 SCF Done:  E(UB3LYP) =  -1110.52863818     a.u. after    1 cycles

 The electronic state is 2-A.
 Alpha  occ. eigenvalues --  -88.75538 -19.08430 -19.03341 -14.20843 -10.22382
 Alpha  occ. eigenvalues --  -10.14263 -10.13980 -10.10503 -10.10382 -10.08727
 Alpha  occ. eigenvalues --  -10.08612 -10.08311 -10.07603 -10.07519 -10.07200
 Alpha  occ. eigenvalues --  -10.07025 -10.06992  -7.84177  -5.80576  -5.80156
 Alpha  occ. eigenvalues --   -5.79571  -1.02768  -0.93865  -0.85279  -0.75166
 Alpha  occ. eigenvalues --   -0.74261  -0.69939  -0.67607  -0.61285  -0.60707
 Alpha  occ. eigenvalues --   -0.60024  -0.59894  -0.57319  -0.53749  -0.52727
 Alpha  occ. eigenvalues --   -0.47669  -0.46381  -0.41181  -0.40885  -0.40102
 Alpha  occ. eigenvalues --   -0.39074  -0.37767  -0.36816  -0.35484  -0.35292
 Alpha  occ. eigenvalues --   -0.33962  -0.33880  -0.33352  -0.32798  -0.31740
 Alpha  occ. eigenvalues --   -0.30495  -0.30323  -0.29498  -0.29010  -0.29003
 Alpha  occ. eigenvalues --   -0.28005  -0.27542  -0.26853  -0.25224  -0.24991
 Alpha  occ. eigenvalues --   -0.24249  -0.23671  -0.22298  -0.19599  -0.19547
 Alpha  occ. eigenvalues --   -0.19141  -0.16217  -0.12288   0.03888
 Alpha virt. eigenvalues --    0.04971   0.05670   0.07123   0.07237   0.07426
 Alpha virt. eigenvalues --    0.07959   0.08265   0.08782   0.09209   0.09453
 Alpha virt. eigenvalues --    0.09619   0.10287   0.10356   0.11178   0.11784

  Beta  occ. eigenvalues --  -88.75538 -19.08377 -19.03326 -14.20722 -10.22381
  Beta  occ. eigenvalues --  -10.14256 -10.13991 -10.10423 -10.10379 -10.08752
  Beta  occ. eigenvalues --  -10.08504 -10.08266 -10.07598 -10.07504 -10.07186
  Beta  occ. eigenvalues --  -10.06995 -10.06961  -7.84177  -5.80576  -5.80155
  Beta  occ. eigenvalues --   -5.79571  -1.02704  -0.93808  -0.85104  -0.75134
  Beta  occ. eigenvalues --   -0.74225  -0.69773  -0.67536  -0.61220  -0.60687
  Beta  occ. eigenvalues --   -0.59981  -0.59841  -0.57250  -0.53587  -0.52616
  Beta  occ. eigenvalues --   -0.47582  -0.46314  -0.41116  -0.40856  -0.40055
  Beta  occ. eigenvalues --   -0.39032  -0.37739  -0.36760  -0.35438  -0.35251
  Beta  occ. eigenvalues --   -0.33923  -0.33841  -0.33315  -0.32706  -0.31587
  Beta  occ. eigenvalues --   -0.30422  -0.30273  -0.29463  -0.28972  -0.28876
  Beta  occ. eigenvalues --   -0.27974  -0.27511  -0.26836  -0.25187  -0.24959
  Beta  occ. eigenvalues --   -0.24209  -0.23639  -0.22279  -0.19546  -0.19285
  Beta  occ. eigenvalues --   -0.18608  -0.16088  -0.12138
  Beta virt. eigenvalues --    0.05881   0.06521   0.06797   0.07248   0.07475
  Beta virt. eigenvalues --    0.07892   0.08116   0.08356   0.09081   0.09387
  Beta virt. eigenvalues --    0.09423   0.09653   0.10398   0.10540   0.11414

 Mulliken charges and spin densities:
               1          2
     1  C   -0.214225  -0.272718
     2  C   -0.975985   1.413852
     3  C    0.116132  -0.754037
     4  C    0.487248  -1.119500
     5  C    1.040677  -0.602138
     6  C   -1.188785   0.807972
     7  N    0.180823   0.054853
     8  C    0.704784  -0.394645
     9  C    0.343973  -0.719048
    10  C   -0.111047  -0.071552
    11  S   -0.541197  -0.351324
    12  C    0.938167  -0.643092
    13  C   -0.172219  -0.324715
    14  C   -0.263265  -0.232763
    15  C   -0.285251   0.406015
    16  O   -0.262226  -0.007770
    17  O   -0.149599   0.021759
    18  H   -0.438499   0.614656
    19  H    0.022954   0.104600
    20  H   -0.137706   0.273178
    21  H   -0.092607   0.245439
    22  H    0.008355   0.117158
    23  H    0.051124   0.093684
    24  H    0.064469   0.076762
    25  H   -0.106447   0.234854
    26  H   -0.247786   0.403958
    27  H    0.126218   0.070542
    28  H    0.038691   0.144980
    29  H    0.010961   0.153387
    30  H    0.075308   0.078212
    31  H    0.090095   0.085712
    32  H    0.084753   0.080088
    33  H    0.097592   0.066438
    34  H    0.107764   0.067175
    35  H    0.098174   0.055693
    36  H   -0.501419   0.822333
 Sum of Mulliken charges =  -1.00000   1.00000

 Dipole moment (field-independent basis, Debye):
    X=              0.4572    Y=              0.2234    Z=             -0.1137  Tot=              0.5214
 Quadrupole moment (field-independent basis, Debye-Ang):
   XX=           -259.3173   YY=           -141.9036   ZZ=           -134.7589
   XY=              1.7891   XZ=             -1.5296   YZ=              2.0799

 Summary of Natural Population Analysis:

                                       Natural Population
                Natural  -----------------------------------------------
    Atom  No    Charge         Core      Valence    Rydberg      Total
 -----------------------------------------------------------------------
      C    1   -0.28694      0.99964     2.27954    0.00776     3.28694
      C    2   -0.05386      0.99956     2.04276    0.01153     3.05386
      C    3   -0.27947      0.99963     2.27291    0.00693     3.27947
      C    4   -0.27966      0.99963     2.27299    0.00704     3.27966
      C    5   -0.03998      0.99947     2.02874    0.01176     3.03998
      C    6    0.05135      0.99952     1.93700    0.01214     2.94865
      N    7   -0.25005      0.99965     2.73798    0.01241     3.75005
      C    8    0.03144      0.99946     1.95325    0.01585     2.96856
      C    9   -0.11878      0.99950     2.11037    0.00891     3.11878
      C   10   -0.06456      0.99951     2.05551    0.00954     3.06456
      S   11    0.14050      4.99951     2.84280    0.01719     7.85950
      C   12   -0.12669      0.99953     2.11114    0.01602     3.12669
      C   13   -0.29343      0.99961     2.28572    0.00811     3.29343
      C   14   -0.29218      0.99960     2.28602    0.00656     3.29218
      C   15    0.40775      0.99961     1.56485    0.02779     2.59225
      O   16   -0.29942      0.99987     3.29347    0.00609     4.29942
      O   17   -0.34549      0.99987     3.33807    0.00755     4.34549
      H   18    0.10328      0.00000     0.39560    0.00111     0.39672
      H   19    0.09980      0.00000     0.39920    0.00100     0.40020
      H   20    0.10185      0.00000     0.39708    0.00107     0.39815
      H   21    0.09908      0.00000     0.40003    0.00089     0.40092
      H   22    0.09920      0.00000     0.39985    0.00095     0.40080
      H   23    0.10145      0.00000     0.39774    0.00081     0.39855
      H   24    0.10078      0.00000     0.39840    0.00082     0.39922
      H   25    0.10015      0.00000     0.39889    0.00097     0.39985
      H   26    0.10000      0.00000     0.39885    0.00114     0.40000
      H   27    0.08817      0.00000     0.41056    0.00127     0.41183
      H   28    0.10385      0.00000     0.39528    0.00087     0.39615
      H   29    0.10289      0.00000     0.39616    0.00095     0.39711
      H   30    0.11921      0.00000     0.37973    0.00106     0.38079
      H   31    0.10521      0.00000     0.39374    0.00105     0.39479
      H   32    0.10283      0.00000     0.39631    0.00086     0.39717
      H   33    0.10241      0.00000     0.39662    0.00097     0.39759
      H   34    0.10491      0.00000     0.39398    0.00111     0.39509
      H   35    0.11902      0.00000     0.37985    0.00114     0.38098
      H   36    0.24541      0.00000     0.23476    0.01983     0.25459
 =======================================================================
   * Total *   -0.00000     20.99316    46.77577    0.23107    68.00000

 Normal termination of Gaussian 16 at Fri Dec 11 13:37:25 2020.
