 Gaussian 16, Revision A.03,

 -----------------------------------------------------------
 # opt freq B3LYP/6-31G(d) empiricaldispersion=gd3bj scf=xqc
 -----------------------------------------------------------

 -------------------------------
 CID_141496916_JID_5151_neutraal
 -------------------------------
 Symbolic Z-matrix:
 Charge =  0 Multiplicity = 1

 SCF Done:  E(RB3LYP) =  -834.653633866     A.U. after   16 cycles
 SCF Done:  E(RB3LYP) =  -834.662604944     A.U. after   15 cycles
 SCF Done:  E(RB3LYP) =  -834.649941425     A.U. after   17 cycles
 SCF Done:  E(RB3LYP) =  -834.663825711     A.U. after   15 cycles
 SCF Done:  E(RB3LYP) =  -834.659033459     A.U. after   15 cycles
 SCF Done:  E(RB3LYP) =  -834.663663706     A.U. after   15 cycles
 SCF Done:  E(RB3LYP) =  -834.664252128     A.U. after   10 cycles
 SCF Done:  E(RB3LYP) =  -834.664411703     A.U. after   14 cycles
 SCF Done:  E(RB3LYP) =  -834.664554750     A.U. after   13 cycles
 SCF Done:  E(RB3LYP) =  -834.664578467     A.U. after   14 cycles
 SCF Done:  E(RB3LYP) =  -834.664700061     A.U. after   11 cycles
 SCF Done:  E(RB3LYP) =  -834.664700507     A.U. after    9 cycles
 SCF Done:  E(RB3LYP) =  -834.664700645     A.U. after    9 cycles
 SCF Done:  E(RB3LYP) =  -834.664700704     A.U. after    9 cycles
 SCF Done:  E(RB3LYP) =  -834.664700732     A.U. after    8 cycles
 Optimization completed.
    -- Stationary point found.
 Normal termination of Gaussian 16 at Thu Dec 10 14:50:31 2020.

 --------------------------------------------------------------------
 #N Geom=AllCheck Guess=TCheck SCRF=Check GenChk RB3LYP/6-31G(d) Freq
 --------------------------------------------------------------------

 Structure from the checkpoint file:  "JID_5151.chk"
 -------------------------------
 CID_141496916_JID_5151_neutraal
 -------------------------------
 Charge =  0 Multiplicity = 1

 SCF Done:  E(RB3LYP) =  -834.664700732     A.U. after    1 cycles

  Exact polarizability: 118.084  -4.241 101.774   3.545  -2.971  96.527
 Approx polarizability: 167.804 -14.531 160.232  17.861  -9.501 167.824

                      1                      2                      3
                      A                      A                      A
 Frequencies --     21.9872                35.1397                47.4786
 Red. masses --      3.5171                10.7440                 6.9619
 Frc consts  --      0.0010                 0.0078                 0.0092
 IR Inten    --      0.4717                 0.3253                 0.5136

                      4                      5                      6
                      A                      A                      A
 Frequencies --     57.8162                80.2019               115.3947
 Red. masses --      4.8612                 5.6518                 4.5277
 Frc consts  --      0.0096                 0.0214                 0.0355
 IR Inten    --      0.0240                 0.5764                 0.3631

                      7                      8                      9
                      A                      A                      A
 Frequencies --    120.5147               146.0442               165.4448
 Red. masses --      2.2484                 2.0134                 2.7077
 Frc consts  --      0.0192                 0.0253                 0.0437
 IR Inten    --      0.0606                 0.9627                 0.3324

                     10                     11                     12
                      A                      A                      A
 Frequencies --    196.7366               208.4894               214.3442
 Red. masses --      4.4907                 2.3582                 2.1551
 Frc consts  --      0.1024                 0.0604                 0.0583
 IR Inten    --      2.5490                 0.4827                 1.4550

                     13                     14                     15
                      A                      A                      A
 Frequencies --    252.4000               262.9124               297.7550
 Red. masses --      2.1781                 4.6417                 3.1201
 Frc consts  --      0.0818                 0.1890                 0.1630
 IR Inten    --      3.7163                 6.3207                 6.9197

                     16                     17                     18
                      A                      A                      A
 Frequencies --    310.0796               348.6230               364.9618
 Red. masses --      2.0938                 4.0652                 4.8235
 Frc consts  --      0.1186                 0.2911                 0.3785
 IR Inten    --      0.9963                 0.4640                 2.3112

                     19                     20                     21
                      A                      A                      A
 Frequencies --    395.5379               432.3984               473.0408
 Red. masses --      9.1353                 9.9291                 2.6496
 Frc consts  --      0.8421                 1.0938                 0.3493
 IR Inten    --      1.2624                 2.6487                 2.4968

                     22                     23                     24
                      A                      A                      A
 Frequencies --    526.3830               654.6470               660.3501
 Red. masses --      5.4532                 6.3309                 6.1654
 Frc consts  --      0.8902                 1.5986                 1.5840
 IR Inten    --      5.4924                15.9576                 8.8064

                     25                     26                     27
                      A                      A                      A
 Frequencies --    705.2642               774.1382               780.9572
 Red. masses --      5.0357                 2.0077                 1.5164
 Frc consts  --      1.4758                 0.7089                 0.5449
 IR Inten    --      3.7104                 0.9039                 0.6776

                     28                     29                     30
                      A                      A                      A
 Frequencies --    818.7836               829.4791               865.0779
 Red. masses --      5.8409                 3.4709                 7.9862
 Frc consts  --      2.3071                 1.4070                 3.5213
 IR Inten    --     44.1274                33.8995                17.5379

                     31                     32                     33
                      A                      A                      A
 Frequencies --    890.5465               914.5159               935.3314
 Red. masses --      2.6119                 2.6381                 1.4683
 Frc consts  --      1.2205                 1.2999                 0.7568
 IR Inten    --      6.5401                33.6568                 6.0344

                     34                     35                     36
                      A                      A                      A
 Frequencies --    958.2006               993.8130              1010.7283
 Red. masses --      3.0132                 2.4184                 2.8202
 Frc consts  --      1.6300                 1.4073                 1.6975
 IR Inten    --     27.9674                 4.3874                13.0125

                     37                     38                     39
                      A                      A                      A
 Frequencies --   1074.7788              1116.7998              1132.6841
 Red. masses --      2.1534                 2.8443                 1.9526
 Frc consts  --      1.4656                 2.0902                 1.4760
 IR Inten    --     26.4585                 7.7978                 3.7173

                     40                     41                     42
                      A                      A                      A
 Frequencies --   1157.7796              1183.3838              1204.9288
 Red. masses --      2.2198                 2.0156                 3.3679
 Frc consts  --      1.7531                 1.6630                 2.8809
 IR Inten    --      8.7524                53.1627                67.6647

                     43                     44                     45
                      A                      A                      A
 Frequencies --   1277.9169              1291.2878              1318.8566
 Red. masses --      1.9068                 1.4760                 1.1788
 Frc consts  --      1.8346                 1.4500                 1.2081
 IR Inten    --    177.3898               114.0058                 8.5966

                     46                     47                     48
                      A                      A                      A
 Frequencies --   1346.3469              1379.4262              1385.0922
 Red. masses --      1.4364                 2.6785                 2.8066
 Frc consts  --      1.5340                 3.0029                 3.1724
 IR Inten    --     46.6799                63.0343               105.4605

                     49                     50                     51
                      A                      A                      A
 Frequencies --   1398.5172              1424.9347              1440.1510
 Red. masses --      1.4088                 1.6590                 1.7013
 Frc consts  --      1.6235                 1.9846                 2.0790
 IR Inten    --      4.7115                 6.4386                 1.7216

                     52                     53                     54
                      A                      A                      A
 Frequencies --   1442.6266              1450.5415              1501.0013
 Red. masses --      2.0341                 1.3192                 1.1086
 Frc consts  --      2.4943                 1.6354                 1.4716
 IR Inten    --     34.4011                 2.0729                 5.3293

                     55                     56                     57
                      A                      A                      A
 Frequencies --   1509.2009              1524.9062              1532.0975
 Red. masses --      1.0770                 1.0578                 1.0429
 Frc consts  --      1.4453                 1.4493                 1.4423
 IR Inten    --      2.6751                 2.8662                 4.9916

                     58                     59                     60
                      A                      A                      A
 Frequencies --   1536.3415              1537.8986              1540.5727
 Red. masses --      1.0605                 1.0703                 1.0516
 Frc consts  --      1.4749                 1.4915                 1.4705
 IR Inten    --     13.6558                 6.2001                 5.4677

                     61                     62                     63
                      A                      A                      A
 Frequencies --   1684.9852              1698.2890              1852.3863
 Red. masses --     14.1048                13.6360                12.4500
 Frc consts  --     23.5945                23.1719                25.1700
 IR Inten    --    250.8229               261.1983               204.8942

                     64                     65                     66
                      A                      A                      A
 Frequencies --   3050.5166              3058.6500              3075.2503
 Red. masses --      1.0608                 1.0380                 1.0379
 Frc consts  --      5.8161                 5.7213                 5.7829
 IR Inten    --     17.9475                19.2140                18.3736

                     67                     68                     69
                      A                      A                      A
 Frequencies --   3079.9396              3088.7225              3091.0656
 Red. masses --      1.0764                 1.0839                 1.0639
 Frc consts  --      6.0160                 6.0928                 5.9892
 IR Inten    --      7.9506                24.3326                 5.1285

                     70                     71                     72
                      A                      A                      A
 Frequencies --   3124.0582              3133.3636              3139.8472
 Red. masses --      1.1019                 1.1024                 1.1081
 Frc consts  --      6.3361                 6.3771                 6.4364
 IR Inten    --     28.9965                14.3611                18.5811

                     73                     74                     75
                      A                      A                      A
 Frequencies --   3142.4037              3149.8677              3177.7098
 Red. masses --      1.1025                 1.1001                 1.1014
 Frc consts  --      6.4141                 6.4306                 6.5526
 IR Inten    --     28.9359                 7.6737                 6.5155

 - Thermochemistry -
 -------------------
 Temperature   298.150 Kelvin.  Pressure   1.00000 Atm.
 Atom     1 has atomic number  6 and mass  12.00000

 Molecular mass:   220.06954 amu.
 Principal axes and moments of inertia in atomic units:
                           1         2         3
     Eigenvalues --  1982.702894038.208254504.98539
           X            0.99974  -0.01819   0.01371
           Y            0.01925   0.99650  -0.08135
           Z           -0.01219   0.08160   0.99659
 This molecule is an asymmetric top.
 Rotational symmetry number  1.
 Warning -- assumption of classical behavior for rotation
           may cause significant error
 Rotational temperatures (Kelvin)      0.04368     0.02145     0.01923
 Rotational constants (GHZ):           0.91024     0.44692     0.40061
 Zero-point vibrational energy     551003.8 (Joules/Mol)
                                  131.69307 (Kcal/Mol)
 Warning -- explicit consideration of  22 degrees of freedom as
           vibrations may cause significant error
 Vibrational temperatures:     31.63    50.56    68.31    83.18   115.39
          (Kelvin)            166.03   173.39   210.12   238.04   283.06
                              299.97   308.39   363.15   378.27   428.40
                              446.14   501.59   525.10   569.09   622.12
                              680.60   757.35   941.89   950.10  1014.72
                             1113.81  1123.62  1178.05  1193.44  1244.65
                             1281.30  1315.78  1345.73  1378.64  1429.88
                             1454.21  1546.37  1606.83  1629.68  1665.79
                             1702.63  1733.62  1838.64  1857.88  1897.54
                             1937.09  1984.69  1992.84  2012.15  2050.16
                             2072.06  2075.62  2087.01  2159.61  2171.40
                             2194.00  2204.35  2210.45  2212.69  2216.54
                             2424.32  2443.46  2665.17  4389.01  4400.72
                             4424.60  4431.35  4443.98  4447.35  4494.82
                             4508.21  4517.54  4521.22  4531.96  4572.02

 Zero-point correction=                           0.209866 (Hartree/Particle)
 Thermal correction to Energy=                    0.226020
 Thermal correction to Enthalpy=                  0.226964
 Thermal correction to Gibbs Free Energy=         0.164278
 Sum of electronic and zero-point Energies=           -834.454834
 Sum of electronic and thermal Energies=              -834.438680
 Sum of electronic and thermal Enthalpies=            -834.437736
 Sum of electronic and thermal Free Energies=         -834.500423

                     E (Thermal)             CV                S
                      KCal/Mol        Cal/Mol-Kelvin    Cal/Mol-Kelvin
 Total                  141.830             56.078            131.935
 Electronic               0.000              0.000              0.000
 Translational            0.889              2.981             42.069
 Rotational               0.889              2.981             31.956
 Vibrational            140.052             50.116             57.910
 Vibration     1          0.593              1.985              6.446
 Vibration     2          0.594              1.982              5.516
 Vibration     3          0.595              1.979              4.920
 Vibration     4          0.596              1.974              4.530
 Vibration     5          0.600              1.963              3.886
 Vibration     6          0.608              1.937              3.176
 Vibration     7          0.609              1.932              3.092
 Vibration     8          0.617              1.907              2.723
 Vibration     9          0.624              1.885              2.487
 Vibration    10          0.636              1.844              2.163
 Vibration    11          0.642              1.828              2.057
 Vibration    12          0.644              1.819              2.006
 Vibration    13          0.664              1.759              1.714
 Vibration    14          0.670              1.741              1.642
 Vibration    15          0.691              1.678              1.429
 Vibration    16          0.699              1.655              1.362
 Vibration    17          0.726              1.578              1.172
 Vibration    18          0.738              1.544              1.101
 Vibration    19          0.762              1.480              0.979
 Vibration    20          0.793              1.400              0.851
 Vibration    21          0.830              1.310              0.729
 Vibration    22          0.881              1.192              0.595

                           ! Non-Optimized Parameters !
 Normal termination of Gaussian 16 at Thu Dec 10 14:58:17 2020.

 ----------------------------------------------------------------------
 # B3LYP/6-311++G(d,p) empiricaldispersion=gd3bj scf=xqc pop=npa geom=c
 heck
 ----------------------------------------------------------------------

 ---------------------------------------
 CID_141496916_JID_5151_Energie_neutraal
 ---------------------------------------
 Structure from the checkpoint file:  "JID_5151.chk"
 Charge =  0 Multiplicity = 1

 SCF Done:  E(RB3LYP) =  -834.916902590     A.U. after   18 cycles
 Normal termination of Gaussian 16 at Thu Dec 10 15:01:27 2020.

 ----------------------------------------------------------------------
 # B3LYP/6-311++G(d,p) empiricaldispersion=gd3bj scf=xqc pop=npa geom=c
 heck
 ----------------------------------------------------------------------

 -------------------------------------
 CID_141496916_JID_5151_Energie_kation
 -------------------------------------
 Structure from the checkpoint file:  "JID_5151.chk"
 Charge =  1 Multiplicity = 2

 SCF Done:  E(UB3LYP) =  -834.523836332     A.U. after   33 cycles
 SCF Done:  E(UB3LYP) =  -834.523837181     a.u. after    3 cycles
 Normal termination of Gaussian 16 at Thu Dec 10 15:26:27 2020.
 Gaussian 16:  ES64L-G16RevA.03 25-Dec-2016

 ----------------------------------------------------------------------
 # B3LYP/6-311++G(d,p) empiricaldispersion=gd3bj scf=xqc pop=npa geom=c
 heck
 ----------------------------------------------------------------------

 ------------------------------------
 CID_141496916_JID_5151_Energie_anion
 ------------------------------------
 Structure from the checkpoint file:  "JID_5151.chk"
 Charge = -1 Multiplicity = 2

                         Standard orientation:
 ---------------------------------------------------------------------
 Center     Atomic      Atomic             Coordinates (Angstroms)
 Number     Number       Type             X           Y           Z
 ---------------------------------------------------------------------
      1          6           0       -3.776303    1.061016    0.218163
      2          6           0       -3.706066   -0.467881    0.183154
      3          6           0       -2.528289   -0.987027   -0.621169
      4          8           0       -1.315079   -0.565093    0.066709
      5          6           0       -0.195941   -0.545887   -0.653875
      6          8           0       -0.051546   -0.940277   -1.782885
      7          6           0        0.944461    0.018615    0.210687
      8          6           0        1.152731   -0.725412    1.528732
      9          6           0        1.092236   -2.252471    1.413373
     10          7           0        2.207863    0.040402   -0.665912
     11          8           0        2.284309    0.946254   -1.478020
     12          8           0        3.017994   -0.856145   -0.488826
     13          7           0        0.673488    1.507688    0.487072
     14          8           0       -0.219427    2.047163   -0.147748
     15          8           0        1.395862    2.030058    1.323455
     16          1           0       -2.863675    1.487322    0.644732
     17          1           0       -4.626695    1.399165    0.818669
     18          1           0       -3.892140    1.470888   -0.791914
     19          1           0       -3.647901   -0.873599    1.200874
     20          1           0       -4.616818   -0.882209   -0.268161
     21          1           0       -2.510459   -2.079314   -0.685225
     22          1           0       -2.504092   -0.578049   -1.634526
     23          1           0        2.106839   -0.397639    1.946482
     24          1           0        0.364195   -0.376399    2.202680
     25          1           0        1.845413   -2.630668    0.721120
     26          1           0        1.277971   -2.690879    2.398423
     27          1           0        0.104033   -2.586659    1.082855
 ---------------------------------------------------------------------

 SCF Done:  E(UB3LYP) =  -834.960752301     A.U. after   24 cycles

 The electronic state is 2-A.
 Alpha  occ. eigenvalues --  -19.06711 -19.00562 -18.97985 -18.97546 -18.96932
 Alpha  occ. eigenvalues --  -18.96814 -14.35025 -14.33799 -10.19634 -10.13866
 Alpha  occ. eigenvalues --  -10.13584 -10.09233 -10.06966 -10.06493 -10.05400
 Alpha  occ. eigenvalues --   -1.06266  -1.04514  -1.00808  -0.92115  -0.88981
 Alpha  occ. eigenvalues --   -0.88107  -0.72708  -0.70279  -0.63332  -0.61237
 Alpha  occ. eigenvalues --   -0.53422  -0.52666  -0.51007  -0.48440  -0.44682
 Alpha  occ. eigenvalues --   -0.40731  -0.40398  -0.38768  -0.37403  -0.36387
 Alpha  occ. eigenvalues --   -0.36050  -0.34861  -0.34110  -0.33841  -0.33617
 Alpha  occ. eigenvalues --   -0.32502  -0.32372  -0.30011  -0.28271  -0.27074
 Alpha  occ. eigenvalues --   -0.26672  -0.26273  -0.25601  -0.24713  -0.24357
 Alpha  occ. eigenvalues --   -0.20858  -0.17843  -0.15770  -0.15247  -0.15028
 Alpha  occ. eigenvalues --   -0.13479  -0.12683  -0.12349   0.02961
 Alpha virt. eigenvalues --    0.06426   0.07491   0.08244   0.08835   0.09657
 Alpha virt. eigenvalues --    0.10392   0.10960   0.11329   0.12711   0.13241
 Alpha virt. eigenvalues --    0.13648   0.14302   0.15040   0.16328   0.16492

  Beta  occ. eigenvalues --  -19.06707 -19.00568 -18.97719 -18.97180 -18.96535
  Beta  occ. eigenvalues --  -18.96409 -14.34418 -14.33059 -10.19591 -10.13864
  Beta  occ. eigenvalues --  -10.13636 -10.09232 -10.06963 -10.06493 -10.05401
  Beta  occ. eigenvalues --   -1.05397  -1.03538  -1.00773  -0.92114  -0.88373
  Beta  occ. eigenvalues --   -0.87348  -0.72539  -0.70192  -0.63162  -0.61127
  Beta  occ. eigenvalues --   -0.53246  -0.51956  -0.50221  -0.48333  -0.44364
  Beta  occ. eigenvalues --   -0.40476  -0.39703  -0.38061  -0.37330  -0.35772
  Beta  occ. eigenvalues --   -0.34873  -0.34510  -0.33460  -0.33070  -0.32801
  Beta  occ. eigenvalues --   -0.31896  -0.31411  -0.29910  -0.28204  -0.26954
  Beta  occ. eigenvalues --   -0.26572  -0.26201  -0.25589  -0.24654  -0.24303
  Beta  occ. eigenvalues --   -0.20840  -0.17813  -0.14848  -0.13673  -0.13167
  Beta  occ. eigenvalues --   -0.12581  -0.12105  -0.11961
  Beta virt. eigenvalues --    0.06392   0.08208   0.08750   0.09607   0.10220
  Beta virt. eigenvalues --    0.10846   0.11035   0.11252   0.11983   0.12684
  Beta virt. eigenvalues --    0.13224   0.13706   0.14325   0.15041   0.16319

 Mulliken charges and spin densities:
               1          2
     1  C   -0.460351  -0.023254
     2  C   -0.301197   0.012390
     3  C   -0.172232   0.012563
     4  O    0.097882  -0.004459
     5  C   -1.207383   0.015760
     6  O   -0.171215  -0.000034
     7  C    0.908091   0.056938
     8  C   -0.183134  -0.039775
     9  C   -0.539897   0.006598
    10  N   -0.194811   0.145478
    11  O   -0.141074   0.150833
    12  O   -0.113109   0.103336
    13  N   -0.047038   0.208306
    14  O   -0.112012   0.157092
    15  O   -0.199018   0.154350
    16  H    0.197765   0.009920
    17  H    0.111549   0.005201
    18  H    0.118906  -0.000492
    19  H    0.127230   0.001357
    20  H    0.120974   0.001911
    21  H    0.160285   0.004073
    22  H    0.191637  -0.000120
    23  H    0.230828   0.007441
    24  H    0.154271   0.011782
    25  H    0.164083   0.005442
    26  H    0.122944   0.001384
    27  H    0.136029  -0.004018
 Sum of Mulliken charges =  -1.00000   1.00000

 Dipole moment (field-independent basis, Debye):
    X=             -8.8978    Y=             -5.7377    Z=              2.8314  Tot=             10.9594
 Quadrupole moment (field-independent basis, Debye-Ang):
   XX=           -114.2234   YY=           -112.0400   ZZ=           -103.6968
   XY=             -1.1009   XZ=              6.9836   YZ=             -4.4072

 Summary of Natural Population Analysis:

                                       Natural Population
                Natural  -----------------------------------------------
    Atom  No    Charge         Core      Valence    Rydberg      Total
 -----------------------------------------------------------------------
      C    1   -0.29102      0.99967     2.28650    0.00485     3.29102
      C    2   -0.19880      0.99964     2.19321    0.00595     3.19880
      C    3   -0.01340      0.99957     2.00393    0.00990     3.01340
      O    4   -0.28454      0.99985     3.27283    0.01186     4.28454
      C    5    0.41605      0.99961     1.55799    0.02635     2.58395
      O    6   -0.29377      0.99987     3.28758    0.00632     4.29377
      C    7    0.06907      0.99946     1.90926    0.02221     2.93093
      C    8   -0.20675      0.99959     2.19750    0.00966     3.20675
      C    9   -0.28928      0.99966     2.28531    0.00431     3.28928
      N   10    0.30815      0.99972     2.16247    0.02966     3.19185
      O   11   -0.16569      0.99989     3.15728    0.00852     4.16569
      O   12   -0.20431      0.99989     3.19652    0.00790     4.20431
      N   13    0.32455      0.99973     2.14715    0.02857     3.17545
      O   14   -0.18615      0.99989     3.17752    0.00874     4.18615
      O   15   -0.18558      0.99989     3.17775    0.00793     4.18558
      H   16    0.11796      0.00000     0.38097    0.00107     0.38204
      H   17    0.09217      0.00000     0.40701    0.00081     0.40783
      H   18    0.09616      0.00000     0.40295    0.00089     0.40384
      H   19    0.09638      0.00000     0.40248    0.00114     0.40362
      H   20    0.09269      0.00000     0.40621    0.00110     0.40731
      H   21    0.08730      0.00000     0.41159    0.00111     0.41270
      H   22    0.09646      0.00000     0.40230    0.00123     0.40354
      H   23    0.11825      0.00000     0.38031    0.00144     0.38175
      H   24    0.10613      0.00000     0.39266    0.00121     0.39387
      H   25    0.11254      0.00000     0.38636    0.00110     0.38746
      H   26    0.09355      0.00000     0.40558    0.00087     0.40645
      H   27    0.09186      0.00000     0.40712    0.00102     0.40814
 =======================================================================
   * Total *    0.00000     14.99593    42.79836    0.20570    58.00000

 Normal termination of Gaussian 16 at Thu Dec 10 15:32:25 2020.
