 Gaussian 16, Revision A.03,

 -----------------------------------------------------------
 # opt freq B3LYP/6-31G(d) empiricaldispersion=gd3bj scf=xqc
 -----------------------------------------------------------

 -------------------------------
 CID_103705967_JID_1805_neutraal
 -------------------------------
 Symbolic Z-matrix:
 Charge =  0 Multiplicity = 1

 SCF Done:  E(RB3LYP) =  -842.055971745     A.U. after   15 cycles
 SCF Done:  E(RB3LYP) =  -842.074660410     A.U. after   14 cycles
 SCF Done:  E(RB3LYP) =  -842.042570095     A.U. after   15 cycles
 SCF Done:  E(RB3LYP) =  -842.072207541     A.U. after   13 cycles
 SCF Done:  E(RB3LYP) =  -842.075562342     A.U. after   11 cycles
 SCF Done:  E(RB3LYP) =  -842.077327879     A.U. after   12 cycles
 SCF Done:  E(RB3LYP) =  -842.079931319     A.U. after   13 cycles
 SCF Done:  E(RB3LYP) =  -842.079238314     A.U. after   13 cycles
 SCF Done:  E(RB3LYP) =  -842.080551338     A.U. after   12 cycles
 SCF Done:  E(RB3LYP) =  -842.080852268     A.U. after   12 cycles
 SCF Done:  E(RB3LYP) =  -842.082665770     A.U. after   13 cycles
 SCF Done:  E(RB3LYP) =  -842.082857306     A.U. after   11 cycles
 SCF Done:  E(RB3LYP) =  -842.082882878     A.U. after   10 cycles
 SCF Done:  E(RB3LYP) =  -842.082887370     A.U. after    9 cycles
 SCF Done:  E(RB3LYP) =  -842.082888692     A.U. after    9 cycles
 SCF Done:  E(RB3LYP) =  -842.082888958     A.U. after    8 cycles
 Optimization completed.
    -- Stationary point found.
 Normal termination of Gaussian 16 at Tue Dec  8 21:20:41 2020.

 --------------------------------------------------------------------
 #N Geom=AllCheck Guess=TCheck SCRF=Check GenChk RB3LYP/6-31G(d) Freq
 --------------------------------------------------------------------

 Structure from the checkpoint file:  "JID_1805.chk"
 -------------------------------
 CID_103705967_JID_1805_neutraal
 -------------------------------
 Charge =  0 Multiplicity = 1

 SCF Done:  E(RB3LYP) =  -842.082888958     A.U. after    1 cycles

  Exact polarizability: 125.494  -6.919 106.073   0.942   0.722  86.655
 Approx polarizability: 165.276 -15.512 159.879  -1.226  10.194 137.753

                      1                      2                      3
                      A                      A                      A
 Frequencies --     47.6690                64.7201               104.4677
 Red. masses --      4.4078                 5.2639                 4.5752
 Frc consts  --      0.0059                 0.0130                 0.0294
 IR Inten    --      3.4912                 2.4494                 9.7679

                      4                      5                      6
                      A                      A                      A
 Frequencies --    116.4590               144.9125               183.2138
 Red. masses --      4.2700                 4.0136                 3.2882
 Frc consts  --      0.0341                 0.0497                 0.0650
 IR Inten    --      2.9573                 1.8309                 9.1472

                      7                      8                      9
                      A                      A                      A
 Frequencies --    203.0806               207.0841               237.8972
 Red. masses --      3.3762                 3.6656                 1.1482
 Frc consts  --      0.0820                 0.0926                 0.0383
 IR Inten    --      8.0376                 0.5907                 0.5744

                     10                     11                     12
                      A                      A                      A
 Frequencies --    251.6209               271.8656               275.8065
 Red. masses --      1.6821                 2.9848                 1.5891
 Frc consts  --      0.0627                 0.1300                 0.0712
 IR Inten    --      4.1850                 1.4683                 0.9464

                     13                     14                     15
                      A                      A                      A
 Frequencies --    320.8748               382.5384               407.3740
 Red. masses --      2.9879                 2.9381                 2.2723
 Frc consts  --      0.1813                 0.2533                 0.2222
 IR Inten    --      2.5819                 1.2145                52.4200

                     16                     17                     18
                      A                      A                      A
 Frequencies --    421.1253               465.1137               492.5095
 Red. masses --      3.4383                 1.3869                 2.6924
 Frc consts  --      0.3593                 0.1768                 0.3848
 IR Inten    --      5.7359                58.9159                15.7087

                     19                     20                     21
                      A                      A                      A
 Frequencies --    575.6426               589.7845               662.1030
 Red. masses --      3.0878                 3.9110                 3.5212
 Frc consts  --      0.6028                 0.8015                 0.9095
 IR Inten    --      0.2409                 0.5948                 7.8587

                     22                     23                     24
                      A                      A                      A
 Frequencies --    694.1434               786.9165               817.7514
 Red. masses --      3.0145                 1.7284                 2.3367
 Frc consts  --      0.8558                 0.6306                 0.9207
 IR Inten    --      0.0655                 6.3464                 1.4796

                     25                     26                     27
                      A                      A                      A
 Frequencies --    858.4963               913.5459               939.4709
 Red. masses --      2.8551                 2.0966                 1.8720
 Frc consts  --      1.2398                 1.0309                 0.9735
 IR Inten    --      3.1068                 4.5025                13.3041

                     28                     29                     30
                      A                      A                      A
 Frequencies --    991.6209              1011.6740              1036.5510
 Red. masses --      1.4667                 1.9305                 1.6442
 Frc consts  --      0.8497                 1.1641                 1.0408
 IR Inten    --      3.3917                 0.3203                10.2053

                     31                     32                     33
                      A                      A                      A
 Frequencies --   1043.0548              1077.2245              1082.4947
 Red. masses --      1.7187                 2.4786                 1.9448
 Frc consts  --      1.1017                 1.6946                 1.3427
 IR Inten    --      5.8188                 0.2404                 2.7066

                     34                     35                     36
                      A                      A                      A
 Frequencies --   1105.6783              1145.5043              1170.2603
 Red. masses --      2.1423                 1.7381                 2.1103
 Frc consts  --      1.5431                 1.3438                 1.7028
 IR Inten    --     15.4204                63.0606                 5.1702

                     37                     38                     39
                      A                      A                      A
 Frequencies --   1186.2012              1221.5625              1286.1240
 Red. masses --      1.2001                 1.1830                 1.2888
 Frc consts  --      0.9949                 1.0401                 1.2560
 IR Inten    --      6.3967                 1.3647                25.3913

                     40                     41                     42
                      A                      A                      A
 Frequencies --   1300.6669              1318.8380              1331.4370
 Red. masses --      1.2007                 1.2748                 1.3058
 Frc consts  --      1.1967                 1.3064                 1.3638
 IR Inten    --      1.6013                 2.9238                12.9369

                     43                     44                     45
                      A                      A                      A
 Frequencies --   1352.3635              1376.5854              1398.9637
 Red. masses --      1.3734                 1.2994                 1.3302
 Frc consts  --      1.4799                 1.4508                 1.5339
 IR Inten    --      0.8121                11.9906                11.2336

                     46                     47                     48
                      A                      A                      A
 Frequencies --   1400.4234              1429.4075              1441.6383
 Red. masses --      1.3643                 1.1750                 1.2248
 Frc consts  --      1.5764                 1.4145                 1.4997
 IR Inten    --      4.3437                13.8794                 2.7140

                     49                     50                     51
                      A                      A                      A
 Frequencies --   1449.9418              1489.2957              1516.8792
 Red. masses --      1.3937                 1.0870                 1.0843
 Frc consts  --      1.7263                 1.4205                 1.4699
 IR Inten    --     59.6158                12.9926                 4.5703

                     52                     53                     54
                      A                      A                      A
 Frequencies --   1520.8597              1522.8350              1529.7744
 Red. masses --      1.0425                 1.0450                 1.0505
 Frc consts  --      1.4207                 1.4279                 1.4484
 IR Inten    --      7.9820                 5.2534                 1.3323

                     55                     56                     57
                      A                      A                      A
 Frequencies --   1533.6904              1536.1020              2364.7316
 Red. masses --      1.0861                 1.0481                12.5880
 Frc consts  --      1.5052                 1.4571                41.4734
 IR Inten    --      4.9732                 2.1130                15.9098

                     58                     59                     60
                      A                      A                      A
 Frequencies --   3001.5950              3053.3120              3060.0636
 Red. masses --      1.0842                 1.0374                 1.0606
 Frc consts  --      5.7551                 5.6980                 5.8512
 IR Inten    --     54.2972                26.4597                18.3408

                     61                     62                     63
                      A                      A                      A
 Frequencies --   3062.3329              3073.2920              3074.1410
 Red. masses --      1.0357                 1.0855                 1.0605
 Frc consts  --      5.7224                 6.0408                 5.9048
 IR Inten    --     16.0458                 9.2498                 7.9821

                     64                     65                     66
                      A                      A                      A
 Frequencies --   3079.0017              3099.9829              3117.0420
 Red. masses --      1.0646                 1.1047                 1.1004
 Frc consts  --      5.9467                 6.2548                 6.2990
 IR Inten    --     34.3104                14.7846                26.2438

                     67                     68                     69
                      A                      A                      A
 Frequencies --   3119.8650              3132.9843              3136.5777
 Red. masses --      1.1027                 1.1021                 1.1024
 Frc consts  --      6.3239                 6.3738                 6.3900
 IR Inten    --      7.7314                27.5037                18.1072

                     70                     71                     72
                      A                      A                      A
 Frequencies --   3141.3586              3156.0578              3689.5739
 Red. masses --      1.1017                 1.1008                 1.0673
 Frc consts  --      6.4056                 6.4600                 8.5600
 IR Inten    --     20.3331                 2.0135               162.9207

 - Thermochemistry -
 -------------------
 Temperature   298.150 Kelvin.  Pressure   1.00000 Atm.
 Atom     1 has atomic number  6 and mass  12.00000

 Molecular mass:   173.08744 amu.
 Principal axes and moments of inertia in atomic units:
                           1         2         3
     Eigenvalues --  1400.830982472.493883238.38970
           X            0.99924  -0.03735   0.01090
           Y            0.03770   0.99872  -0.03386
           Z           -0.00962   0.03424   0.99937
 This molecule is an asymmetric top.
 Rotational symmetry number  1.
 Warning -- assumption of classical behavior for rotation
           may cause significant error
 Rotational temperatures (Kelvin)      0.06183     0.03503     0.02675
 Rotational constants (GHZ):           1.28834     0.72993     0.55730
 Zero-point vibrational energy     589793.4 (Joules/Mol)
                                  140.96400 (Kcal/Mol)
 Warning -- explicit consideration of  20 degrees of freedom as
           vibrations may cause significant error
 Vibrational temperatures:     68.59    93.12   150.31   167.56   208.50
          (Kelvin)            263.60   292.19   297.95   342.28   362.03
                              391.15   396.82   461.67   550.39   586.12
                              605.91   669.19   708.61   828.22   848.57
                              952.62   998.72  1132.20  1176.56  1235.18
                             1314.39  1351.69  1426.72  1455.57  1491.37
                             1500.72  1549.89  1557.47  1590.82  1648.13
                             1683.74  1706.68  1757.56  1850.45  1871.37
                             1897.51  1915.64  1945.75  1980.60  2012.80
                             2014.90  2056.60  2074.20  2086.14  2142.76
                             2182.45  2188.18  2191.02  2201.00  2206.64
                             2210.11  3402.32  4318.63  4393.03  4402.75
                             4406.01  4421.78  4423.00  4430.00  4460.18
                             4484.73  4488.79  4507.67  4512.84  4519.71
                             4540.86  5308.47

 Zero-point correction=                           0.224640 (Hartree/Particle)
 Thermal correction to Energy=                    0.237895
 Thermal correction to Enthalpy=                  0.238840
 Thermal correction to Gibbs Free Energy=         0.185219
 Sum of electronic and zero-point Energies=           -841.858249
 Sum of electronic and thermal Energies=              -841.844994
 Sum of electronic and thermal Enthalpies=            -841.844049
 Sum of electronic and thermal Free Energies=         -841.897670

                     E (Thermal)             CV                S
                      KCal/Mol        Cal/Mol-Kelvin    Cal/Mol-Kelvin
 Total                  149.282             48.454            112.855
 Electronic               0.000              0.000              0.000
 Translational            0.889              2.981             41.353
 Rotational               0.889              2.981             30.795
 Vibrational            147.504             42.493             40.706
 Vibration     1          0.595              1.978              4.912
 Vibration     2          0.597              1.971              4.308
 Vibration     3          0.605              1.946              3.369
 Vibration     4          0.608              1.936              3.158
 Vibration     5          0.616              1.908              2.738
 Vibration     6          0.631              1.863              2.295
 Vibration     7          0.639              1.836              2.105
 Vibration     8          0.641              1.830              2.069
 Vibration     9          0.656              1.783              1.819
 Vibration    10          0.664              1.760              1.719
 Vibration    11          0.675              1.725              1.584
 Vibration    12          0.677              1.718              1.560
 Vibration    13          0.706              1.634              1.306
 Vibration    14          0.752              1.507              1.029
 Vibration    15          0.772              1.454              0.936
 Vibration    16          0.784              1.424              0.888
 Vibration    17          0.823              1.327              0.751
 Vibration    18          0.848              1.267              0.677
 Vibration    19          0.932              1.084              0.494
 Vibration    20          0.947              1.054              0.468

 Optimization completed.
    -- Stationary point found.
 Normal termination of Gaussian 16 at Tue Dec  8 21:27:03 2020.

 ----------------------------------------------------------------------
 # B3LYP/6-311++G(d,p) empiricaldispersion=gd3bj scf=xqc pop=npa geom=c
 heck
 ----------------------------------------------------------------------

 ---------------------------------------
 CID_103705967_JID_1805_Energie_neutraal
 ---------------------------------------
 Structure from the checkpoint file:  "JID_1805.chk"
 Charge =  0 Multiplicity = 1

 SCF Done:  E(RB3LYP) =  -842.245308121     A.U. after   14 cycles
 Normal termination of Gaussian 16 at Tue Dec  8 21:30:20 2020.

 ----------------------------------------------------------------------
 # B3LYP/6-311++G(d,p) empiricaldispersion=gd3bj scf=xqc pop=npa geom=c
 heck
 ----------------------------------------------------------------------

 -------------------------------------
 CID_103705967_JID_1805_Energie_kation
 -------------------------------------
 Structure from the checkpoint file:  "JID_1805.chk"
 Charge =  1 Multiplicity = 2

 SCF Done:  E(UB3LYP) =  -841.941421854     A.U. after   20 cycles
 Normal termination of Gaussian 16 at Tue Dec  8 21:36:58 2020.
 Gaussian 16:  ES64L-G16RevA.03 25-Dec-2016

 ----------------------------------------------------------------------
 # B3LYP/6-311++G(d,p) empiricaldispersion=gd3bj scf=xqc pop=npa geom=c
 heck
 ----------------------------------------------------------------------

 ------------------------------------
 CID_103705967_JID_1805_Energie_anion
 ------------------------------------
 Structure from the checkpoint file:  "JID_1805.chk"
 Charge = -1 Multiplicity = 2

                         Standard orientation:
 ---------------------------------------------------------------------
 Center     Atomic      Atomic             Coordinates (Angstroms)
 Number     Number       Type             X           Y           Z
 ---------------------------------------------------------------------
      1          6           0       -1.718498    1.648565   -0.936563
      2          6           0       -1.760416    0.954826    0.421199
      3          6           0       -1.722599   -0.588980    0.356989
      4          6           0       -2.949908   -1.173742   -0.346987
      5         16           0       -0.217629   -1.288582   -0.463802
      6          6           0        1.012145   -1.183223    0.903220
      7          6           0        2.445715   -1.236828    0.370300
      8          6           0        2.764966   -0.187137   -0.719785
      9          6           0        2.294289    1.150173   -0.359743
     10          7           0        1.868906    2.186674   -0.055684
     11          8           0       -0.752238    1.448028    1.297926
     12          1           0       -0.791180    1.405934   -1.465375
     13          1           0       -1.766813    2.733073   -0.796557
     14          1           0       -2.561243    1.348336   -1.567163
     15          1           0       -2.719793    1.195423    0.905273
     16          1           0       -1.695835   -0.947428    1.391787
     17          1           0       -2.934161   -0.968799   -1.422717
     18          1           0       -2.996620   -2.257672   -0.212963
     19          1           0       -3.866141   -0.733382    0.064255
     20          1           0        0.826513   -0.248682    1.434615
     21          1           0        0.852932   -2.012800    1.599503
     22          1           0        3.128223   -1.097796    1.216730
     23          1           0        2.661379   -2.222795   -0.056782
     24          1           0        3.844074   -0.149857   -0.906252
     25          1           0        2.275789   -0.459274   -1.660590
     26          1           0       -0.033675    1.840175    0.771674
 ---------------------------------------------------------------------

 SCF Done:  E(UB3LYP) =  -842.234057080     A.U. after   29 cycles

 The electronic state is 2-A.
 Alpha  occ. eigenvalues --  -88.73259 -19.01588 -14.21711 -10.12899 -10.12102
 Alpha  occ. eigenvalues --  -10.11081 -10.10634 -10.09420 -10.08656 -10.07530
 Alpha  occ. eigenvalues --  -10.06711  -7.81918  -5.78303  -5.77943  -5.77284
 Alpha  occ. eigenvalues --   -0.92182  -0.81806  -0.73132  -0.71033  -0.65445
 Alpha  occ. eigenvalues --   -0.63186  -0.58313  -0.55302  -0.50280  -0.46282
 Alpha  occ. eigenvalues --   -0.40900  -0.40084  -0.38333  -0.37482  -0.36173
 Alpha  occ. eigenvalues --   -0.35555  -0.34059  -0.30578  -0.30472  -0.29776
 Alpha  occ. eigenvalues --   -0.28811  -0.28449  -0.27676  -0.26361  -0.26086
 Alpha  occ. eigenvalues --   -0.24573  -0.23982  -0.23012  -0.22401  -0.20458
 Alpha  occ. eigenvalues --   -0.17556  -0.12347   0.04373
 Alpha virt. eigenvalues --    0.06027   0.07653   0.08460   0.08800   0.09379
 Alpha virt. eigenvalues --    0.09486   0.10373   0.11141   0.11417   0.11888
 Alpha virt. eigenvalues --    0.12260   0.12507   0.13229   0.13444   0.13841

  Beta  occ. eigenvalues --  -88.73251 -19.01588 -14.21687 -10.12894 -10.12093
  Beta  occ. eigenvalues --  -10.11030 -10.10616 -10.09409 -10.08604 -10.07507
  Beta  occ. eigenvalues --  -10.06697  -7.81908  -5.78295  -5.77935  -5.77276
  Beta  occ. eigenvalues --   -0.92180  -0.81757  -0.73082  -0.70977  -0.65393
  Beta  occ. eigenvalues --   -0.63148  -0.58235  -0.55263  -0.50195  -0.46249
  Beta  occ. eigenvalues --   -0.40810  -0.40064  -0.38254  -0.37454  -0.36114
  Beta  occ. eigenvalues --   -0.35534  -0.34020  -0.30513  -0.30440  -0.29744
  Beta  occ. eigenvalues --   -0.28768  -0.28392  -0.27651  -0.26320  -0.26050
  Beta  occ. eigenvalues --   -0.24547  -0.23904  -0.22967  -0.22357  -0.20417
  Beta  occ. eigenvalues --   -0.17540  -0.12327
  Beta virt. eigenvalues --    0.06471   0.07620   0.08062   0.08666   0.09574
  Beta virt. eigenvalues --    0.09838   0.10178   0.10656   0.11298   0.11683
  Beta virt. eigenvalues --    0.12175   0.12680   0.12900   0.13402   0.13666

 Mulliken charges and spin densities:
               1          2
     1  C   -0.166178  -0.437829
     2  C   -0.159880  -0.197304
     3  C   -0.874207   1.241876
     4  C    0.712540  -1.333926
     5  S    1.221338  -1.336880
     6  C   -1.547010   1.239948
     7  C    2.318605  -2.984117
     8  C   -0.814745   0.833035
     9  C    1.030461  -1.060316
    10  N   -0.383275   0.076909
    11  O   -0.238936  -0.002680
    12  H    0.051541   0.147456
    13  H    0.122082   0.029808
    14  H   -0.056023   0.188144
    15  H   -0.086929   0.265656
    16  H    0.090550   0.158274
    17  H   -0.014951   0.164837
    18  H   -0.069931   0.222004
    19  H   -0.135826   0.266766
    20  H    0.124135   0.085105
    21  H   -0.181362   0.405977
    22  H   -0.335094   0.513432
    23  H   -0.739834   0.941746
    24  H   -1.136147   1.378480
    25  H   -0.009079   0.194032
    26  H    0.278154  -0.000434
 Sum of Mulliken charges =  -1.00000   1.00000

 Dipole moment (field-independent basis, Debye):
    X=             -6.1395    Y=              2.1635    Z=              0.0108  Tot=              6.5095
 Quadrupole moment (field-independent basis, Debye-Ang):
   XX=           -155.4833   YY=           -121.5621   ZZ=           -103.7932
   XY=              7.0824   XZ=              2.0422   YZ=             -3.0208

 Summary of Natural Population Analysis:

                                       Natural Population
                Natural  -----------------------------------------------
    Atom  No    Charge         Core      Valence    Rydberg      Total
 -----------------------------------------------------------------------
      C    1   -0.30643      0.99964     2.30080    0.00599     3.30643
      C    2    0.06131      0.99952     1.92425    0.01492     2.93869
      C    3   -0.16886      0.99955     2.15657    0.01274     3.16886
      C    4   -0.29213      0.99963     2.28577    0.00672     3.29213
      S    5    0.07721      4.99960     2.90730    0.01589     7.92279
      C    6   -0.25246      0.99958     2.24284    0.01004     3.25246
      C    7   -0.18694      0.99962     2.17607    0.01125     3.18694
      C    8   -0.25336      0.99954     2.24251    0.01131     3.25336
      C    9    0.18652      0.99965     1.79658    0.01725     2.81348
      N   10   -0.21380      0.99976     2.70289    0.01115     3.71380
      O   11   -0.38459      0.99989     3.37830    0.00639     4.38459
      H   12    0.10807      0.00000     0.39068    0.00125     0.39193
      H   13    0.10209      0.00000     0.39713    0.00079     0.39791
      H   14    0.10192      0.00000     0.39724    0.00084     0.39808
      H   15    0.08070      0.00000     0.41722    0.00209     0.41930
      H   16    0.10256      0.00000     0.39564    0.00180     0.39744
      H   17    0.10000      0.00000     0.39901    0.00099     0.40000
      H   18    0.10607      0.00000     0.39280    0.00113     0.39393
      H   19    0.10136      0.00000     0.39723    0.00141     0.39864
      H   20    0.11450      0.00000     0.38357    0.00193     0.38550
      H   21    0.10250      0.00000     0.39601    0.00149     0.39750
      H   22    0.10731      0.00000     0.38991    0.00278     0.39269
      H   23    0.10818      0.00000     0.38696    0.00486     0.39182
      H   24    0.12983      0.00000     0.36305    0.00712     0.37017
      H   25    0.12564      0.00000     0.37241    0.00195     0.37436
      H   26    0.24278      0.00000     0.25354    0.00368     0.25722
 =======================================================================
   * Total *   -0.00000     14.99599    31.84628    0.15774    47.00000

 Normal termination of Gaussian 16 at Tue Dec  8 21:46:45 2020.
