 Gaussian 16, Revision A.03,

 -----------------------------------------------------------
 # opt freq B3LYP/6-31G(d) empiricaldispersion=gd3bj scf=xqc
 -----------------------------------------------------------

 -------------------------------
 CID_148939639_JID_4346_neutraal
 -------------------------------
 Symbolic Z-matrix:
 Charge =  0 Multiplicity = 1

 SCF Done:  E(RB3LYP) =  -614.539238637     A.U. after   21 cycles
 SCF Done:  E(RB3LYP) =  -614.558205430     A.U. after   15 cycles
 SCF Done:  E(RB3LYP) =  -614.570171406     A.U. after   15 cycles
 SCF Done:  E(RB3LYP) =  -614.572250943     A.U. after   12 cycles
 SCF Done:  E(RB3LYP) =  -614.575460641     A.U. after   14 cycles
 SCF Done:  E(RB3LYP) =  -614.585408719     A.U. after   14 cycles
 SCF Done:  E(RB3LYP) =  -614.586376357     A.U. after   14 cycles
 SCF Done:  E(RB3LYP) =  -614.586205609     A.U. after   14 cycles
 SCF Done:  E(RB3LYP) =  -614.589603312     A.U. after   13 cycles
 SCF Done:  E(RB3LYP) =  -614.590325070     A.U. after   14 cycles
 SCF Done:  E(RB3LYP) =  -614.590725848     A.U. after    9 cycles
 SCF Done:  E(RB3LYP) =  -614.590726662     A.U. after   10 cycles
 SCF Done:  E(RB3LYP) =  -614.590727373     A.U. after    8 cycles
 SCF Done:  E(RB3LYP) =  -614.590727681     A.U. after    8 cycles
 SCF Done:  E(RB3LYP) =  -614.590727771     A.U. after    9 cycles
 SCF Done:  E(RB3LYP) =  -614.590727816     A.U. after    8 cycles
 Optimization completed.
    -- Stationary point found.
 Normal termination of Gaussian 16 at Thu Dec 10 09:39:34 2020.

 --------------------------------------------------------------------
 #N Geom=AllCheck Guess=TCheck SCRF=Check GenChk RB3LYP/6-31G(d) Freq
 --------------------------------------------------------------------

 Structure from the checkpoint file:  "JID_4346.chk"
 -------------------------------
 CID_148939639_JID_4346_neutraal
 -------------------------------
 Charge =  0 Multiplicity = 1

 SCF Done:  E(RB3LYP) =  -614.590727816     A.U. after    1 cycles

  Exact polarizability: 155.771  -5.962 136.470  10.725   0.082  98.444
 Approx polarizability: 205.461  -9.070 201.377  24.710  -2.405 165.593

                      1                      2                      3
                      A                      A                      A
 Frequencies --     33.1799                59.6194                67.2665
 Red. masses --      3.9080                 3.0289                 6.5807
 Frc consts  --      0.0025                 0.0063                 0.0175
 IR Inten    --      0.1160                 0.5283                 0.4577

                      4                      5                      6
                      A                      A                      A
 Frequencies --     74.9708                93.0584                99.3708
 Red. masses --      3.0199                 1.7380                 2.4955
 Frc consts  --      0.0100                 0.0089                 0.0145
 IR Inten    --      0.1478                 0.3417                 0.5996

                      7                      8                      9
                      A                      A                      A
 Frequencies --    122.0408               133.4406               143.3838
 Red. masses --      2.7323                 2.7821                 2.0259
 Frc consts  --      0.0240                 0.0292                 0.0245
 IR Inten    --      0.3219                 0.7294                 1.1349

                     10                     11                     12
                      A                      A                      A
 Frequencies --    165.2632               196.0142               217.2202
 Red. masses --      1.3287                 2.2937                 1.6814
 Frc consts  --      0.0214                 0.0519                 0.0467
 IR Inten    --      0.4644                 2.4755                 1.2833

                     13                     14                     15
                      A                      A                      A
 Frequencies --    233.2706               281.9141               301.2429
 Red. masses --      3.7923                 2.4914                 2.4075
 Frc consts  --      0.1216                 0.1167                 0.1287
 IR Inten    --      2.6893                 1.4167                 0.9632

                     16                     17                     18
                      A                      A                      A
 Frequencies --    320.7845               323.5675               372.8443
 Red. masses --      3.4747                 3.0438                 2.7664
 Frc consts  --      0.2107                 0.1878                 0.2266
 IR Inten    --     11.0084                 1.2445                 2.4610

                     19                     20                     21
                      A                      A                      A
 Frequencies --    384.9076               408.1508               453.6107
 Red. masses --      2.3492                 2.3604                 2.1154
 Frc consts  --      0.2051                 0.2317                 0.2565
 IR Inten    --      3.4009                 0.3535                 3.4219

                     22                     23                     24
                      A                      A                      A
 Frequencies --    551.1700               585.3925               627.6967
 Red. masses --      2.6707                 2.7331                 5.1938
 Frc consts  --      0.4780                 0.5518                 1.2057
 IR Inten    --     28.7819                 9.3644                 5.4544

                     25                     26                     27
                      A                      A                      A
 Frequencies --    641.4144               692.5205               736.3357
 Red. masses --      4.0869                 2.6176                 1.6325
 Frc consts  --      0.9906                 0.7396                 0.5215
 IR Inten    --     18.3941                13.7970                34.0948

                     28                     29                     30
                      A                      A                      A
 Frequencies --    744.2535               781.0226               793.7452
 Red. masses --      1.6085                 4.5440                 3.6512
 Frc consts  --      0.5249                 1.6331                 1.3553
 IR Inten    --     41.3563                 5.5102                18.9165

                     31                     32                     33
                      A                      A                      A
 Frequencies --    861.9658               910.7357               948.8064
 Red. masses --      2.8575                 1.9005                 1.5019
 Frc consts  --      1.2509                 0.9287                 0.7966
 IR Inten    --      9.2172                 1.5081                10.1069

                     34                     35                     36
                      A                      A                      A
 Frequencies --    967.9388               990.3526              1009.7536
 Red. masses --      1.8543                 1.3419                 1.2431
 Frc consts  --      1.0236                 0.7754                 0.7468
 IR Inten    --     10.2802                 0.6061                 1.5814

                     37                     38                     39
                      A                      A                      A
 Frequencies --   1013.3776              1030.1967              1039.9270
 Red. masses --      1.2698                 1.6605                 2.0943
 Frc consts  --      0.7683                 1.0383                 1.3344
 IR Inten    --      2.7050                 9.5913                 1.2233

                     40                     41                     42
                      A                      A                      A
 Frequencies --   1080.5728              1087.6866              1109.1821
 Red. masses --      1.5412                 2.1844                 1.5655
 Frc consts  --      1.0603                 1.5226                 1.1347
 IR Inten    --     24.2016                22.7338                 2.6865

                     43                     44                     45
                      A                      A                      A
 Frequencies --   1124.3219              1135.5307              1144.4351
 Red. masses --      1.4281                 2.1751                 1.8233
 Frc consts  --      1.0636                 1.6525                 1.4070
 IR Inten    --      1.1647                16.4662                13.6479

                     46                     47                     48
                      A                      A                      A
 Frequencies --   1158.9665              1175.7722              1195.3448
 Red. masses --      1.2960                 2.1892                 1.5815
 Frc consts  --      1.0256                 1.7832                 1.3314
 IR Inten    --      1.2275                 3.9389                 7.9967

                     49                     50                     51
                      A                      A                      A
 Frequencies --   1217.7900              1232.3598              1256.8520
 Red. masses --      2.7520                 1.5308                 2.4211
 Frc consts  --      2.4046                 1.3698                 2.2534
 IR Inten    --     30.9963                 4.1794                24.1584

                     52                     53                     54
                      A                      A                      A
 Frequencies --   1282.3533              1324.2294              1335.2957
 Red. masses --      1.4764                 2.2617                 1.4643
 Frc consts  --      1.4304                 2.3368                 1.5383
 IR Inten    --      6.6490                33.4693                 0.7884

                     55                     56                     57
                      A                      A                      A
 Frequencies --   1364.2691              1390.1920              1435.7888
 Red. masses --      1.4543                 1.5336                 1.2846
 Frc consts  --      1.5947                 1.7463                 1.5603
 IR Inten    --     16.2905                 1.2083                 0.4001

                     58                     59                     60
                      A                      A                      A
 Frequencies --   1449.2264              1483.8687              1493.6048
 Red. masses --      1.2391                 1.1462                 1.0856
 Frc consts  --      1.5333                 1.4870                 1.4269
 IR Inten    --      1.4590                 3.3738                10.8195

                     61                     62                     63
                      A                      A                      A
 Frequencies --   1503.3721              1507.9866              1517.4663
 Red. masses --      1.0526                 1.0876                 1.0589
 Frc consts  --      1.4017                 1.4571                 1.4367
 IR Inten    --      2.5242                14.3197                 2.4920

                     64                     65                     66
                      A                      A                      A
 Frequencies --   1520.5591              1533.2497              1539.4081
 Red. masses --      1.0668                 1.1251                 1.0569
 Frc consts  --      1.4533                 1.5583                 1.4757
 IR Inten    --      2.1351                13.1749                11.4540

                     67                     68                     69
                      A                      A                      A
 Frequencies --   1554.7738              1557.6556              1569.9927
 Red. masses --      1.0852                 1.0869                 1.1597
 Frc consts  --      1.5456                 1.5538                 1.6842
 IR Inten    --      2.6643                 5.2686                28.8709

                     70                     71                     72
                      A                      A                      A
 Frequencies --   1678.1179              1752.3206              1866.1762
 Red. masses --     13.4206                 5.4029                 7.1876
 Frc consts  --     22.2673                 9.7748                14.7483
 IR Inten    --     99.3875                30.3341                12.2190

                     73                     74                     75
                      A                      A                      A
 Frequencies --   2993.5391              3016.4744              3023.0898
 Red. masses --      1.0564                 1.0425                 1.0450
 Frc consts  --      5.5776                 5.5891                 5.6271
 IR Inten    --     64.0869                36.0882                71.9953

                     76                     77                     78
                      A                      A                      A
 Frequencies --   3034.5604              3045.4204              3052.9941
 Red. masses --      1.0793                 1.0695                 1.0999
 Frc consts  --      5.8559                 5.8444                 6.0403
 IR Inten    --      5.8003                15.2087                28.7056

                     79                     80                     81
                      A                      A                      A
 Frequencies --   3056.6688              3061.6336              3073.7365
 Red. masses --      1.0478                 1.0705                 1.0925
 Frc consts  --      5.7682                 5.9123                 6.0814
 IR Inten    --     63.8909                16.3383                33.7451

                     82                     83                     84
                      A                      A                      A
 Frequencies --   3096.1260              3117.1808              3119.0734
 Red. masses --      1.0774                 1.1169                 1.0939
 Frc consts  --      6.0848                 6.3940                 6.2701
 IR Inten    --     44.7355                47.7832                11.1033

                     85                     86                     87
                      A                      A                      A
 Frequencies --   3120.5403              3126.5002              3133.4659
 Red. masses --      1.1003                 1.0939                 1.1023
 Frc consts  --      6.3128                 6.2999                 6.3770
 IR Inten    --     28.8707                23.7956                17.4958

                     88                     89                     90
                      A                      A                      A
 Frequencies --   3140.6097              3283.7193              3584.4571
 Red. masses --      1.0916                 1.1143                 1.0752
 Frc consts  --      6.3439                 7.0794                 8.1392
 IR Inten    --     26.8948                 0.0801                43.8078

 - Thermochemistry -
 -------------------
 Temperature   298.150 Kelvin.  Pressure   1.00000 Atm.
 Atom     1 has atomic number  6 and mass  12.00000

 Molecular mass:   194.14191 amu.
 Principal axes and moments of inertia in atomic units:
                           1         2         3
     Eigenvalues --  1919.293503562.394224918.26776
           X            0.99966  -0.02534   0.00635
           Y            0.02533   0.99968   0.00144
           Z           -0.00638  -0.00128   0.99998
 This molecule is an asymmetric top.
 Rotational symmetry number  1.
 Warning -- assumption of classical behavior for rotation
           may cause significant error
 Rotational temperatures (Kelvin)      0.04513     0.02431     0.01761
 Rotational constants (GHZ):           0.94032     0.50661     0.36695
 Zero-point vibrational energy     724160.8 (Joules/Mol)
                                  173.07859 (Kcal/Mol)
 Warning -- explicit consideration of  23 degrees of freedom as
           vibrations may cause significant error
 Vibrational temperatures:     47.74    85.78    96.78   107.87   133.89
          (Kelvin)            142.97   175.59   191.99   206.30   237.78
                              282.02   312.53   335.62   405.61   433.42
                              461.54   465.54   536.44   553.80   587.24
                              652.64   793.01   842.25   903.12   922.85
                              996.38  1059.42  1070.81  1123.72  1142.02
                             1240.18  1310.35  1365.12  1392.65  1424.90
                             1452.81  1458.02  1482.22  1496.22  1554.70
                             1564.94  1595.87  1617.65  1633.78  1646.59
                             1667.49  1691.67  1719.83  1752.13  1773.09
                             1808.33  1845.02  1905.27  1921.19  1962.88
                             2000.18  2065.78  2085.11  2134.96  2148.96
                             2163.02  2169.66  2183.30  2187.75  2206.00
                             2214.86  2236.97  2241.12  2258.87  2414.44
                             2521.20  2685.01  4307.04  4340.03  4349.55
                             4366.06  4381.68  4392.58  4397.86  4405.01
                             4422.42  4454.63  4484.93  4487.65  4489.76
                             4498.34  4508.36  4518.64  4724.54  5157.23

 Zero-point correction=                           0.275818 (Hartree/Particle)
 Thermal correction to Energy=                    0.292370
 Thermal correction to Enthalpy=                  0.293314
 Thermal correction to Gibbs Free Energy=         0.231330
 Sum of electronic and zero-point Energies=           -614.314910
 Sum of electronic and thermal Energies=              -614.298358
 Sum of electronic and thermal Enthalpies=            -614.297414
 Sum of electronic and thermal Free Energies=         -614.359398

                     E (Thermal)             CV                S
                      KCal/Mol        Cal/Mol-Kelvin    Cal/Mol-Kelvin
 Total                  183.465             59.344            130.457
 Electronic               0.000              0.000              0.000
 Translational            0.889              2.981             41.696
 Rotational               0.889              2.981             31.886
 Vibrational            181.687             53.382             56.875
 Vibration     1          0.594              1.983              5.630
 Vibration     2          0.597              1.974              4.470
 Vibration     3          0.598              1.970              4.232
 Vibration     4          0.599              1.966              4.018
 Vibration     5          0.602              1.954              3.595
 Vibration     6          0.604              1.950              3.467
 Vibration     7          0.610              1.931              3.068
 Vibration     8          0.613              1.920              2.896
 Vibration     9          0.616              1.910              2.758
 Vibration    10          0.624              1.885              2.489
 Vibration    11          0.636              1.845              2.170
 Vibration    12          0.646              1.815              1.982
 Vibration    13          0.654              1.790              1.854
 Vibration    14          0.681              1.707              1.522
 Vibration    15          0.693              1.671              1.410
 Vibration    16          0.706              1.634              1.306
 Vibration    17          0.708              1.628              1.292
 Vibration    18          0.744              1.528              1.068
 Vibration    19          0.754              1.502              1.020
 Vibration    20          0.773              1.453              0.933
 Vibration    21          0.812              1.353              0.785
 Vibration    22          0.906              1.137              0.542
 Vibration    23          0.942              1.063              0.475

 Optimization completed.
    -- Stationary point found.
 Normal termination of Gaussian 16 at Thu Dec 10 09:50:26 2020.

 ----------------------------------------------------------------------
 # B3LYP/6-311++G(d,p) empiricaldispersion=gd3bj scf=xqc pop=npa geom=c
 heck
 ----------------------------------------------------------------------

 ---------------------------------------
 CID_148939639_JID_4346_Energie_neutraal
 ---------------------------------------
 Structure from the checkpoint file:  "JID_4346.chk"
 Charge =  0 Multiplicity = 1

 SCF Done:  E(RB3LYP) =  -614.765789782     A.U. after   19 cycles
 Normal termination of Gaussian 16 at Thu Dec 10 09:57:00 2020.

 ----------------------------------------------------------------------
 # B3LYP/6-311++G(d,p) empiricaldispersion=gd3bj scf=xqc pop=npa geom=c
 heck
 ----------------------------------------------------------------------

 -------------------------------------
 CID_148939639_JID_4346_Energie_kation
 -------------------------------------
 Structure from the checkpoint file:  "JID_4346.chk"
 Charge =  1 Multiplicity = 2

 SCF Done:  E(UB3LYP) =  -614.501101124     A.U. after   29 cycles
 Normal termination of Gaussian 16 at Thu Dec 10 10:11:47 2020.
 Gaussian 16:  ES64L-G16RevA.03 25-Dec-2016

 ----------------------------------------------------------------------
 # B3LYP/6-311++G(d,p) empiricaldispersion=gd3bj scf=xqc pop=npa geom=c
 heck
 ----------------------------------------------------------------------

 ------------------------------------
 CID_148939639_JID_4346_Energie_anion
 ------------------------------------
 Structure from the checkpoint file:  "JID_4346.chk"
 Charge = -1 Multiplicity = 2

                         Standard orientation:
 ---------------------------------------------------------------------
 Center     Atomic      Atomic             Coordinates (Angstroms)
 Number     Number       Type             X           Y           Z
 ---------------------------------------------------------------------
      1          6           0        3.719049    0.488159   -0.152799
      2          6           0        2.502104   -0.404907   -0.135776
      3          6           0        1.269008    0.057416   -0.437734
      4          6           0        0.066998   -0.844234   -0.640380
      5          6           0       -0.743540   -1.077493    0.634233
      6          6           0       -1.341116    0.182463    1.296712
      7          6           0       -2.157832    0.987259    0.359706
      8          6           0       -2.498256    2.110057   -0.196225
      9          6           0       -3.293885    0.906055   -0.633995
     10          7           0       -1.895270   -2.039063    0.477515
     11          8           0       -2.032642   -2.481260   -0.639623
     12          7           0        0.991171    1.430721   -0.629197
     13          6           0        1.368300    2.407450    0.388250
     14          6           0        2.785581   -1.847193    0.200870
     15          1           0        3.956825    0.920193    0.830273
     16          1           0        3.594653    1.312813   -0.861044
     17          1           0        4.600201   -0.088202   -0.461258
     18          1           0       -0.590573   -0.406460   -1.401901
     19          1           0        0.365700   -1.813876   -1.043408
     20          1           0       -0.123658   -1.570591    1.397369
     21          1           0       -1.979738   -0.151359    2.126104
     22          1           0       -0.535946    0.786479    1.724063
     23          1           0       -2.378045    3.179555   -0.288865
     24          1           0       -3.123378    0.464306   -1.620183
     25          1           0       -4.317628    0.766959   -0.272977
     26          1           0        0.029436    1.570245   -0.910176
     27          1           0        0.737436    3.293414    0.268316
     28          1           0        1.238116    2.024643    1.413445
     29          1           0        2.408837    2.727591    0.289177
     30          1           0        3.475966   -2.295862   -0.528155
     31          1           0        3.280738   -1.926341    1.179640
     32          1           0        1.892423   -2.475233    0.241156
 ---------------------------------------------------------------------

 SCF Done:  E(UB3LYP) =  -614.784675301     A.U. after   32 cycles

 The electronic state is 2-A.
 Alpha  occ. eigenvalues --  -18.92451 -14.19825 -14.15994 -10.08759 -10.07673
 Alpha  occ. eigenvalues --  -10.07365 -10.06216 -10.06083 -10.05554 -10.05246
 Alpha  occ. eigenvalues --  -10.05193 -10.04244 -10.04162 -10.03434  -0.92363
 Alpha  occ. eigenvalues --   -0.80786  -0.75767  -0.68762  -0.66699  -0.61454
 Alpha  occ. eigenvalues --   -0.58079  -0.56553  -0.53491  -0.51303  -0.47829
 Alpha  occ. eigenvalues --   -0.42854  -0.41157  -0.40326  -0.37293  -0.36278
 Alpha  occ. eigenvalues --   -0.34340  -0.33750  -0.32321  -0.31835  -0.31104
 Alpha  occ. eigenvalues --   -0.30859  -0.30052  -0.29084  -0.27792  -0.27083
 Alpha  occ. eigenvalues --   -0.26037  -0.25068  -0.24296  -0.23321  -0.22906
 Alpha  occ. eigenvalues --   -0.21847  -0.19382  -0.18792  -0.17183  -0.16477
 Alpha  occ. eigenvalues --   -0.12957  -0.08205  -0.00955   0.04807
 Alpha virt. eigenvalues --    0.06912   0.07928   0.09001   0.09253   0.10143
 Alpha virt. eigenvalues --    0.10585   0.11039   0.11430   0.11847   0.12504
 Alpha virt. eigenvalues --    0.13284   0.13635   0.13913   0.14530   0.14691

  Beta  occ. eigenvalues --  -18.91501 -14.19823 -14.14923 -10.08743 -10.07676
  Beta  occ. eigenvalues --  -10.07355 -10.06200 -10.06081 -10.05546 -10.05188
  Beta  occ. eigenvalues --  -10.05188 -10.04241 -10.04219 -10.03432  -0.90486
  Beta  occ. eigenvalues --   -0.80781  -0.75737  -0.68719  -0.66504  -0.61389
  Beta  occ. eigenvalues --   -0.58065  -0.56447  -0.53122  -0.50666  -0.47734
  Beta  occ. eigenvalues --   -0.42532  -0.41137  -0.39443  -0.37229  -0.36203
  Beta  occ. eigenvalues --   -0.34270  -0.33536  -0.32167  -0.31805  -0.30957
  Beta  occ. eigenvalues --   -0.30431  -0.29731  -0.29004  -0.27780  -0.26935
  Beta  occ. eigenvalues --   -0.25737  -0.24800  -0.24150  -0.22870  -0.21648
  Beta  occ. eigenvalues --   -0.20834  -0.17985  -0.17330  -0.16932  -0.15739
  Beta  occ. eigenvalues --   -0.12825  -0.08173   0.00130
  Beta virt. eigenvalues --    0.06895   0.07877   0.08932   0.09279   0.10040
  Beta virt. eigenvalues --    0.10542   0.10911   0.11361   0.11736   0.12462
  Beta virt. eigenvalues --    0.13173   0.13572   0.13691   0.14436   0.14613

 Mulliken charges and spin densities:
               1          2
     1  C   -0.357042  -0.326587
     2  C   -0.232473   0.292354
     3  C   -0.476057  -0.022615
     4  C    0.635338   0.041594
     5  C   -0.203766  -0.226969
     6  C    0.352117  -0.123630
     7  C   -0.070644  -0.025514
     8  C   -0.467613   0.062869
     9  C   -0.549251   0.020140
    10  N   -0.182991   0.508933
    11  O   -0.265638   0.306826
    12  N   -0.046048   0.021845
    13  C   -0.098189  -0.320555
    14  C   -0.749316  -0.080683
    15  H    0.050112   0.094207
    16  H    0.107524   0.040137
    17  H    0.092193   0.036964
    18  H    0.157676   0.001669
    19  H    0.183582   0.022743
    20  H    0.117486   0.043744
    21  H    0.125932  -0.015483
    22  H   -0.065794   0.193952
    23  H    0.067131   0.054228
    24  H    0.133669  -0.004146
    25  H    0.107892   0.003567
    26  H    0.259313   0.013165
    27  H    0.037329   0.094770
    28  H    0.035264   0.087145
    29  H    0.008046   0.121515
    30  H    0.085384   0.019524
    31  H    0.081693   0.045571
    32  H    0.127141   0.018721
 Sum of Mulliken charges =  -1.00000   1.00000

 Dipole moment (field-independent basis, Debye):
    X=              4.4043    Y=              5.7432    Z=              0.2047  Tot=              7.2404
 Quadrupole moment (field-independent basis, Debye-Ang):
   XX=           -127.5721   YY=           -119.5180   ZZ=           -102.0536
   XY=            -17.5957   XZ=             -0.5670   YZ=             -1.0338

 Summary of Natural Population Analysis:

                                       Natural Population
                Natural  -----------------------------------------------
    Atom  No    Charge         Core      Valence    Rydberg      Total
 -----------------------------------------------------------------------
      C    1   -0.29476      0.99964     2.29003    0.00509     3.29476
      C    2   -0.06700      0.99945     2.05788    0.00967     3.06700
      C    3    0.09512      0.99940     1.89120    0.01428     2.90488
      C    4   -0.22367      0.99957     2.21100    0.01311     3.22367
      C    5   -0.05589      0.99959     2.03662    0.01969     3.05589
      C    6   -0.22251      0.99954     2.20852    0.01445     3.22251
      C    7    0.02968      0.99948     1.95767    0.01318     2.97032
      C    8   -0.12336      0.99937     2.11669    0.00731     3.12336
      C    9   -0.19333      0.99966     2.18660    0.00706     3.19333
      N   10    0.13747      0.99980     2.33060    0.03213     3.36253
      O   11   -0.10808      0.99990     3.09624    0.01194     4.10808
      N   12   -0.33459      0.99968     2.82366    0.01124     3.83459
      C   13   -0.17497      0.99965     2.16853    0.00679     3.17497
      C   14   -0.28904      0.99964     2.28479    0.00461     3.28904
      H   15    0.09500      0.00000     0.40320    0.00180     0.40500
      H   16    0.10218      0.00000     0.39675    0.00107     0.39782
      H   17    0.09417      0.00000     0.40475    0.00109     0.40583
      H   18    0.10446      0.00000     0.39375    0.00178     0.39554
      H   19    0.11347      0.00000     0.38500    0.00154     0.38653
      H   20    0.09529      0.00000     0.40093    0.00378     0.40471
      H   21    0.11443      0.00000     0.38190    0.00368     0.38557
      H   22    0.10117      0.00000     0.39570    0.00313     0.39883
      H   23    0.09710      0.00000     0.40154    0.00136     0.40290
      H   24    0.08578      0.00000     0.41256    0.00166     0.41422
      H   25    0.07737      0.00000     0.42025    0.00237     0.42263
      H   26    0.18763      0.00000     0.30859    0.00377     0.31237
      H   27    0.09132      0.00000     0.40742    0.00126     0.40868
      H   28    0.08545      0.00000     0.41289    0.00166     0.41455
      H   29    0.08761      0.00000     0.41089    0.00150     0.41239
      H   30    0.09135      0.00000     0.40740    0.00126     0.40865
      H   31    0.09396      0.00000     0.40471    0.00133     0.40604
      H   32    0.10719      0.00000     0.39181    0.00100     0.39281
 =======================================================================
   * Total *    0.00000     13.99436    38.80007    0.20556    53.00000

 Normal termination of Gaussian 16 at Thu Dec 10 10:27:58 2020.
