 Gaussian 16, Revision A.03,

 -----------------------------------------------------------
 # opt freq B3LYP/6-31G(d) empiricaldispersion=gd3bj scf=xqc
 -----------------------------------------------------------

 ------------------------------
 CID_21139046_JID_2788_neutraal
 ------------------------------
 Symbolic Z-matrix:
 Charge =  0 Multiplicity = 1

 SCF Done:  E(RB3LYP) =  -873.945944303     A.U. after   15 cycles
 SCF Done:  E(RB3LYP) =  -873.950954038     A.U. after   12 cycles
 SCF Done:  E(RB3LYP) =  -873.951852571     A.U. after   12 cycles
 SCF Done:  E(RB3LYP) =  -873.952293808     A.U. after   12 cycles
 SCF Done:  E(RB3LYP) =  -873.952616194     A.U. after   12 cycles
 SCF Done:  E(RB3LYP) =  -873.952932519     A.U. after   13 cycles
 SCF Done:  E(RB3LYP) =  -873.953126925     A.U. after   11 cycles
 SCF Done:  E(RB3LYP) =  -873.953315694     A.U. after   12 cycles
 SCF Done:  E(RB3LYP) =  -873.953360653     A.U. after   11 cycles
 SCF Done:  E(RB3LYP) =  -873.953389002     A.U. after   11 cycles
 SCF Done:  E(RB3LYP) =  -873.953397647     A.U. after    7 cycles
 SCF Done:  E(RB3LYP) =  -873.953397788     A.U. after    7 cycles
 SCF Done:  E(RB3LYP) =  -873.953397933     A.U. after    7 cycles
 SCF Done:  E(RB3LYP) =  -873.953398066     A.U. after    7 cycles
 SCF Done:  E(RB3LYP) =  -873.953398149     A.U. after    7 cycles
 Optimization completed.
    -- Stationary point found.
 Normal termination of Gaussian 16 at Wed Dec  9 18:19:20 2020.

 --------------------------------------------------------------------
 #N Geom=AllCheck Guess=TCheck SCRF=Check GenChk RB3LYP/6-31G(d) Freq
 --------------------------------------------------------------------

 Structure from the checkpoint file:  "JID_2788.chk"
 ------------------------------
 CID_21139046_JID_2788_neutraal
 ------------------------------
 Charge =  0 Multiplicity = 1

 SCF Done:  E(RB3LYP) =  -873.953398149     A.U. after    1 cycles

  Exact polarizability: 151.024   2.177 133.628  -2.393   2.549  71.023
 Approx polarizability: 217.566  11.493 236.931  -4.773   5.566 113.879

                      1                      2                      3
                      A                      A                      A
 Frequencies --     47.5879                82.5631               103.6659
 Red. masses --      5.8433                 1.1370                 2.5182
 Frc consts  --      0.0078                 0.0046                 0.0159
 IR Inten    --      1.7362                 0.4601                 1.0443

                      4                      5                      6
                      A                      A                      A
 Frequencies --    149.4635               178.3046               213.3798
 Red. masses --      3.8659                 3.2365                 2.6870
 Frc consts  --      0.0509                 0.0606                 0.0721
 IR Inten    --      1.2101                 4.9495                 2.3969

                      7                      8                      9
                      A                      A                      A
 Frequencies --    229.5004               269.8799               319.4905
 Red. masses --      2.4097                 3.1932                 2.3211
 Frc consts  --      0.0748                 0.1370                 0.1396
 IR Inten    --      2.0198                 4.9534                 1.2655

                     10                     11                     12
                      A                      A                      A
 Frequencies --    366.2830               403.6339               420.6533
 Red. masses --      5.0805                 4.1765                 4.6261
 Frc consts  --      0.4016                 0.4009                 0.4823
 IR Inten    --      1.1372                 1.2697                 0.3384

                     13                     14                     15
                      A                      A                      A
 Frequencies --    477.9224               523.1220               553.6414
 Red. masses --      4.2743                 3.3054                 6.7014
 Frc consts  --      0.5752                 0.5329                 1.2102
 IR Inten    --      0.6913                 0.9256                 0.4244

                     16                     17                     18
                      A                      A                      A
 Frequencies --    587.0920               619.8989               639.1353
 Red. masses --      3.4929                 4.1896                 5.7761
 Frc consts  --      0.7093                 0.9486                 1.3902
 IR Inten    --      2.7986                 0.4401                12.1955

                     19                     20                     21
                      A                      A                      A
 Frequencies --    656.6641               711.6326               814.4595
 Red. masses --      4.8920                 4.3589                 2.0058
 Frc consts  --      1.2429                 1.3006                 0.7839
 IR Inten    --      0.9733                 4.9712                36.1540

                     22                     23                     24
                      A                      A                      A
 Frequencies --    868.7905               897.4356               902.8296
 Red. masses --      1.9203                 1.7428                 2.6938
 Frc consts  --      0.8540                 0.8270                 1.2937
 IR Inten    --      1.9875                 5.7284                 6.4387

                     25                     26                     27
                      A                      A                      A
 Frequencies --   1007.8836              1013.9071              1052.4529
 Red. masses --      2.2858                 2.3098                 2.4496
 Frc consts  --      1.3681                 1.3990                 1.5986
 IR Inten    --      9.9587                 5.6822                20.6820

                     28                     29                     30
                      A                      A                      A
 Frequencies --   1063.7929              1065.3955              1067.1158
 Red. masses --      1.6479                 1.9356                 1.2565
 Frc consts  --      1.0988                 1.2945                 0.8430
 IR Inten    --      7.4361                 3.6140                32.7389

                     31                     32                     33
                      A                      A                      A
 Frequencies --   1103.3391              1178.0095              1193.2825
 Red. masses --      1.9604                 1.9571                 2.3458
 Frc consts  --      1.4061                 1.6002                 1.9680
 IR Inten    --      3.1787                15.5507                62.0380

                     34                     35                     36
                      A                      A                      A
 Frequencies --   1227.0493              1240.6673              1247.8599
 Red. masses --      1.4905                 1.5231                 1.9498
 Frc consts  --      1.3222                 1.3813                 1.7889
 IR Inten    --    111.1270                19.2886                21.2625

                     37                     38                     39
                      A                      A                      A
 Frequencies --   1294.4876              1327.3288              1377.4297
 Red. masses --      1.9569                 1.7516                 1.6754
 Frc consts  --      1.9321                 1.8182                 1.8729
 IR Inten    --     47.9913                17.2017                73.8137

                     40                     41                     42
                      A                      A                      A
 Frequencies --   1400.7625              1410.9655              1415.7406
 Red. masses --      1.4098                 1.7261                 2.5113
 Frc consts  --      1.6298                 2.0246                 2.9657
 IR Inten    --     49.0111                95.4331                23.0813

                     43                     44                     45
                      A                      A                      A
 Frequencies --   1436.0170              1468.5026              1505.5624
 Red. masses --      1.3646                 1.2794                 1.1095
 Frc consts  --      1.6580                 1.6256                 1.4818
 IR Inten    --      2.3147                22.5604                 0.8506

                     46                     47                     48
                      A                      A                      A
 Frequencies --   1505.7640              1506.8619              1517.5016
 Red. masses --      1.0694                 1.1261                 1.1331
 Frc consts  --      1.4286                 1.5066                 1.5373
 IR Inten    --      9.6525                15.3159                 5.8991

                     49                     50                     51
                      A                      A                      A
 Frequencies --   1526.1116              1580.2738              1603.6458
 Red. masses --      1.0978                 5.3773                 6.6488
 Frc consts  --      1.5065                 7.9119                10.0742
 IR Inten    --      3.0869                56.2006                72.1596

                     52                     53                     54
                      A                      A                      A
 Frequencies --   1710.6491              3034.4828              3041.7702
 Red. masses --      7.5458                 1.0683                 1.0693
 Frc consts  --     13.0099                 5.7960                 5.8293
 IR Inten    --    267.3569                21.5050                41.2280

                     55                     56                     57
                      A                      A                      A
 Frequencies --   3053.2301              3061.6386              3084.4418
 Red. masses --      1.0372                 1.0624                 1.0924
 Frc consts  --      5.6971                 5.8674                 6.1230
 IR Inten    --     24.1799                19.2167                24.5553

                     58                     59                     60
                      A                      A                      A
 Frequencies --   3107.2529              3109.0589              3125.6835
 Red. masses --      1.1016                 1.1042                 1.0969
 Frc consts  --      6.2664                 6.2889                 6.3138
 IR Inten    --     10.8244                39.4490                 7.6383

                     61                     62                     63
                      A                      A                      A
 Frequencies --   3141.6713              3156.5183              3460.7652
 Red. masses --      1.0892                 1.1006                 1.0736
 Frc consts  --      6.3342                 6.4608                 7.5760
 IR Inten    --     50.6703                 4.4653                 5.2301

 - Thermochemistry -
 -------------------
 Temperature   298.150 Kelvin.  Pressure   1.00000 Atm.
 Atom     1 has atomic number  6 and mass  12.00000

 Molecular mass:   181.06737 amu.
 Principal axes and moments of inertia in atomic units:
                           1         2         3
     Eigenvalues --  1446.661932411.220963688.43579
           X            0.99926  -0.03814  -0.00424
           Y            0.03814   0.99927   0.00022
           Z            0.00423  -0.00038   0.99999
 This molecule is an asymmetric top.
 Rotational symmetry number  1.
 Warning -- assumption of classical behavior for rotation
           may cause significant error
 Rotational temperatures (Kelvin)      0.05987     0.03592     0.02348
 Rotational constants (GHZ):           1.24752     0.74848     0.48930
 Zero-point vibrational energy     493231.7 (Joules/Mol)
                                  117.88521 (Kcal/Mol)
 Warning -- explicit consideration of  17 degrees of freedom as
           vibrations may cause significant error
 Vibrational temperatures:     68.47   118.79   149.15   215.04   256.54
          (Kelvin)            307.01   330.20   388.30   459.68   527.00
                              580.74   605.23   687.62   752.66   796.57
                              844.69   891.90   919.57   944.79  1023.88
                             1171.83  1250.00  1291.21  1298.97  1450.12
                             1458.79  1514.25  1530.56  1532.87  1535.34
                             1587.46  1694.89  1716.87  1765.45  1785.04
                             1795.39  1862.48  1909.73  1981.81  2015.38
                             2030.06  2036.93  2066.11  2112.85  2166.17
                             2166.46  2168.04  2183.35  2195.73  2273.66
                             2307.29  2461.24  4365.94  4376.43  4392.92
                             4405.02  4437.82  4470.64  4473.24  4497.16
                             4520.16  4541.53  4979.27

 Zero-point correction=                           0.187862 (Hartree/Particle)
 Thermal correction to Energy=                    0.199081
 Thermal correction to Enthalpy=                  0.200025
 Thermal correction to Gibbs Free Energy=         0.150284
 Sum of electronic and zero-point Energies=           -873.765536
 Sum of electronic and thermal Energies=              -873.754318
 Sum of electronic and thermal Enthalpies=            -873.753373
 Sum of electronic and thermal Free Energies=         -873.803114

                     E (Thermal)             CV                S
                      KCal/Mol        Cal/Mol-Kelvin    Cal/Mol-Kelvin
 Total                  124.925             42.177            104.688
 Electronic               0.000              0.000              0.000
 Translational            0.889              2.981             41.488
 Rotational               0.889              2.981             30.932
 Vibrational            123.147             36.215             32.268
 Vibration     1          0.595              1.978              4.915
 Vibration     2          0.600              1.961              3.829
 Vibration     3          0.605              1.946              3.384
 Vibration     4          0.618              1.903              2.679
 Vibration     5          0.629              1.869              2.346
 Vibration     6          0.644              1.821              2.015
 Vibration     7          0.652              1.796              1.883
 Vibration     8          0.674              1.729              1.597
 Vibration     9          0.705              1.636              1.313
 Vibration    10          0.739              1.542              1.095
 Vibration    11          0.769              1.462              0.949
 Vibration    12          0.783              1.425              0.890
 Vibration    13          0.834              1.299              0.716
 Vibration    14          0.878              1.199              0.603
 Vibration    15          0.909              1.132              0.537
 Vibration    16          0.944              1.059              0.472
 Vibration    17          0.980              0.990              0.417

 Optimization completed.
    -- Stationary point found.
 Normal termination of Gaussian 16 at Wed Dec  9 18:24:53 2020.

 ----------------------------------------------------------------------
 # B3LYP/6-311++G(d,p) empiricaldispersion=gd3bj scf=xqc pop=npa geom=c
 heck
 ----------------------------------------------------------------------

 --------------------------------------
 CID_21139046_JID_2788_Energie_neutraal
 --------------------------------------
 Structure from the checkpoint file:  "JID_2788.chk"
 Charge =  0 Multiplicity = 1

 SCF Done:  E(RB3LYP) =  -874.108737821     A.U. after   16 cycles
 Normal termination of Gaussian 16 at Wed Dec  9 18:27:05 2020.

 ----------------------------------------------------------------------
 # B3LYP/6-311++G(d,p) empiricaldispersion=gd3bj scf=xqc pop=npa geom=c
 heck
 ----------------------------------------------------------------------

 ------------------------------------
 CID_21139046_JID_2788_Energie_kation
 ------------------------------------
 Structure from the checkpoint file:  "JID_2788.chk"
 Charge =  1 Multiplicity = 2

 SCF Done:  E(UB3LYP) =  -873.830384339     A.U. after   22 cycles
 Normal termination of Gaussian 16 at Wed Dec  9 18:31:00 2020.
 Gaussian 16:  ES64L-G16RevA.03 25-Dec-2016

 ----------------------------------------------------------------------
 # B3LYP/6-311++G(d,p) empiricaldispersion=gd3bj scf=xqc pop=npa geom=c
 heck
 ----------------------------------------------------------------------

 -----------------------------------
 CID_21139046_JID_2788_Energie_anion
 -----------------------------------
 Structure from the checkpoint file:  "JID_2788.chk"
 Charge = -1 Multiplicity = 2

                         Standard orientation:
 ---------------------------------------------------------------------
 Center     Atomic      Atomic             Coordinates (Angstroms)
 Number     Number       Type             X           Y           Z
 ---------------------------------------------------------------------
      1          6           0       -3.755298   -0.007004    0.032919
      2          6           0       -2.269830   -0.175427   -0.009250
      3          7           0       -1.645440   -1.303393    0.142736
      4          6           0       -0.275671   -1.153520    0.104640
      5          6           0        0.168721    0.132418   -0.080823
      6         16           0       -1.200517    1.221707   -0.242966
      7          7           0        1.505427    0.474646   -0.270067
      8          6           0        2.362717   -0.665366   -0.623107
      9          6           0        2.112336   -1.842696    0.328095
     10          6           0        0.655802   -2.325975    0.223085
     11          6           0        2.070544    1.701129    0.065302
     12          7           0        1.554871    2.744663    0.585646
     13          1           0       -4.063393    0.634063    0.867324
     14          1           0       -4.208426   -0.992615    0.162022
     15          1           0       -4.140230    0.441032   -0.890204
     16          1           0        3.401976   -0.332289   -0.571819
     17          1           0        2.148804   -0.964463   -1.657908
     18          1           0        2.805027   -2.658494    0.095422
     19          1           0        2.326313   -1.511305    1.351067
     20          1           0        0.531691   -2.978430   -0.652399
     21          1           0        0.386961   -2.932075    1.095983
     22          1           0        3.129009    1.731617   -0.201772
     23          1           0        0.570613    2.622889    0.836387
 ---------------------------------------------------------------------

 SCF Done:  E(UB3LYP) =  -874.097886171     A.U. after   33 cycles
 SCF Done:  E(UB3LYP) =  -874.097886171     a.u. after    1 cycles

 The electronic state is 2-A.
 Alpha  occ. eigenvalues --  -88.75828 -14.24643 -14.19041 -14.16672 -10.12809
 Alpha  occ. eigenvalues --  -10.10978 -10.10932 -10.10196 -10.07949 -10.07639
 Alpha  occ. eigenvalues --  -10.06406 -10.06333  -7.84476  -5.80765  -5.80428
 Alpha  occ. eigenvalues --   -5.80047  -0.87421  -0.83726  -0.76886  -0.69342
 Alpha  occ. eigenvalues --   -0.67317  -0.65683  -0.60578  -0.56494  -0.52623
 Alpha  occ. eigenvalues --   -0.49201  -0.45458  -0.41955  -0.39749  -0.37692
 Alpha  occ. eigenvalues --   -0.36009  -0.34679  -0.33536  -0.32720  -0.31962
 Alpha  occ. eigenvalues --   -0.30566  -0.29069  -0.27938  -0.26956  -0.24815
 Alpha  occ. eigenvalues --   -0.23973  -0.23605  -0.22945  -0.17789  -0.16632
 Alpha  occ. eigenvalues --   -0.15659  -0.14594  -0.09169   0.04928
 Alpha virt. eigenvalues --    0.06786   0.07265   0.08855   0.09417   0.10066
 Alpha virt. eigenvalues --    0.10333   0.10722   0.11747   0.11895   0.12271
 Alpha virt. eigenvalues --    0.12655   0.13273   0.13448   0.14145   0.15141

  Beta  occ. eigenvalues --  -88.75806 -14.24681 -14.19028 -14.16609 -10.12765
  Beta  occ. eigenvalues --  -10.10764 -10.10724 -10.10157 -10.07925 -10.07651
  Beta  occ. eigenvalues --  -10.06394 -10.06296  -7.84456  -5.80753  -5.80422
  Beta  occ. eigenvalues --   -5.79972  -0.87338  -0.83564  -0.76777  -0.69234
  Beta  occ. eigenvalues --   -0.67158  -0.65520  -0.60499  -0.56375  -0.52498
  Beta  occ. eigenvalues --   -0.49073  -0.45262  -0.41843  -0.39640  -0.37597
  Beta  occ. eigenvalues --   -0.35890  -0.34566  -0.33194  -0.32592  -0.31892
  Beta  occ. eigenvalues --   -0.30492  -0.28878  -0.27825  -0.26829  -0.24536
  Beta  occ. eigenvalues --   -0.23905  -0.23485  -0.22806  -0.17269  -0.16489
  Beta  occ. eigenvalues --   -0.15576  -0.14299  -0.08608
  Beta virt. eigenvalues --    0.07147   0.08057   0.08567   0.09416   0.09873
  Beta virt. eigenvalues --    0.10401   0.10596   0.11033   0.11942   0.12157
  Beta virt. eigenvalues --    0.12618   0.12850   0.13583   0.13743   0.14321

 Mulliken charges and spin densities:
               1          2
     1  C    0.775047  -0.872226
     2  C   -0.128528   0.435013
     3  N    0.026530   0.031657
     4  C   -0.691181   0.091341
     5  C    0.436862  -0.306388
     6  S   -0.162499  -0.189678
     7  N    0.193785   0.138792
     8  C    0.595317  -0.930140
     9  C    0.023554  -0.125450
    10  C   -0.452549  -0.318654
    11  C    0.036468  -0.048024
    12  N   -0.340131   0.013262
    13  H   -0.108554   0.275184
    14  H    0.107167   0.045014
    15  H    0.149397  -0.002071
    16  H   -0.657813   0.826377
    17  H   -0.038531   0.194372
    18  H   -1.082224   1.269767
    19  H    0.194549  -0.050170
    20  H    0.000684   0.169691
    21  H   -0.041385   0.197690
    22  H    0.053582   0.101316
    23  H    0.110453   0.053325
 Sum of Mulliken charges =  -1.00000   1.00000

 Dipole moment (field-independent basis, Debye):
    X=             -5.6387    Y=              1.9858    Z=             -0.6470  Tot=              6.0130
 Quadrupole moment (field-independent basis, Debye-Ang):
   XX=           -136.1819   YY=           -129.7747   ZZ=            -98.0432
   XY=              7.6243   XZ=              5.1709   YZ=             -6.4609

 Summary of Natural Population Analysis:

                                       Natural Population
                Natural  -----------------------------------------------
    Atom  No    Charge         Core      Valence    Rydberg      Total
 -----------------------------------------------------------------------
      C    1   -0.30935      0.99961     2.30409    0.00565     3.30935
      C    2    0.07984      0.99963     1.90460    0.01593     2.92016
      N    3   -0.24760      0.99963     2.73724    0.01074     3.74760
      C    4    0.04817      0.99942     1.93876    0.01365     2.95183
      C    5    0.01473      0.99935     1.97249    0.01343     2.98527
      S    6    0.16159      4.99942     2.82005    0.01895     7.83841
      N    7   -0.25777      0.99961     2.74671    0.01145     3.75777
      C    8   -0.07375      0.99961     2.06300    0.01114     3.07375
      C    9   -0.19414      0.99963     2.18548    0.00903     3.19414
      C   10   -0.19631      0.99960     2.18679    0.00992     3.19631
      C   11    0.16009      0.99968     1.82217    0.01806     2.83991
      N   12   -0.35419      0.99974     2.84548    0.00897     3.85419
      H   13    0.10709      0.00000     0.39113    0.00177     0.39291
      H   14    0.11087      0.00000     0.38786    0.00126     0.38913
      H   15    0.10225      0.00000     0.39684    0.00092     0.39775
      H   16    0.10312      0.00000     0.39441    0.00246     0.39688
      H   17    0.09377      0.00000     0.40469    0.00154     0.40623
      H   18    0.10700      0.00000     0.38837    0.00463     0.39300
      H   19    0.09728      0.00000     0.40134    0.00137     0.40272
      H   20    0.10297      0.00000     0.39543    0.00160     0.39703
      H   21    0.10512      0.00000     0.39355    0.00133     0.39488
      H   22    0.07638      0.00000     0.42191    0.00171     0.42362
      H   23    0.16284      0.00000     0.33425    0.00291     0.33716
 =======================================================================
   * Total *   -0.00000     15.99494    31.83664    0.16842    48.00000

 Normal termination of Gaussian 16 at Wed Dec  9 18:36:21 2020.
