 Gaussian 16, Revision A.03,

 -----------------------------------------------------------
 # opt freq B3LYP/6-31G(d) empiricaldispersion=gd3bj scf=xqc
 -----------------------------------------------------------

 ------------------------------
 CID_63218297_JID_6695_neutraal
 ------------------------------
 Symbolic Z-matrix:
 Charge =  0 Multiplicity = 1

 SCF Done:  E(RB3LYP) =  -697.005940685     A.U. after   13 cycles
 SCF Done:  E(RB3LYP) =  -697.011096821     A.U. after   11 cycles
 SCF Done:  E(RB3LYP) =  -697.011936351     A.U. after   11 cycles
 SCF Done:  E(RB3LYP) =  -697.012047164     A.U. after   10 cycles
 SCF Done:  E(RB3LYP) =  -697.012439629     A.U. after   10 cycles
 SCF Done:  E(RB3LYP) =  -697.012354040     A.U. after   10 cycles
 SCF Done:  E(RB3LYP) =  -697.012529922     A.U. after   10 cycles
 SCF Done:  E(RB3LYP) =  -697.012657372     A.U. after   10 cycles
 SCF Done:  E(RB3LYP) =  -697.012700185     A.U. after   10 cycles
 SCF Done:  E(RB3LYP) =  -697.012725319     A.U. after    9 cycles
 SCF Done:  E(RB3LYP) =  -697.012731713     A.U. after    8 cycles
 SCF Done:  E(RB3LYP) =  -697.012734917     A.U. after    9 cycles
 SCF Done:  E(RB3LYP) =  -697.012735541     A.U. after    7 cycles
 SCF Done:  E(RB3LYP) =  -697.012736352     A.U. after    8 cycles
 SCF Done:  E(RB3LYP) =  -697.012736509     A.U. after    7 cycles
 Optimization completed.
    -- Stationary point found.
 Normal termination of Gaussian 16 at Thu Dec 10 22:59:02 2020.

 --------------------------------------------------------------------
 #N Geom=AllCheck Guess=TCheck SCRF=Check GenChk RB3LYP/6-31G(d) Freq
 --------------------------------------------------------------------

 Structure from the checkpoint file:  "JID_6695.chk"
 ------------------------------
 CID_63218297_JID_6695_neutraal
 ------------------------------
 Charge =  0 Multiplicity = 1

 SCF Done:  E(RB3LYP) =  -697.012736509     A.U. after    1 cycles

  Exact polarizability: 167.866   2.272 150.443  -1.682  -0.472 140.186
 Approx polarizability: 212.664   0.558 209.774   1.765  -2.305 202.781

                      1                      2                      3
                      A                      A                      A
 Frequencies --     15.7917                40.7664                53.8650
 Red. masses --      3.9845                 3.1900                 2.8855
 Frc consts  --      0.0006                 0.0031                 0.0049
 IR Inten    --      0.1623                 0.1396                 0.8528

                      4                      5                      6
                      A                      A                      A
 Frequencies --     70.6175                85.5639                97.7488
 Red. masses --      3.0349                 2.5462                 2.8432
 Frc consts  --      0.0089                 0.0110                 0.0160
 IR Inten    --      0.7192                 1.5277                 2.2494

                      7                      8                      9
                      A                      A                      A
 Frequencies --    130.8997               155.9730               159.3717
 Red. masses --      2.1326                 2.0643                 3.1316
 Frc consts  --      0.0215                 0.0296                 0.0469
 IR Inten    --      0.4002                 0.0276                 1.4020

                     10                     11                     12
                      A                      A                      A
 Frequencies --    201.8077               215.4746               223.4266
 Red. masses --      2.7591                 1.2580                 2.1884
 Frc consts  --      0.0662                 0.0344                 0.0644
 IR Inten    --      0.4518                 1.2059                 2.8239

                     13                     14                     15
                      A                      A                      A
 Frequencies --    236.9619               251.8761               267.9412
 Red. masses --      1.6072                 1.3737                 1.4790
 Frc consts  --      0.0532                 0.0513                 0.0626
 IR Inten    --      1.1422                 0.5811                 1.2417

                     16                     17                     18
                      A                      A                      A
 Frequencies --    275.6796               292.1740               312.9483
 Red. masses --      1.7526                 2.0942                 2.3694
 Frc consts  --      0.0785                 0.1053                 0.1367
 IR Inten    --      2.0962                 2.8855                 0.1300

                     19                     20                     21
                      A                      A                      A
 Frequencies --    324.8431               355.7664               365.4762
 Red. masses --      1.5481                 2.1959                 2.2262
 Frc consts  --      0.0963                 0.1638                 0.1752
 IR Inten    --      0.6619                 4.4539                 0.3453

                     22                     23                     24
                      A                      A                      A
 Frequencies --    389.8028               397.6139               462.8793
 Red. masses --      2.3222                 2.0136                 2.0429
 Frc consts  --      0.2079                 0.1876                 0.2579
 IR Inten    --      0.3917                 1.7680                 1.9188

                     25                     26                     27
                      A                      A                      A
 Frequencies --    470.1409               490.4500               542.8752
 Red. masses --      2.4792                 2.8891                 2.5889
 Frc consts  --      0.3229                 0.4094                 0.4495
 IR Inten    --      0.2607                 5.5213                 1.1394

                     28                     29                     30
                      A                      A                      A
 Frequencies --    576.7703               599.4455               662.1293
 Red. masses --      2.7716                 2.9636                 2.9545
 Frc consts  --      0.5432                 0.6274                 0.7632
 IR Inten    --      7.0368                 0.1578                 2.1428

                     31                     32                     33
                      A                      A                      A
 Frequencies --    693.9948               722.9635               777.5454
 Red. masses --      1.4462                 2.5789                 1.5937
 Frc consts  --      0.4104                 0.7942                 0.5677
 IR Inten    --     66.7331                 8.0727                 2.9008

                     34                     35                     36
                      A                      A                      A
 Frequencies --    799.4251               858.7286               872.7664
 Red. masses --      1.9616                 2.3874                 2.0433
 Frc consts  --      0.7386                 1.0372                 0.9170
 IR Inten    --      3.4129                 0.3980                 2.5969

                     37                     38                     39
                      A                      A                      A
 Frequencies --    884.4361               922.4864               928.1640
 Red. masses --      2.1237                 1.7885                 2.0789
 Frc consts  --      0.9788                 0.8967                 1.0552
 IR Inten    --      5.3726                 1.2458                19.8192

                     40                     41                     42
                      A                      A                      A
 Frequencies --    938.9203               951.3236               953.2501
 Red. masses --      1.5681                 1.5836                 1.7924
 Frc consts  --      0.8145                 0.8444                 0.9596
 IR Inten    --      4.0615                 1.2409                 1.5407

                     43                     44                     45
                      A                      A                      A
 Frequencies --    962.7805               989.2941              1019.5579
 Red. masses --      2.2465                 1.5982                 1.4635
 Frc consts  --      1.2269                 0.9216                 0.8963
 IR Inten    --      2.8559                 8.5783                 1.5462

                     46                     47                     48
                      A                      A                      A
 Frequencies --   1026.9071              1043.4382              1055.1633
 Red. masses --      1.5423                 2.3220                 2.0158
 Frc consts  --      0.9583                 1.4895                 1.3223
 IR Inten    --      3.4728                13.4367                 2.4429

                     49                     50                     51
                      A                      A                      A
 Frequencies --   1078.9614              1090.8084              1099.7845
 Red. masses --      2.0044                 1.6822                 2.5451
 Frc consts  --      1.3748                 1.1793                 1.8137
 IR Inten    --      3.7096                 5.8346                 3.2682

                     52                     53                     54
                      A                      A                      A
 Frequencies --   1115.1901              1141.8977              1161.8633
 Red. masses --      2.4429                 2.1433                 2.0172
 Frc consts  --      1.7900                 1.6466                 1.6044
 IR Inten    --     12.4040                45.4573                24.5148

                     55                     56                     57
                      A                      A                      A
 Frequencies --   1170.0550              1172.6694              1187.7575
 Red. masses --      1.8703                 4.5633                 1.8013
 Frc consts  --      1.5086                 3.6973                 1.4972
 IR Inten    --     23.2373               118.4746                 6.0964

                     58                     59                     60
                      A                      A                      A
 Frequencies --   1194.8057              1209.2549              1226.6007
 Red. masses --      1.3361                 2.2956                 1.6004
 Frc consts  --      1.1238                 1.9778                 1.4187
 IR Inten    --      8.3084                10.3016                29.4620

                     61                     62                     63
                      A                      A                      A
 Frequencies --   1231.9284              1252.4770              1265.1013
 Red. masses --      2.7744                 1.5926                 1.5261
 Frc consts  --      2.4808                 1.4720                 1.4390
 IR Inten    --     72.3356                14.4870                15.4223

                     64                     65                     66
                      A                      A                      A
 Frequencies --   1267.3110              1275.0933              1285.6081
 Red. masses --      1.3829                 1.5199                 1.3601
 Frc consts  --      1.3086                 1.4560                 1.3244
 IR Inten    --      4.4421                 4.3411                21.3841

                     67                     68                     69
                      A                      A                      A
 Frequencies --   1294.6204              1307.5969              1332.2485
 Red. masses --      1.5321                 1.2628                 1.1635
 Frc consts  --      1.5130                 1.2721                 1.2167
 IR Inten    --      9.0428                 0.3631                 7.7462

                     70                     71                     72
                      A                      A                      A
 Frequencies --   1353.4521              1363.2323              1373.1168
 Red. masses --      1.4524                 1.3722                 1.4780
 Frc consts  --      1.5675                 1.5024                 1.6418
 IR Inten    --      4.8647                 9.9862                 8.7495

                     73                     74                     75
                      A                      A                      A
 Frequencies --   1388.6331              1392.5108              1410.4159
 Red. masses --      1.3808                 1.3187                 1.3038
 Frc consts  --      1.5687                 1.5066                 1.5281
 IR Inten    --     14.8675                15.8751                 5.7587

                     76                     77                     78
                      A                      A                      A
 Frequencies --   1413.4593              1418.5652              1426.6453
 Red. masses --      1.2712                 1.3449                 1.2629
 Frc consts  --      1.4963                 1.5945                 1.5145
 IR Inten    --      3.6627                 2.7507                 8.4624

                     79                     80                     81
                      A                      A                      A
 Frequencies --   1439.2535              1443.6105              1448.9245
 Red. masses --      1.3654                 1.2781                 1.2814
 Frc consts  --      1.6665                 1.5693                 1.5850
 IR Inten    --      9.0246                12.6885                12.1792

                     82                     83                     84
                      A                      A                      A
 Frequencies --   1496.4009              1502.0136              1505.8988
 Red. masses --      1.1321                 1.1575                 1.1664
 Frc consts  --      1.4935                 1.5386                 1.5584
 IR Inten    --     22.1817                39.4872                20.5840

                     85                     86                     87
                      A                      A                      A
 Frequencies --   1511.0597              1514.1876              1514.3388
 Red. masses --      1.0755                 1.0496                 1.0541
 Frc consts  --      1.4468                 1.4179                 1.4242
 IR Inten    --      1.4821                 4.5678                 0.9255

                     88                     89                     90
                      A                      A                      A
 Frequencies --   1519.8781              1521.4540              1525.1415
 Red. masses --      1.1111                 1.0811                 1.0595
 Frc consts  --      1.5122                 1.4745                 1.4521
 IR Inten    --     10.5601                24.9472                 0.2920

                     91                     92                     93
                      A                      A                      A
 Frequencies --   1532.8417              1533.8962              1536.2716
 Red. masses --      1.0593                 1.0620                 1.0743
 Frc consts  --      1.4665                 1.4723                 1.4938
 IR Inten    --      7.3260                 6.8601                 5.6538

                     94                     95                     96
                      A                      A                      A
 Frequencies --   1542.9406              1550.9019              1557.2510
 Red. masses --      1.0654                 1.0705                 1.0672
 Frc consts  --      1.4944                 1.5170                 1.5248
 IR Inten    --      4.8229                 4.3263                 3.7380

                     97                     98                     99
                      A                      A                      A
 Frequencies --   1560.1646              1569.5711              2910.2783
 Red. masses --      1.0823                 1.0874                 1.0810
 Frc consts  --      1.5522                 1.5783                 5.3945
 IR Inten    --      5.6478                 3.1360                62.7950

                    100                    101                    102
                      A                      A                      A
 Frequencies --   2960.6890              2967.1591              2985.6090
 Red. masses --      1.0749                 1.0515                 1.0416
 Frc consts  --      5.5514                 5.4544                 5.4704
 IR Inten    --     45.6863                40.9077                78.0266

                    103                    104                    105
                      A                      A                      A
 Frequencies --   2993.4094              3006.5992              3023.7193
 Red. masses --      1.1035                 1.0684                 1.1046
 Frc consts  --      5.8259                 5.6904                 5.9502
 IR Inten    --     90.6356                91.2229                73.2579

                    106                    107                    108
                      A                      A                      A
 Frequencies --   3038.8849              3045.6533              3051.5100
 Red. masses --      1.0910                 1.0644                 1.0367
 Frc consts  --      5.9363                 5.8173                 5.6878
 IR Inten    --     31.3151                17.0394                24.4479

                    109                    110                    111
                      A                      A                      A
 Frequencies --   3055.1082              3055.7104              3063.4467
 Red. masses --      1.0435                 1.0636                 1.0568
 Frc consts  --      5.7382                 5.8511                 5.8432
 IR Inten    --      5.6976                66.5260                35.4554

                    112                    113                    114
                      A                      A                      A
 Frequencies --   3072.5959              3073.7731              3085.1868
 Red. masses --      1.0449                 1.0621                 1.1026
 Frc consts  --      5.8122                 5.9122                 6.1834
 IR Inten    --     49.9767                12.0794                37.2870

                    115                    116                    117
                      A                      A                      A
 Frequencies --   3090.6417              3101.2473              3104.9130
 Red. masses --      1.0905                 1.1018                 1.0997
 Frc consts  --      6.1370                 6.2436                 6.2461
 IR Inten    --     10.8323                49.8383                16.2977

                    118                    119                    120
                      A                      A                      A
 Frequencies --   3115.3605              3118.7180              3120.0218
 Red. masses --      1.1013                 1.1013                 1.1040
 Frc consts  --      6.2978                 6.3112                 6.3318
 IR Inten    --      7.5591                50.4796                56.9801

                    121                    122                    123
                      A                      A                      A
 Frequencies --   3125.5811              3134.5395              3134.7722
 Red. masses --      1.1019                 1.0960                 1.0979
 Frc consts  --      6.3423                 6.3449                 6.3566
 IR Inten    --     57.2550                39.0797                19.7390

                    124                    125                    126
                      A                      A                      A
 Frequencies --   3156.5395              3164.0869              3521.6897
 Red. masses --      1.0973                 1.1004                 1.0739
 Frc consts  --      6.4418                 6.4907                 7.8475
 IR Inten    --     13.4859                37.3821                24.0610

 - Thermochemistry -
 -------------------
 Temperature   298.150 Kelvin.  Pressure   1.00000 Atm.
 Atom     1 has atomic number  6 and mass  12.00000

 Molecular mass:   228.22016 amu.
 Principal axes and moments of inertia in atomic units:
                           1         2         3
     Eigenvalues --  2460.643946061.319256642.41813
           X            1.00000  -0.00062  -0.00188
           Y            0.00062   0.99999  -0.00454
           Z            0.00189   0.00454   0.99999
 This molecule is an asymmetric top.
 Rotational symmetry number  1.
 Warning -- assumption of classical behavior for rotation
           may cause significant error
 Rotational temperatures (Kelvin)      0.03520     0.01429     0.01304
 Rotational constants (GHZ):           0.73344     0.29775     0.27170
 Zero-point vibrational energy    1074445.9 (Joules/Mol)
                                  256.79874 (Kcal/Mol)
 Warning -- explicit consideration of  29 degrees of freedom as
           vibrations may cause significant error
 Vibrational temperatures:     22.72    58.65    77.50   101.60   123.11
          (Kelvin)            140.64   188.34   224.41   229.30   290.36
                              310.02   321.46   340.94   362.39   385.51
                              396.64   420.37   450.26   467.38   511.87
                              525.84   560.84   572.08   665.98   676.43
                              705.65   781.08   829.84   862.47   952.66
                              998.50  1040.18  1118.71  1150.19  1235.52
                             1255.72  1272.51  1327.25  1335.42  1350.90
                             1368.74  1371.51  1385.23  1423.37  1466.92
                             1477.49  1501.27  1518.14  1552.38  1569.43
                             1582.34  1604.51  1642.94  1671.66  1683.45
                             1687.21  1708.92  1719.06  1739.85  1764.80
                             1772.47  1802.04  1820.20  1823.38  1834.57
                             1849.70  1862.67  1881.34  1916.81  1947.32
                             1961.39  1975.61  1997.93  2003.51  2029.27
                             2033.65  2041.00  2052.62  2070.76  2077.03
                             2084.68  2152.99  2161.06  2166.65  2174.08
                             2178.58  2178.80  2186.77  2189.03  2194.34
                             2205.42  2206.93  2210.35  2219.95  2231.40
                             2240.54  2244.73  2258.26  4187.24  4259.77
                             4269.08  4295.63  4306.85  4325.83  4350.46
                             4372.28  4382.02  4390.44  4395.62  4396.49
                             4407.62  4420.78  4422.47  4438.90  4446.74
                             4462.00  4467.28  4482.31  4487.14  4489.02
                             4497.01  4509.90  4510.24  4541.56  4552.42
                             5066.93

 Zero-point correction=                           0.409235 (Hartree/Particle)
 Thermal correction to Energy=                    0.427876
 Thermal correction to Enthalpy=                  0.428820
 Thermal correction to Gibbs Free Energy=         0.362015
 Sum of electronic and zero-point Energies=           -696.603502
 Sum of electronic and thermal Energies=              -696.584860
 Sum of electronic and thermal Enthalpies=            -696.583916
 Sum of electronic and thermal Free Energies=         -696.650722

                     E (Thermal)             CV                S
                      KCal/Mol        Cal/Mol-Kelvin    Cal/Mol-Kelvin
 Total                  268.496             70.785            140.604
 Electronic               0.000              0.000              0.000
 Translational            0.889              2.981             42.178
 Rotational               0.889              2.981             32.960
 Vibrational            266.719             64.823             65.467
 Vibration     1          0.593              1.986              7.103
 Vibration     2          0.594              1.981              5.221
 Vibration     3          0.596              1.976              4.670
 Vibration     4          0.598              1.968              4.136
 Vibration     5          0.601              1.959              3.759
 Vibration     6          0.603              1.951              3.499
 Vibration     7          0.612              1.922              2.933
 Vibration     8          0.620              1.896              2.598
 Vibration     9          0.621              1.892              2.557
 Vibration    10          0.639              1.837              2.117
 Vibration    11          0.645              1.817              1.997
 Vibration    12          0.649              1.805              1.931
 Vibration    13          0.656              1.784              1.826
 Vibration    14          0.664              1.760              1.717
 Vibration    15          0.673              1.732              1.609
 Vibration    16          0.677              1.718              1.560
 Vibration    17          0.688              1.688              1.461
 Vibration    18          0.701              1.649              1.347
 Vibration    19          0.709              1.626              1.286
 Vibration    20          0.731              1.563              1.141
 Vibration    21          0.739              1.543              1.099
 Vibration    22          0.758              1.492              1.001
 Vibration    23          0.764              1.475              0.971
 Vibration    24          0.821              1.332              0.758
 Vibration    25          0.827              1.316              0.737
 Vibration    26          0.846              1.271              0.682
 Vibration    27          0.898              1.155              0.559
 Vibration    28          0.933              1.082              0.491
 Vibration    29          0.958              1.033              0.451

                           ! Non-Optimized Parameters !
 Normal termination of Gaussian 16 at Thu Dec 10 23:16:34 2020.

 ----------------------------------------------------------------------
 # B3LYP/6-311++G(d,p) empiricaldispersion=gd3bj scf=xqc pop=npa geom=c
 heck
 ----------------------------------------------------------------------

 --------------------------------------
 CID_63218297_JID_6695_Energie_neutraal
 --------------------------------------
 Structure from the checkpoint file:  "JID_6695.chk"
 Charge =  0 Multiplicity = 1

 SCF Done:  E(RB3LYP) =  -697.211871854     A.U. after   14 cycles
 Normal termination of Gaussian 16 at Thu Dec 10 23:24:28 2020.

 ----------------------------------------------------------------------
 # B3LYP/6-311++G(d,p) empiricaldispersion=gd3bj scf=xqc pop=npa geom=c
 heck
 ----------------------------------------------------------------------

 ------------------------------------
 CID_63218297_JID_6695_Energie_kation
 ------------------------------------
 Structure from the checkpoint file:  "JID_6695.chk"
 Charge =  1 Multiplicity = 2

 SCF Done:  E(UB3LYP) =  -696.940792422     A.U. after   23 cycles
 Normal termination of Gaussian 16 at Thu Dec 10 23:41:36 2020.
 Gaussian 16:  ES64L-G16RevA.03 25-Dec-2016

 ----------------------------------------------------------------------
 # B3LYP/6-311++G(d,p) empiricaldispersion=gd3bj scf=xqc pop=npa geom=c
 heck
 ----------------------------------------------------------------------

 -----------------------------------
 CID_63218297_JID_6695_Energie_anion
 -----------------------------------
 Structure from the checkpoint file:  "JID_6695.chk"
 Charge = -1 Multiplicity = 2

                         Standard orientation:
 ---------------------------------------------------------------------
 Center     Atomic      Atomic             Coordinates (Angstroms)
 Number     Number       Type             X           Y           Z
 ---------------------------------------------------------------------
      1          6           0        0.260337   -0.762082    2.034892
      2          6           0        0.900125   -1.298991    0.751854
      3          6           0       -0.111524   -2.167780   -0.046580
      4          7           0       -0.999758   -1.385461   -0.900205
      5          6           0       -2.433465   -1.577385   -0.751643
      6          6           0       -3.079498   -1.008661    0.527353
      7          6           0       -3.027978    0.511286    0.589776
      8          8           0       -3.786233    1.036425   -0.485560
      9          6           0       -3.714253    2.441076   -0.560833
     10          7           0        1.416672   -0.258822   -0.146303
     11          6           0        2.086120   -0.856865   -1.322311
     12          6           0        3.024126    0.228939   -1.886148
     13          6           0        2.767901    1.442124   -0.984334
     14          6           0        2.275695    0.849084    0.352851
     15          6           0        1.487240    1.931942    1.104385
     16          6           0        3.468331    0.359210    1.198020
     17          1           0       -0.510578   -0.017816    1.823828
     18          1           0        0.994537   -0.311516    2.705750
     19          1           0       -0.205041   -1.592599    2.575870
     20          1           0        1.716593   -1.983209    1.057707
     21          1           0        0.452561   -2.885797   -0.659959
     22          1           0       -0.683082   -2.768812    0.673683
     23          1           0       -0.719899   -0.408810   -0.876237
     24          1           0       -2.927818   -1.118240   -1.614704
     25          1           0       -2.638280   -2.653624   -0.809386
     26          1           0       -4.130853   -1.321064    0.574328
     27          1           0       -2.583142   -1.414102    1.418002
     28          1           0       -3.425040    0.877762    1.551957
     29          1           0       -1.985162    0.866257    0.516284
     30          1           0       -4.110144    2.920507    0.349637
     31          1           0       -2.677852    2.788318   -0.707253
     32          1           0       -4.317791    2.753204   -1.417173
     33          1           0        2.662109   -1.755082   -1.039059
     34          1           0        1.326713   -1.174800   -2.042621
     35          1           0        2.820420    0.446820   -2.938367
     36          1           0        4.068208   -0.093388   -1.821788
     37          1           0        1.969372    2.064067   -1.404061
     38          1           0        3.648684    2.077514   -0.845960
     39          1           0        1.256769    1.665443    2.137176
     40          1           0        2.076354    2.856236    1.131162
     41          1           0        0.547971    2.137988    0.580771
     42          1           0        4.084720   -0.356792    0.643569
     43          1           0        4.108330    1.200955    1.486043
     44          1           0        3.133857   -0.132224    2.117143
 ---------------------------------------------------------------------

 SCF Done:  E(UB3LYP) =  -697.197529401     A.U. after   28 cycles

 The electronic state is 2-A.
 Alpha  occ. eigenvalues --  -19.03445 -14.20403 -14.18927 -10.12211 -10.11884
 Alpha  occ. eigenvalues --  -10.10966 -10.10635 -10.09497 -10.09414 -10.08993
 Alpha  occ. eigenvalues --  -10.07344 -10.06996 -10.06584 -10.06400 -10.05813
 Alpha  occ. eigenvalues --  -10.05617  -0.94823  -0.83947  -0.79974  -0.71057
 Alpha  occ. eigenvalues --   -0.68119  -0.67336  -0.64043  -0.60812  -0.59150
 Alpha  occ. eigenvalues --   -0.57646  -0.56783  -0.54819  -0.50589  -0.48817
 Alpha  occ. eigenvalues --   -0.48263  -0.43161  -0.40702  -0.40069  -0.39190
 Alpha  occ. eigenvalues --   -0.38518  -0.37645  -0.37437  -0.36341  -0.34831
 Alpha  occ. eigenvalues --   -0.34416  -0.33260  -0.32444  -0.31565  -0.30750
 Alpha  occ. eigenvalues --   -0.30598  -0.30069  -0.28931  -0.28308  -0.28181
 Alpha  occ. eigenvalues --   -0.27352  -0.26496  -0.26084  -0.25945  -0.24672
 Alpha  occ. eigenvalues --   -0.24352  -0.23716  -0.23585  -0.22888  -0.22488
 Alpha  occ. eigenvalues --   -0.21380  -0.17139  -0.12071  -0.11629   0.04251
 Alpha virt. eigenvalues --    0.06024   0.06548   0.07240   0.07872   0.08263
 Alpha virt. eigenvalues --    0.08404   0.09003   0.09226   0.10076   0.10319
 Alpha virt. eigenvalues --    0.10537   0.10954   0.11091   0.11792   0.12136

  Beta  occ. eigenvalues --  -19.03438 -14.20395 -14.18924 -10.12195 -10.11850
  Beta  occ. eigenvalues --  -10.10965 -10.10625 -10.09495 -10.09407 -10.08985
  Beta  occ. eigenvalues --  -10.07337 -10.06982 -10.06566 -10.06379 -10.05774
  Beta  occ. eigenvalues --  -10.05593  -0.94812  -0.83935  -0.79967  -0.71036
  Beta  occ. eigenvalues --   -0.68099  -0.67309  -0.64015  -0.60779  -0.59089
  Beta  occ. eigenvalues --   -0.57606  -0.56740  -0.54777  -0.50555  -0.48786
  Beta  occ. eigenvalues --   -0.48226  -0.43121  -0.40661  -0.40048  -0.39151
  Beta  occ. eigenvalues --   -0.38493  -0.37619  -0.37414  -0.36313  -0.34803
  Beta  occ. eigenvalues --   -0.34390  -0.33226  -0.32421  -0.31540  -0.30723
  Beta  occ. eigenvalues --   -0.30577  -0.30042  -0.28908  -0.28283  -0.28152
  Beta  occ. eigenvalues --   -0.27331  -0.26475  -0.26058  -0.25914  -0.24652
  Beta  occ. eigenvalues --   -0.24328  -0.23690  -0.23558  -0.22848  -0.22459
  Beta  occ. eigenvalues --   -0.21357  -0.17121  -0.12042  -0.11615
  Beta virt. eigenvalues --    0.06223   0.06837   0.06986   0.07639   0.08244
  Beta virt. eigenvalues --    0.08697   0.08739   0.09320   0.09492   0.10435
  Beta virt. eigenvalues --    0.10777   0.10815   0.11101   0.11340   0.11950

 Mulliken charges and spin densities:
               1          2
     1  C    0.224629  -0.941762
     2  C   -0.134922   0.558947
     3  C   -0.407941  -0.467254
     4  N   -0.034037  -0.004850
     5  C   -0.620607   0.104748
     6  C    0.186274  -0.239916
     7  C   -0.816685   0.344951
     8  O   -0.105949   0.017505
     9  C    0.625574  -0.889585
    10  N    0.494135  -0.079842
    11  C   -0.290521   0.119812
    12  C    0.563457  -1.169534
    13  C   -0.087466  -0.081879
    14  C   -1.832114   1.636800
    15  C   -0.008140  -0.410004
    16  C    1.713415  -2.327848
    17  H   -0.187026   0.330995
    18  H    0.044759   0.105143
    19  H   -0.103434   0.251092
    20  H   -0.129211   0.274578
    21  H    0.040973   0.153362
    22  H    0.010349   0.105963
    23  H    0.317461  -0.026926
    24  H    0.123777   0.055262
    25  H    0.103785   0.033658
    26  H    0.086962   0.100651
    27  H    0.107246   0.016208
    28  H   -0.275910   0.416909
    29  H    1.018186  -0.835457
    30  H   -0.251675   0.379381
    31  H   -0.314237   0.456998
    32  H   -0.137266   0.270552
    33  H   -0.017938   0.155978
    34  H    0.194152  -0.042373
    35  H   -0.064311   0.235990
    36  H    0.004625   0.143178
    37  H    0.015863   0.129179
    38  H   -0.191892   0.355985
    39  H   -0.184959   0.313304
    40  H   -0.254212   0.415083
    41  H    0.128271   0.009389
    42  H   -0.255513   0.416789
    43  H   -0.225144   0.389783
    44  H   -0.072786   0.219055
 Sum of Mulliken charges =  -1.00000   1.00000

 Dipole moment (field-independent basis, Debye):
    X=             -1.9391    Y=             -3.9341    Z=             -1.7616  Tot=              4.7266
 Quadrupole moment (field-independent basis, Debye-Ang):
   XX=           -188.6243   YY=           -153.4387   ZZ=           -147.3015
   XY=              5.9651   XZ=             -4.4981   YZ=             -1.5536

 Summary of Natural Population Analysis:

                                       Natural Population
                Natural  -----------------------------------------------
    Atom  No    Charge         Core      Valence    Rydberg      Total
 -----------------------------------------------------------------------
      C    1   -0.29048      0.99964     2.28429    0.00654     3.29048
      C    2   -0.00536      0.99959     1.99299    0.01277     3.00536
      C    3   -0.08638      0.99961     2.07490    0.01188     3.08638
      N    4   -0.35576      0.99975     2.84487    0.01114     3.85576
      C    5   -0.08375      0.99962     2.07359    0.01054     3.08375
      C    6   -0.21030      0.99962     2.20206    0.00862     3.21030
      C    7   -0.01175      0.99958     1.99975    0.01242     3.01175
      O    8   -0.30094      0.99988     3.29143    0.00963     4.30094
      C    9   -0.09682      0.99962     2.08781    0.00939     3.09682
      N   10   -0.29904      0.99968     2.78685    0.01251     3.79904
      C   11   -0.08713      0.99963     2.07735    0.01015     3.08713
      C   12   -0.19629      0.99963     2.18915    0.00751     3.19629
      C   13   -0.18686      0.99958     2.17756    0.00973     3.18686
      C   14    0.06836      0.99957     1.91641    0.01566     2.93164
      C   15   -0.28665      0.99960     2.27952    0.00752     3.28665
      C   16   -0.29732      0.99960     2.29080    0.00691     3.29732
      H   17    0.09978      0.00000     0.39836    0.00187     0.40022
      H   18    0.10175      0.00000     0.39711    0.00113     0.39825
      H   19    0.09951      0.00000     0.39950    0.00098     0.40049
      H   20    0.08262      0.00000     0.41526    0.00212     0.41738
      H   21    0.08711      0.00000     0.41159    0.00130     0.41289
      H   22    0.08941      0.00000     0.40942    0.00117     0.41059
      H   23    0.18442      0.00000     0.31169    0.00390     0.31558
      H   24    0.09884      0.00000     0.39989    0.00128     0.40116
      H   25    0.08788      0.00000     0.41122    0.00090     0.41212
      H   26    0.09807      0.00000     0.40069    0.00123     0.40193
      H   27    0.09934      0.00000     0.39967    0.00100     0.40066
      H   28    0.08064      0.00000     0.41782    0.00153     0.41936
      H   29    0.07779      0.00000     0.41952    0.00269     0.42221
      H   30    0.07842      0.00000     0.41987    0.00171     0.42158
      H   31    0.08057      0.00000     0.41774    0.00169     0.41943
      H   32    0.08854      0.00000     0.41040    0.00106     0.41146
      H   33    0.08276      0.00000     0.41600    0.00124     0.41724
      H   34    0.10061      0.00000     0.39775    0.00164     0.39939
      H   35    0.09951      0.00000     0.39955    0.00094     0.40049
      H   36    0.09727      0.00000     0.40162    0.00110     0.40273
      H   37    0.10029      0.00000     0.39839    0.00131     0.39971
      H   38    0.10210      0.00000     0.39680    0.00110     0.39790
      H   39    0.10012      0.00000     0.39864    0.00124     0.39988
      H   40    0.10086      0.00000     0.39805    0.00109     0.39914
      H   41    0.10314      0.00000     0.39497    0.00189     0.39686
      H   42    0.10095      0.00000     0.39774    0.00131     0.39905
      H   43    0.10341      0.00000     0.39536    0.00123     0.39659
      H   44    0.10075      0.00000     0.39814    0.00111     0.39925
 =======================================================================
   * Total *   -0.00000     15.99420    47.80209    0.20371    64.00000

 Normal termination of Gaussian 16 at Fri Dec 11 00:02:26 2020.
