 Gaussian 16, Revision A.03,

 -----------------------------------------------------------
 # opt freq B3LYP/6-31G(d) empiricaldispersion=gd3bj scf=xqc
 -----------------------------------------------------------

 --------------------------------
 CID_152261621_JID_10478_neutraal
 --------------------------------
 Symbolic Z-matrix:
 Charge =  0 Multiplicity = 1

 SCF Done:  E(RB3LYP) =  -840.764604344     A.U. after   16 cycles
 SCF Done:  E(RB3LYP) =  -840.765549686     A.U. after   15 cycles
 SCF Done:  E(RB3LYP) =  -840.772725348     A.U. after   14 cycles
 SCF Done:  E(RB3LYP) =  -840.773135308     A.U. after   14 cycles
 SCF Done:  E(RB3LYP) =  -840.774147857     A.U. after   13 cycles
 SCF Done:  E(RB3LYP) =  -840.774302763     A.U. after   13 cycles
 SCF Done:  E(RB3LYP) =  -840.774520759     A.U. after   13 cycles
 SCF Done:  E(RB3LYP) =  -840.774677303     A.U. after   14 cycles
 SCF Done:  E(RB3LYP) =  -840.774820866     A.U. after   11 cycles
 SCF Done:  E(RB3LYP) =  -840.774941399     A.U. after   11 cycles
 SCF Done:  E(RB3LYP) =  -840.775039029     A.U. after   10 cycles
 SCF Done:  E(RB3LYP) =  -840.775040431     A.U. after   10 cycles
 SCF Done:  E(RB3LYP) =  -840.775042694     A.U. after   10 cycles
 SCF Done:  E(RB3LYP) =  -840.775042695     A.U. after    8 cycles
 SCF Done:  E(RB3LYP) =  -840.775042751     A.U. after    8 cycles
 Optimization completed.
    -- Stationary point found.
 Normal termination of Gaussian 16 at Sun Dec 13 20:56:18 2020.

 --------------------------------------------------------------------
 #N Geom=AllCheck Guess=TCheck SCRF=Check GenChk RB3LYP/6-31G(d) Freq
 --------------------------------------------------------------------

 Structure from the checkpoint file:  "JID_10478.chk"
 --------------------------------
 CID_152261621_JID_10478_neutraal
 --------------------------------
 Charge =  0 Multiplicity = 1

 SCF Done:  E(RB3LYP) =  -840.775042751     A.U. after    1 cycles

  Exact polarizability: 215.573  12.652 231.443 -29.691  22.737 126.251
 Approx polarizability: 320.816  21.846 407.445 -60.068  65.238 216.012

                      1                      2                      3
                      A                      A                      A
 Frequencies --     17.4456                42.7105                49.8524
 Red. masses --      6.7414                 4.1633                 4.3091
 Frc consts  --      0.0012                 0.0045                 0.0063
 IR Inten    --      0.2812                 1.1527                 0.0524

                      4                      5                      6
                      A                      A                      A
 Frequencies --     80.0547                87.0189               109.3169
 Red. masses --      9.7674                 4.3982                 4.4161
 Frc consts  --      0.0369                 0.0196                 0.0311
 IR Inten    --      0.5473                 0.4206                 1.3861

                      7                      8                      9
                      A                      A                      A
 Frequencies --    140.9174               145.8996               173.0527
 Red. masses --      3.2269                 4.4401                 3.5398
 Frc consts  --      0.0378                 0.0557                 0.0625
 IR Inten    --      0.1966                 2.0094                 0.3914

                     10                     11                     12
                      A                      A                      A
 Frequencies --    178.8911               201.4176               211.3078
 Red. masses --      2.9991                 1.2175                 3.1953
 Frc consts  --      0.0565                 0.0291                 0.0841
 IR Inten    --      3.8200                 1.1368                 0.3677

                     13                     14                     15
                      A                      A                      A
 Frequencies --    224.1088               249.0942               270.9710
 Red. masses --      2.5740                 1.3934                 2.3925
 Frc consts  --      0.0762                 0.0509                 0.1035
 IR Inten    --      1.1981                 2.4975                 8.7365

                     16                     17                     18
                      A                      A                      A
 Frequencies --    284.4296               312.2436               321.3884
 Red. masses --      2.4626                 3.2959                 2.3813
 Frc consts  --      0.1174                 0.1893                 0.1449
 IR Inten    --      0.4093                 0.1058                 0.1766

                     19                     20                     21
                      A                      A                      A
 Frequencies --    356.6631               418.0986               430.7149
 Red. masses --      3.3787                 2.4854                 2.9854
 Frc consts  --      0.2532                 0.2560                 0.3263
 IR Inten    --      1.7101                 4.6646                 8.3117

                     22                     23                     24
                      A                      A                      A
 Frequencies --    455.4549               484.8311               489.0997
 Red. masses --      1.9184                 3.6169                 4.7806
 Frc consts  --      0.2345                 0.5009                 0.6738
 IR Inten    --      0.3003                 0.4222                 1.0995

                     25                     26                     27
                      A                      A                      A
 Frequencies --    508.9486               523.9186               541.4102
 Red. masses --      3.4741                 2.8477                 4.5931
 Frc consts  --      0.5302                 0.4605                 0.7932
 IR Inten    --      1.2616                 3.3288                 1.8892

                     28                     29                     30
                      A                      A                      A
 Frequencies --    563.9660               571.5534               609.9582
 Red. masses --      4.2817                11.9427                 3.2630
 Frc consts  --      0.8024                 2.2986                 0.7153
 IR Inten    --      0.7777                15.5724                 1.9138

                     31                     32                     33
                      A                      A                      A
 Frequencies --    638.7302               649.1153               716.2753
 Red. masses --      8.3942                 3.9187                 5.0892
 Frc consts  --      2.0177                 0.9728                 1.5384
 IR Inten    --      6.7322                 0.2499                 1.1523

                     34                     35                     36
                      A                      A                      A
 Frequencies --    749.4879               775.4598               784.5124
 Red. masses --      2.2893                 1.6768                 2.6888
 Frc consts  --      0.7577                 0.5941                 0.9750
 IR Inten    --      5.3248                22.4526                10.0513

                     37                     38                     39
                      A                      A                      A
 Frequencies --    803.4308               813.5498               842.6704
 Red. masses --      3.0717                 4.8606                 1.6405
 Frc consts  --      1.1682                 1.8954                 0.6864
 IR Inten    --      2.9430                 2.3042                22.2301

                     40                     41                     42
                      A                      A                      A
 Frequencies --    855.6232               879.0504               890.9408
 Red. masses --      1.7421                 2.0471                 2.1299
 Frc consts  --      0.7514                 0.9320                 0.9961
 IR Inten    --     20.8986                 8.4042                 9.2312

                     43                     44                     45
                      A                      A                      A
 Frequencies --    908.1554               945.2711               960.3741
 Red. masses --      2.3430                 1.3464                 1.3342
 Frc consts  --      1.1385                 0.7088                 0.7250
 IR Inten    --     20.5314                 1.6316                 2.4918

                     46                     47                     48
                      A                      A                      A
 Frequencies --    984.0910               990.9272              1016.7827
 Red. masses --      1.9891                 1.2772                 1.8963
 Frc consts  --      1.1350                 0.7389                 1.1551
 IR Inten    --      0.8419                 1.0324                 1.7883

                     49                     50                     51
                      A                      A                      A
 Frequencies --   1027.9124              1052.9857              1062.7880
 Red. masses --      1.9270                 2.8895                 2.6115
 Frc consts  --      1.1996                 1.8876                 1.7379
 IR Inten    --     13.9468                19.9538                11.4705

                     52                     53                     54
                      A                      A                      A
 Frequencies --   1077.7980              1080.2150              1091.2800
 Red. masses --      1.5223                 2.7637                 2.2280
 Frc consts  --      1.0419                 1.9000                 1.5633
 IR Inten    --      1.9747                 9.1917                15.8158

                     55                     56                     57
                      A                      A                      A
 Frequencies --   1096.4932              1108.7927              1160.7362
 Red. masses --      1.8389                 2.2488                 1.5017
 Frc consts  --      1.3026                 1.6289                 1.1921
 IR Inten    --      5.5686                 4.6668                12.6177

                     58                     59                     60
                      A                      A                      A
 Frequencies --   1176.2750              1189.0975              1192.8450
 Red. masses --      1.8548                 1.9084                 1.5651
 Frc consts  --      1.5120                 1.5898                 1.3121
 IR Inten    --      8.3933                 7.0859                 1.2735

                     61                     62                     63
                      A                      A                      A
 Frequencies --   1200.7882              1227.9171              1251.2124
 Red. masses --      1.1267                 1.1693                 1.3829
 Frc consts  --      0.9572                 1.0388                 1.2755
 IR Inten    --      2.7453                 5.4623                 7.5660

                     64                     65                     66
                      A                      A                      A
 Frequencies --   1263.3176              1275.0310              1305.0678
 Red. masses --      2.3009                 1.6012                 1.5649
 Frc consts  --      2.1636                 1.5337                 1.5704
 IR Inten    --      0.9826                 6.8271                11.2194

                     67                     68                     69
                      A                      A                      A
 Frequencies --   1308.6204              1317.8959              1352.6891
 Red. masses --      1.4394                 1.8327                 8.9768
 Frc consts  --      1.4523                 1.8755                 9.6776
 IR Inten    --     16.3778                16.9867                99.3352

                     70                     71                     72
                      A                      A                      A
 Frequencies --   1381.3666              1384.8182              1391.8442
 Red. masses --      3.4536                 1.4982                 1.2758
 Frc consts  --      3.8828                 1.6928                 1.4562
 IR Inten    --      3.3112                 3.3059                33.0311

                     73                     74                     75
                      A                      A                      A
 Frequencies --   1415.6719              1419.9186              1423.2770
 Red. masses --      2.7558                 1.5102                 1.4481
 Frc consts  --      3.2541                 1.7939                 1.7283
 IR Inten    --     14.6253                 4.6022                28.8065

                     76                     77                     78
                      A                      A                      A
 Frequencies --   1432.6764              1437.4863              1444.3606
 Red. masses --      1.9740                 1.6402                 1.3439
 Frc consts  --      2.3872                 1.9969                 1.6519
 IR Inten    --      1.6378                35.1016                 0.6522

                     79                     80                     81
                      A                      A                      A
 Frequencies --   1478.1300              1483.6012              1499.9248
 Red. masses --      1.7738                 1.3102                 1.0873
 Frc consts  --      2.2834                 1.6991                 1.4413
 IR Inten    --      5.8856                 0.9589                 7.4256

                     82                     83                     84
                      A                      A                      A
 Frequencies --   1508.0606              1510.2227              1515.1280
 Red. masses --      1.1919                 2.0861                 1.0448
 Frc consts  --      1.5971                 2.8033                 1.4131
 IR Inten    --      5.9755                 5.5505                 6.5456

                     85                     86                     87
                      A                      A                      A
 Frequencies --   1517.9420              1521.9055              1531.1808
 Red. masses --      1.1041                 1.0873                 1.1105
 Frc consts  --      1.4989                 1.4838                 1.5340
 IR Inten    --     10.2276                 9.5631                 5.9343

                     88                     89                     90
                      A                      A                      A
 Frequencies --   1540.6671              1552.8758              1572.2866
 Red. masses --      1.0746                 1.0706                 3.5103
 Frc consts  --      1.5028                 1.5211                 5.1128
 IR Inten    --      1.6908                 6.0982                10.9471

                     91                     92                     93
                      A                      A                      A
 Frequencies --   1648.4464              1661.8812              1679.2619
 Red. masses --      7.1217                 5.0120                 5.8414
 Frc consts  --     11.4021                 8.1557                 9.7052
 IR Inten    --      3.6489                 8.3744                 0.0889

                     94                     95                     96
                      A                      A                      A
 Frequencies --   2265.3747              2930.9295              2939.8109
 Red. masses --     13.4289                 1.0713                 1.0650
 Frc consts  --     40.6041                 5.4220                 5.4230
 IR Inten    --    389.6515                30.8423               154.1250

                     97                     98                     99
                      A                      A                      A
 Frequencies --   3014.7462              3031.5302              3041.2364
 Red. masses --      1.0848                 1.0653                 1.0433
 Frc consts  --      5.8088                 5.7682                 5.6855
 IR Inten    --     38.6556                33.4139                27.2090

                    100                    101                    102
                      A                      A                      A
 Frequencies --   3041.3671              3056.4662              3062.9627
 Red. masses --      1.0639                 1.0638                 1.0695
 Frc consts  --      5.7984                 5.8552                 5.9118
 IR Inten    --     26.5930                41.2924                49.2907

                    103                    104                    105
                      A                      A                      A
 Frequencies --   3085.6310              3091.1505              3099.5186
 Red. masses --      1.0994                 1.1005                 1.0998
 Frc consts  --      6.1672                 6.1956                 6.2252
 IR Inten    --     17.4284                19.1433                45.8278

                    106                    107                    108
                      A                      A                      A
 Frequencies --   3112.0453              3124.2808              3131.3858
 Red. masses --      1.1028                 1.0942                 1.0998
 Frc consts  --      6.2927                 6.2927                 6.3539
 IR Inten    --     31.1018                21.2180                16.6024

                    109                    110                    111
                      A                      A                      A
 Frequencies --   3175.3734              3183.5100              3198.7286
 Red. masses --      1.0879                 1.0861                 1.0912
 Frc consts  --      6.4629                 6.4855                 6.5781
 IR Inten    --     22.7178                 5.5760                24.4767

                    112                    113                    114
                      A                      A                      A
 Frequencies --   3201.4596              3217.0471              3233.9779
 Red. masses --      1.0925                 1.0934                 1.0924
 Frc consts  --      6.5976                 6.6670                 6.7312
 IR Inten    --     18.4288                23.0047                 7.4760

 - Thermochemistry -
 -------------------
 Temperature   298.150 Kelvin.  Pressure   1.00000 Atm.
 Atom     1 has atomic number  6 and mass  12.00000

 Molecular mass:   268.16880 amu.
 Principal axes and moments of inertia in atomic units:
                           1         2         3
     Eigenvalues --  4239.714925772.325148733.03223
           X            0.99497   0.09981  -0.00876
           Y           -0.09977   0.99500   0.00513
           Z            0.00923  -0.00423   0.99995
 This molecule is an asymmetric top.
 Rotational symmetry number  1.
 Warning -- assumption of classical behavior for rotation
           may cause significant error
 Rotational temperatures (Kelvin)      0.02043     0.01501     0.00992
 Rotational constants (GHZ):           0.42568     0.31265     0.20666
 Zero-point vibrational energy     892835.3 (Joules/Mol)
                                  213.39277 (Kcal/Mol)
 Warning -- explicit consideration of  30 degrees of freedom as
           vibrations may cause significant error
 Vibrational temperatures:     25.10    61.45    71.73   115.18   125.20
          (Kelvin)            157.28   202.75   209.92   248.98   257.38
                              289.79   304.02   322.44   358.39   389.87
                              409.23   449.25   462.41   513.16   601.55
                              619.70   655.30   697.56   703.71   732.26
                              753.80   778.97   811.42   822.34   877.59
                              918.99   933.93  1030.56  1078.35  1115.71
                             1128.74  1155.96  1170.52  1212.41  1231.05
                             1264.76  1281.87  1306.63  1360.03  1381.76
                             1415.89  1425.72  1462.92  1478.94  1515.01
                             1529.11  1550.71  1554.19  1570.11  1577.61
                             1595.31  1670.04  1692.40  1710.85  1716.24
                             1727.67  1766.70  1800.22  1817.63  1834.49
                             1877.70  1882.81  1896.16  1946.22  1987.48
                             1992.44  2002.55  2036.84  2042.95  2047.78
                             2061.30  2068.22  2078.11  2126.70  2134.57
                             2158.06  2169.76  2172.87  2179.93  2183.98
                             2189.68  2203.03  2216.68  2234.24  2262.17
                             2371.75  2391.08  2416.08  3259.37  4216.95
                             4229.73  4337.55  4361.70  4375.66  4375.85
                             4397.57  4406.92  4439.53  4447.48  4459.52
                             4477.54  4495.14  4505.37  4568.65  4580.36
                             4602.26  4606.19  4628.61  4652.97

 Zero-point correction=                           0.340063 (Hartree/Particle)
 Thermal correction to Energy=                    0.358666
 Thermal correction to Enthalpy=                  0.359610
 Thermal correction to Gibbs Free Energy=         0.292612
 Sum of electronic and zero-point Energies=           -840.434980
 Sum of electronic and thermal Energies=              -840.416377
 Sum of electronic and thermal Enthalpies=            -840.415433
 Sum of electronic and thermal Free Energies=         -840.482431

                     E (Thermal)             CV                S
                      KCal/Mol        Cal/Mol-Kelvin    Cal/Mol-Kelvin
 Total                  225.066             71.745            141.009
 Electronic               0.000              0.000              0.000
 Translational            0.889              2.981             42.658
 Rotational               0.889              2.981             33.724
 Vibrational            223.289             65.784             64.626
 Vibration     1          0.593              1.986              6.906
 Vibration     2          0.595              1.980              5.129
 Vibration     3          0.595              1.978              4.823
 Vibration     4          0.600              1.963              3.890
 Vibration     5          0.601              1.958              3.726
 Vibration     6          0.606              1.942              3.281
 Vibration     7          0.615              1.912              2.791
 Vibration     8          0.617              1.907              2.725
 Vibration     9          0.627              1.876              2.402
 Vibration    10          0.629              1.868              2.340
 Vibration    11          0.638              1.838              2.120
 Vibration    12          0.643              1.824              2.032
 Vibration    13          0.649              1.804              1.926
 Vibration    14          0.662              1.764              1.737
 Vibration    15          0.675              1.727              1.590
 Vibration    16          0.683              1.703              1.507
 Vibration    17          0.701              1.650              1.350
 Vibration    18          0.707              1.633              1.303
 Vibration    19          0.732              1.562              1.137
 Vibration    20          0.781              1.431              0.898
 Vibration    21          0.792              1.403              0.856
 Vibration    22          0.814              1.349              0.779
 Vibration    23          0.841              1.284              0.697
 Vibration    24          0.845              1.274              0.686
 Vibration    25          0.864              1.230              0.636
 Vibration    26          0.879              1.197              0.601
 Vibration    27          0.896              1.159              0.562
 Vibration    28          0.920              1.109              0.516
 Vibration    29          0.928              1.093              0.501
 Vibration    30          0.969              1.011              0.433

 Optimization completed.
    -- Stationary point found.
 Normal termination of Gaussian 16 at Sun Dec 13 21:18:45 2020.

 ----------------------------------------------------------------------
 # B3LYP/6-311++G(d,p) empiricaldispersion=gd3bj scf=xqc pop=npa geom=c
 heck
 ----------------------------------------------------------------------

 ----------------------------------------
 CID_152261621_JID_10478_Energie_neutraal
 ----------------------------------------
 Structure from the checkpoint file:  "JID_10478.chk"
 Charge =  0 Multiplicity = 1

 SCF Done:  E(RB3LYP) =  -840.991491724     A.U. after   16 cycles
 Normal termination of Gaussian 16 at Sun Dec 13 21:28:08 2020.

 ----------------------------------------------------------------------
 # B3LYP/6-311++G(d,p) empiricaldispersion=gd3bj scf=xqc pop=npa geom=c
 heck
 ----------------------------------------------------------------------

 --------------------------------------
 CID_152261621_JID_10478_Energie_kation
 --------------------------------------
 Structure from the checkpoint file:  "JID_10478.chk"
 Charge =  1 Multiplicity = 2

 SCF Done:  E(UB3LYP) =  -840.722506519     A.U. after   27 cycles
 Normal termination of Gaussian 16 at Sun Dec 13 21:49:39 2020.
 Gaussian 16:  ES64L-G16RevA.03 25-Dec-2016

 ----------------------------------------------------------------------
 # B3LYP/6-311++G(d,p) empiricaldispersion=gd3bj scf=xqc pop=npa geom=c
 heck
 ----------------------------------------------------------------------

 -------------------------------------
 CID_152261621_JID_10478_Energie_anion
 -------------------------------------
 Structure from the checkpoint file:  "JID_10478.chk"
 Charge = -1 Multiplicity = 2

                         Standard orientation:
 ---------------------------------------------------------------------
 Center     Atomic      Atomic             Coordinates (Angstroms)
 Number     Number       Type             X           Y           Z
 ---------------------------------------------------------------------
      1          6           0        3.280261    2.504010    0.068182
      2          6           0        2.190741    1.512142    0.387931
      3          6           0        1.050180    1.917590    1.043340
      4          6           0        0.012457    1.007927    1.342348
      5          6           0        0.086232   -0.321441    0.992957
      6          6           0        1.262903   -0.791516    0.323313
      7          6           0        1.425753   -2.154629   -0.044143
      8          6           0        2.569799   -2.590673   -0.674653
      9          6           0        3.607399   -1.682258   -0.974941
     10          6           0        3.480136   -0.353796   -0.635826
     11          6           0        2.319068    0.133114    0.021252
     12          6           0       -1.043691   -1.252176    1.372831
     13          7           0       -1.621431   -2.006071    0.261456
     14          6           0       -2.630264   -2.943765    0.711045
     15          6           0       -1.963195   -1.288162   -0.964473
     16          6           0       -3.253631   -0.441918   -0.985216
     17          6           0       -3.148313    0.932596   -0.333360
     18          7           0       -2.161441    1.736885   -1.094371
     19          7           0       -1.829253    2.803866   -0.578062
     20          7           0       -1.445351    3.810436   -0.195101
     21          1           0        4.229789    2.233576    0.546819
     22          1           0        3.469994    2.563401   -1.010688
     23          1           0        3.004048    3.504030    0.413857
     24          1           0        0.932963    2.960066    1.324166
     25          1           0       -0.865720    1.373021    1.869283
     26          1           0        0.610921   -2.841319    0.150232
     27          1           0        2.672404   -3.637490   -0.947142
     28          1           0        4.506072   -2.031649   -1.475810
     29          1           0        4.282489    0.337028   -0.871314
     30          1           0       -0.668716   -2.001300    2.086414
     31          1           0       -1.802568   -0.668662    1.928242
     32          1           0       -3.515750   -2.470328    1.177828
     33          1           0       -2.977693   -3.544892   -0.136373
     34          1           0       -2.194777   -3.622112    1.454505
     35          1           0       -1.115016   -0.654399   -1.237232
     36          1           0       -2.053537   -2.048722   -1.750636
     37          1           0       -3.546439   -0.292830   -2.032053
     38          1           0       -4.076617   -0.987001   -0.507431
     39          1           0       -4.123863    1.437257   -0.358586
     40          1           0       -2.840670    0.854243    0.714952
 ---------------------------------------------------------------------

 SCF Done:  E(UB3LYP) =  -840.990091048     A.U. after   33 cycles
 SCF Done:  E(UB3LYP) =  -840.990094087     a.u. after    3 cycles

 The electronic state is 2-A.
 Alpha  occ. eigenvalues --  -14.34976 -14.24995 -14.23523 -14.19561 -10.10602
 Alpha  occ. eigenvalues --  -10.09173 -10.08449 -10.08203 -10.06654 -10.05145
 Alpha  occ. eigenvalues --  -10.04965 -10.04905 -10.04097 -10.04032 -10.04023
 Alpha  occ. eigenvalues --  -10.03827 -10.03614 -10.03453 -10.03407 -10.02906
 Alpha  occ. eigenvalues --   -1.01365  -0.85710  -0.81745  -0.74226  -0.69276
 Alpha  occ. eigenvalues --   -0.68743  -0.66758  -0.60988  -0.60848  -0.60531
 Alpha  occ. eigenvalues --   -0.60257  -0.55388  -0.52789  -0.49102  -0.48502
 Alpha  occ. eigenvalues --   -0.47106  -0.43772  -0.42883  -0.39711  -0.39041
 Alpha  occ. eigenvalues --   -0.38715  -0.38077  -0.37098  -0.36319  -0.36145
 Alpha  occ. eigenvalues --   -0.33856  -0.33327  -0.32748  -0.32456  -0.30636
 Alpha  occ. eigenvalues --   -0.30534  -0.29327  -0.29064  -0.28614  -0.28323
 Alpha  occ. eigenvalues --   -0.26955  -0.26555  -0.26348  -0.25875  -0.25564
 Alpha  occ. eigenvalues --   -0.24299  -0.23870  -0.23478  -0.20376  -0.19759
 Alpha  occ. eigenvalues --   -0.19572  -0.18571  -0.14851  -0.13557  -0.11837
 Alpha  occ. eigenvalues --   -0.10270  -0.09002   0.04541
 Alpha virt. eigenvalues --    0.06172   0.07356   0.08016   0.08351   0.08769
 Alpha virt. eigenvalues --    0.09180   0.09864   0.10624   0.10715   0.10892
 Alpha virt. eigenvalues --    0.11203   0.11654   0.11840   0.12111   0.12728

  Beta  occ. eigenvalues --  -14.34833 -14.24775 -14.23556 -14.19545 -10.10545
  Beta  occ. eigenvalues --  -10.09166 -10.08461 -10.08203 -10.06640 -10.05161
  Beta  occ. eigenvalues --  -10.05016 -10.04956 -10.04043 -10.03994 -10.03792
  Beta  occ. eigenvalues --  -10.03624 -10.03545 -10.03441 -10.03233 -10.02713
  Beta  occ. eigenvalues --   -1.01066  -0.85552  -0.81703  -0.74016  -0.69014
  Beta  occ. eigenvalues --   -0.68657  -0.66465  -0.60859  -0.60683  -0.60409
  Beta  occ. eigenvalues --   -0.60109  -0.55264  -0.52687  -0.48713  -0.48433
  Beta  occ. eigenvalues --   -0.47018  -0.43604  -0.42806  -0.39602  -0.38640
  Beta  occ. eigenvalues --   -0.38516  -0.37785  -0.36942  -0.36215  -0.36029
  Beta  occ. eigenvalues --   -0.33775  -0.32922  -0.32684  -0.32373  -0.30521
  Beta  occ. eigenvalues --   -0.30291  -0.29198  -0.28940  -0.28529  -0.28236
  Beta  occ. eigenvalues --   -0.26860  -0.26495  -0.26278  -0.25806  -0.25399
  Beta  occ. eigenvalues --   -0.24030  -0.23756  -0.23396  -0.20255  -0.19539
  Beta  occ. eigenvalues --   -0.18984  -0.18211  -0.13973  -0.13479  -0.11397
  Beta  occ. eigenvalues --   -0.10213  -0.07795
  Beta virt. eigenvalues --    0.06525   0.07932   0.08113   0.08420   0.08930
  Beta virt. eigenvalues --    0.09132   0.09251   0.09907   0.10597   0.10717
  Beta virt. eigenvalues --    0.10963   0.11234   0.11613   0.11942   0.12194

 Mulliken charges and spin densities:
               1          2
     1  C   -0.661177  -0.018891
     2  C    0.094036   0.102521
     3  C   -0.273474   0.023179
     4  C   -0.212825   0.066602
     5  C    0.603435   0.131579
     6  C    0.267504  -0.048232
     7  C   -0.332863   0.146378
     8  C   -0.395411   0.028018
     9  C   -0.526282   0.048942
    10  C   -0.329916   0.137746
    11  C    0.385875  -0.006433
    12  C   -0.573274  -0.078470
    13  N    0.190801   0.027341
    14  C   -0.185430  -0.145927
    15  C   -0.404773   0.115154
    16  C    0.073173  -0.529625
    17  C   -0.177825  -0.240204
    18  N   -0.486831   0.216476
    19  N    0.407057   0.028802
    20  N    0.018909  -0.100631
    21  H    0.111839   0.020379
    22  H    0.113883   0.035781
    23  H    0.127500   0.004599
    24  H    0.121309  -0.002544
    25  H    0.113386  -0.008156
    26  H    0.150461  -0.011878
    27  H    0.121096  -0.000849
    28  H    0.110111  -0.003809
    29  H    0.110218  -0.011527
    30  H    0.114017   0.023730
    31  H    0.094504  -0.009336
    32  H    0.024321   0.084319
    33  H    0.075247   0.058542
    34  H    0.129411  -0.000641
    35  H    0.117950   0.022651
    36  H    0.160514   0.009536
    37  H    0.029870   0.141196
    38  H    0.012461   0.127346
    39  H   -0.394621   0.577650
    40  H    0.075814   0.038688
 Sum of Mulliken charges =  -1.00000   1.00000

 Dipole moment (field-independent basis, Debye):
    X=             -0.5788    Y=             -2.4339    Z=              1.0085  Tot=              2.6974
 Quadrupole moment (field-independent basis, Debye-Ang):
   XX=           -168.6209   YY=           -157.7863   ZZ=           -138.4715
   XY=              9.7918   XZ=             -4.3672   YZ=              1.5299

 Summary of Natural Population Analysis:

                                       Natural Population
                Natural  -----------------------------------------------
    Atom  No    Charge         Core      Valence    Rydberg      Total
 -----------------------------------------------------------------------
      C    1   -0.29388      0.99965     2.28985    0.00438     3.29388
      C    2    0.00774      0.99954     1.97864    0.01409     2.99226
      C    3   -0.10248      0.99951     2.09321    0.00976     3.10248
      C    4   -0.08936      0.99951     2.07950    0.01035     3.08936
      C    5    0.00713      0.99946     1.98333    0.01008     2.99287
      C    6   -0.05127      0.99951     2.03666    0.01510     3.05127
      C    7   -0.06383      0.99954     2.05593    0.00836     3.06383
      C    8   -0.10558      0.99957     2.09679    0.00922     3.10558
      C    9   -0.09753      0.99957     2.08874    0.00921     3.09753
      C   10   -0.08950      0.99960     2.07459    0.01531     3.08950
      C   11    0.02823      0.99946     1.96074    0.01156     2.97177
      C   12   -0.08716      0.99959     2.07738    0.01019     3.08716
      N   13   -0.28033      0.99972     2.76983    0.01077     3.78033
      C   14   -0.17580      0.99965     2.16791    0.00823     3.17580
      C   15   -0.08630      0.99960     2.07465    0.01205     3.08630
      C   16   -0.20434      0.99961     2.19509    0.00964     3.20434
      C   17   -0.09196      0.99959     2.08081    0.01157     3.09196
      N   18   -0.19764      0.99969     2.68370    0.01425     3.69764
      N   19    0.13119      0.99971     2.35354    0.01557     3.36881
      N   20   -0.03351      0.99982     2.52089    0.01281     3.53351
      H   21    0.09896      0.00000     0.39993    0.00112     0.40104
      H   22    0.10106      0.00000     0.39787    0.00108     0.39894
      H   23    0.09828      0.00000     0.40096    0.00076     0.40172
      H   24    0.09574      0.00000     0.40301    0.00125     0.40426
      H   25    0.09060      0.00000     0.40820    0.00120     0.40940
      H   26    0.10257      0.00000     0.39556    0.00187     0.39743
      H   27    0.09025      0.00000     0.40877    0.00098     0.40975
      H   28    0.08943      0.00000     0.40957    0.00100     0.41057
      H   29    0.09227      0.00000     0.40631    0.00142     0.40773
      H   30    0.09551      0.00000     0.40330    0.00119     0.40449
      H   31    0.07901      0.00000     0.41947    0.00152     0.42099
      H   32    0.07715      0.00000     0.42132    0.00154     0.42285
      H   33    0.09291      0.00000     0.40637    0.00072     0.40709
      H   34    0.09137      0.00000     0.40776    0.00087     0.40863
      H   35    0.11361      0.00000     0.38508    0.00131     0.38639
      H   36    0.09010      0.00000     0.40903    0.00088     0.40990
      H   37    0.09950      0.00000     0.39902    0.00149     0.40050
      H   38    0.09720      0.00000     0.40183    0.00098     0.40280
      H   39    0.09030      0.00000     0.40815    0.00155     0.40970
      H   40    0.09231      0.00000     0.40581    0.00188     0.40769
 =======================================================================
   * Total *    0.00194     19.99191    51.75907    0.24708    71.99806

 Normal termination of Gaussian 16 at Sun Dec 13 23:03:39 2020.
