 Gaussian 16, Revision A.03,

 -----------------------------------------------------------
 # opt freq B3LYP/6-31G(d) empiricaldispersion=gd3bj scf=xqc
 -----------------------------------------------------------

 ------------------------------
 CID_64650817_JID_5926_neutraal
 ------------------------------
 Symbolic Z-matrix:
 Charge =  0 Multiplicity = 1

 SCF Done:  E(RB3LYP) =  -1000.53297748     A.U. after   14 cycles
 SCF Done:  E(RB3LYP) =  -1000.53837609     A.U. after   12 cycles
 SCF Done:  E(RB3LYP) =  -1000.53879608     A.U. after   13 cycles
 SCF Done:  E(RB3LYP) =  -1000.53971771     A.U. after   12 cycles
 SCF Done:  E(RB3LYP) =  -1000.54005769     A.U. after   12 cycles
 SCF Done:  E(RB3LYP) =  -1000.54035911     A.U. after   12 cycles
 SCF Done:  E(RB3LYP) =  -1000.54045858     A.U. after   11 cycles
 SCF Done:  E(RB3LYP) =  -1000.54050910     A.U. after   10 cycles
 SCF Done:  E(RB3LYP) =  -1000.54054153     A.U. after   11 cycles
 SCF Done:  E(RB3LYP) =  -1000.54055612     A.U. after   10 cycles
 SCF Done:  E(RB3LYP) =  -1000.54355673     A.U. after    7 cycles
 SCF Done:  E(RB3LYP) =  -1000.54355680     A.U. after    7 cycles
 SCF Done:  E(RB3LYP) =  -1000.54355686     A.U. after    6 cycles
 SCF Done:  E(RB3LYP) =  -1000.54355691     A.U. after    6 cycles
 SCF Done:  E(RB3LYP) =  -1000.54355695     A.U. after    6 cycles
 SCF Done:  E(RB3LYP) =  -1000.54355698     A.U. after    6 cycles
 Optimization completed.
    -- Stationary point found.
 Normal termination of Gaussian 16 at Thu Dec 10 18:10:35 2020.

 --------------------------------------------------------------------
 #N Geom=AllCheck Guess=TCheck SCRF=Check GenChk RB3LYP/6-31G(d) Freq
 --------------------------------------------------------------------

 Structure from the checkpoint file:  "JID_5926.chk"
 ------------------------------
 CID_64650817_JID_5926_neutraal
 ------------------------------
 Charge =  0 Multiplicity = 1

 SCF Done:  E(RB3LYP) =  -1000.54355698     A.U. after    1 cycles

  Exact polarizability: 179.238  -2.663 147.272   1.009   2.155 135.872
 Approx polarizability: 220.271  -7.509 212.035   0.487   9.114 222.323

                      1                      2                      3
                      A                      A                      A
 Frequencies --     31.8812                39.3436                60.1725
 Red. masses --      3.0974                 2.9651                 2.5316
 Frc consts  --      0.0019                 0.0027                 0.0054
 IR Inten    --      0.3169                 0.3148                 0.4782

                      4                      5                      6
                      A                      A                      A
 Frequencies --     84.2703                88.7884               113.0003
 Red. masses --      2.8446                 3.2521                 3.2923
 Frc consts  --      0.0119                 0.0151                 0.0248
 IR Inten    --      0.2828                 0.5874                 2.9540

                      7                      8                      9
                      A                      A                      A
 Frequencies --    137.1109               149.7006               183.8024
 Red. masses --      2.8521                 3.6902                 3.4830
 Frc consts  --      0.0316                 0.0487                 0.0693
 IR Inten    --      1.0716                 4.0182                 1.8106

                     10                     11                     12
                      A                      A                      A
 Frequencies --    221.3343               226.4282               230.9220
 Red. masses --      1.3406                 1.2532                 2.4574
 Frc consts  --      0.0387                 0.0379                 0.0772
 IR Inten    --      0.1339                 0.2928                 0.6304

                     13                     14                     15
                      A                      A                      A
 Frequencies --    239.6338               252.4849               284.0105
 Red. masses --      1.9885                 1.4770                 1.5129
 Frc consts  --      0.0673                 0.0555                 0.0719
 IR Inten    --      3.0274                 2.2303                18.1764

                     16                     17                     18
                      A                      A                      A
 Frequencies --    295.9381               309.3910               316.7888
 Red. masses --      1.8061                 2.1620                 2.1445
 Frc consts  --      0.0932                 0.1219                 0.1268
 IR Inten    --     12.4830                 2.7600                 0.8598

                     19                     20                     21
                      A                      A                      A
 Frequencies --    361.4907               380.0588               394.1512
 Red. masses --      2.3604                 3.5470                 2.4036
 Frc consts  --      0.1817                 0.3019                 0.2200
 IR Inten    --      9.2224                 4.9362                 1.6741

                     22                     23                     24
                      A                      A                      A
 Frequencies --    401.4624               427.1351               438.4258
 Red. masses --      3.0679                 3.3073                 2.0786
 Frc consts  --      0.2913                 0.3555                 0.2354
 IR Inten    --      6.6024                 3.4281                 2.9960

                     25                     26                     27
                      A                      A                      A
 Frequencies --    452.7579               513.9608               518.8554
 Red. masses --      3.6708                 2.4993                 2.7152
 Frc consts  --      0.4433                 0.3890                 0.4307
 IR Inten    --      7.8827                 2.1439                 2.4416

                     28                     29                     30
                      A                      A                      A
 Frequencies --    607.4694               693.8054               748.0906
 Red. masses --      2.8857                 3.7022                 3.7041
 Frc consts  --      0.6274                 1.0500                 1.2213
 IR Inten    --      1.1692                 4.2409                 2.0344

                     31                     32                     33
                      A                      A                      A
 Frequencies --    785.2529               800.6054               827.1730
 Red. masses --      1.3779                 1.8536                 2.6580
 Frc consts  --      0.5006                 0.7000                 1.0715
 IR Inten    --      2.7303                 0.6091                 1.1930

                     34                     35                     36
                      A                      A                      A
 Frequencies --    852.2662               881.9927               896.2886
 Red. masses --      1.8968                 1.8613                 1.5521
 Frc consts  --      0.8117                 0.8531                 0.7346
 IR Inten    --     30.0534                 4.0401                15.1444

                     37                     38                     39
                      A                      A                      A
 Frequencies --    908.7332               924.3888               948.9078
 Red. masses --      1.5139                 2.0125                 1.1883
 Frc consts  --      0.7366                 1.0132                 0.6304
 IR Inten    --     79.7167                 7.3904                 1.6706

                     40                     41                     42
                      A                      A                      A
 Frequencies --    963.5562               970.0665               981.6434
 Red. masses --      2.0804                 1.9609                 1.4829
 Frc consts  --      1.1380                 1.0872                 0.8419
 IR Inten    --     10.7741                 5.9844                 0.4338

                     43                     44                     45
                      A                      A                      A
 Frequencies --    988.2551              1029.4110              1042.6284
 Red. masses --      1.7601                 1.6726                 1.9505
 Frc consts  --      1.0128                 1.0443                 1.2493
 IR Inten    --     21.9109                 6.3684                10.0360

                     46                     47                     48
                      A                      A                      A
 Frequencies --   1046.8614              1064.9895              1081.2527
 Red. masses --      4.3698                 1.6679                 1.9899
 Frc consts  --      2.8215                 1.1146                 1.3707
 IR Inten    --     73.4013                 7.3453                 0.5335

                     49                     50                     51
                      A                      A                      A
 Frequencies --   1104.5271              1107.3370              1118.4189
 Red. masses --      1.6098                 1.7919                 1.9629
 Frc consts  --      1.1571                 1.2946                 1.4467
 IR Inten    --     16.4666                 3.1977                 7.2982

                     52                     53                     54
                      A                      A                      A
 Frequencies --   1137.9468              1142.3793              1156.3683
 Red. masses --      1.9035                 2.1206                 1.6903
 Frc consts  --      1.4523                 1.6305                 1.3317
 IR Inten    --      1.4459                11.2159                 5.9084

                     55                     56                     57
                      A                      A                      A
 Frequencies --   1190.2448              1207.3762              1223.1538
 Red. masses --      2.1186                 1.7343                 1.7406
 Frc consts  --      1.7684                 1.4895                 1.5343
 IR Inten    --      3.5106                11.0674                 1.0617

                     58                     59                     60
                      A                      A                      A
 Frequencies --   1243.9130              1249.0519              1279.1540
 Red. masses --      1.2886                 1.5028                 1.2886
 Frc consts  --      1.1747                 1.3814                 1.2422
 IR Inten    --      2.7476                 3.6254                 0.7066

                     61                     62                     63
                      A                      A                      A
 Frequencies --   1281.8028              1313.5956              1320.2972
 Red. masses --      1.2992                 1.2462                 1.2755
 Frc consts  --      1.2577                 1.2669                 1.3100
 IR Inten    --      1.8121                 3.9205                 7.4576

                     64                     65                     66
                      A                      A                      A
 Frequencies --   1324.8715              1351.5550              1363.5806
 Red. masses --      1.2734                 1.3071                 1.3357
 Frc consts  --      1.3169                 1.4067                 1.4632
 IR Inten    --      6.2546                 0.7294                 0.6751

                     67                     68                     69
                      A                      A                      A
 Frequencies --   1376.2887              1381.2925              1394.0940
 Red. masses --      1.4016                 1.3771                 1.3606
 Frc consts  --      1.5642                 1.5480                 1.5580
 IR Inten    --      3.9761                 1.0838                 1.7190

                     70                     71                     72
                      A                      A                      A
 Frequencies --   1397.1535              1397.5333              1409.6962
 Red. masses --      1.3935                 1.3283                 1.4057
 Frc consts  --      1.6027                 1.5285                 1.6458
 IR Inten    --      1.0560                 2.8083                 5.5416

                     73                     74                     75
                      A                      A                      A
 Frequencies --   1422.4031              1431.4997              1443.0841
 Red. masses --      1.4503                 1.2641                 1.4000
 Frc consts  --      1.7288                 1.5262                 1.7177
 IR Inten    --      4.9334                 7.0558                 3.5833

                     76                     77                     78
                      A                      A                      A
 Frequencies --   1447.4552              1449.6195              1487.7660
 Red. masses --      1.2839                 1.2281                 1.0981
 Frc consts  --      1.5848                 1.5205                 1.4321
 IR Inten    --     11.5009                 5.8275                 1.1666

                     79                     80                     81
                      A                      A                      A
 Frequencies --   1514.3334              1516.2450              1517.0493
 Red. masses --      1.0875                 1.0724                 1.0475
 Frc consts  --      1.4693                 1.4525                 1.4203
 IR Inten    --      2.8545                 1.4361                 0.1752

                     82                     83                     84
                      A                      A                      A
 Frequencies --   1519.2447              1524.4254              1529.8708
 Red. masses --      1.0909                 1.0520                 1.0896
 Frc consts  --      1.4835                 1.4404                 1.5026
 IR Inten    --      3.8428                 4.0993                 2.7162

                     85                     86                     87
                      A                      A                      A
 Frequencies --   1534.9255              1536.0460              1538.3517
 Red. masses --      1.0542                 1.0433                 1.0468
 Frc consts  --      1.4634                 1.4503                 1.4595
 IR Inten    --      2.3662                 3.9279                11.0411

                     88                     89                     90
                      A                      A                      A
 Frequencies --   1539.2750              1694.6695              2995.9764
 Red. masses --      1.0642                 1.0905                 1.0812
 Frc consts  --      1.4855                 1.8452                 5.7178
 IR Inten    --      5.8412                34.8720                11.8302

                     91                     92                     93
                      A                      A                      A
 Frequencies --   3016.1352              3020.1960              3032.0841
 Red. masses --      1.0738                 1.0699                 1.0626
 Frc consts  --      5.7556                 5.7498                 5.7555
 IR Inten    --      7.1927                29.4355                36.5980

                     94                     95                     96
                      A                      A                      A
 Frequencies --   3034.0528              3037.1491              3040.9272
 Red. masses --      1.0632                 1.0360                 1.0813
 Frc consts  --      5.7666                 5.6306                 5.8911
 IR Inten    --     30.5027                28.8227                19.1487

                     97                     98                     99
                      A                      A                      A
 Frequencies --   3043.4300              3051.3518              3056.2956
 Red. masses --      1.0416                 1.0539                 1.0518
 Frc consts  --      5.6845                 5.7812                 5.7887
 IR Inten    --     22.8581                 5.4052                26.5409

                    100                    101                    102
                      A                      A                      A
 Frequencies --   3058.1475              3063.3220              3064.8437
 Red. masses --      1.0786                 1.1001                 1.0911
 Frc consts  --      5.9434                 6.0823                 6.0384
 IR Inten    --      6.3045                 0.5908                42.5434

                    103                    104                    105
                      A                      A                      A
 Frequencies --   3069.2551              3078.4003              3101.7398
 Red. masses --      1.0654                 1.1011                 1.1011
 Frc consts  --      5.9132                 6.1480                 6.2417
 IR Inten    --     46.5707                75.9550                12.3498

                    106                    107                    108
                      A                      A                      A
 Frequencies --   3109.3078              3112.9499              3114.6499
 Red. masses --      1.1012                 1.1015                 1.0984
 Frc consts  --      6.2727                 6.2889                 6.2781
 IR Inten    --     27.7861                52.8693                 7.6293

                    109                    110                    111
                      A                      A                      A
 Frequencies --   3117.5169              3123.0178              3124.1072
 Red. masses --      1.1010                 1.1023                 1.1017
 Frc consts  --      6.3046                 6.3343                 6.3350
 IR Inten    --     54.7989                42.4942                36.1828

                    112                    113                    114
                      A                      A                      A
 Frequencies --   3131.8559              3456.7083              3542.2103
 Red. masses --      1.1067                 1.0493                 1.0924
 Frc consts  --      6.3955                 7.3874                 8.0760
 IR Inten    --     14.2936                 0.5794                 0.2338

 - Thermochemistry -
 -------------------
 Temperature   298.150 Kelvin.  Pressure   1.00000 Atm.
 Atom     1 has atomic number  6 and mass  12.00000

 Molecular mass:   231.16569 amu.
 Principal axes and moments of inertia in atomic units:
                           1         2         3
     Eigenvalues --  2400.330606026.291836805.78843
           X            0.99994   0.00345   0.01008
           Y           -0.00318   0.99965  -0.02645
           Z           -0.01016   0.02641   0.99960
 This molecule is an asymmetric top.
 Rotational symmetry number  1.
 Warning -- assumption of classical behavior for rotation
           may cause significant error
 Rotational temperatures (Kelvin)      0.03608     0.01437     0.01273
 Rotational constants (GHZ):           0.75187     0.29948     0.26518
 Zero-point vibrational energy     956477.0 (Joules/Mol)
                                  228.60349 (Kcal/Mol)
 Warning -- explicit consideration of  28 degrees of freedom as
           vibrations may cause significant error
 Vibrational temperatures:     45.87    56.61    86.57   121.25   127.75
          (Kelvin)            162.58   197.27   215.39   264.45   318.45
                              325.78   332.25   344.78   363.27   408.63
                              425.79   445.14   455.79   520.10   546.82
                              567.10   577.61   614.55   630.80   651.42
                              739.47   746.52   874.01   998.23  1076.34
                             1129.80  1151.89  1190.12  1226.22  1268.99
                             1289.56  1307.46  1329.99  1365.27  1386.34
                             1395.71  1412.37  1421.88  1481.09  1500.11
                             1506.20  1532.28  1555.68  1589.17  1593.21
                             1609.16  1637.25  1643.63  1663.76  1712.50
                             1737.15  1759.85  1789.71  1797.11  1840.42
                             1844.23  1889.97  1899.61  1906.19  1944.59
                             1961.89  1980.17  1987.37  2005.79  2010.19
                             2010.74  2028.24  2046.52  2059.61  2076.28
                             2082.57  2085.68  2140.56  2178.79  2181.54
                             2182.70  2185.85  2193.31  2201.14  2208.42
                             2210.03  2213.35  2214.67  2438.25  4310.54
                             4339.55  4345.39  4362.49  4365.33  4369.78
                             4375.22  4378.82  4390.21  4397.33  4399.99
                             4407.44  4409.63  4415.97  4429.13  4462.71
                             4473.60  4478.84  4481.29  4485.41  4493.33
                             4494.89  4506.04  4973.43  5096.45

 Zero-point correction=                           0.364303 (Hartree/Particle)
 Thermal correction to Energy=                    0.382220
 Thermal correction to Enthalpy=                  0.383164
 Thermal correction to Gibbs Free Energy=         0.318504
 Sum of electronic and zero-point Energies=          -1000.179254
 Sum of electronic and thermal Energies=             -1000.161337
 Sum of electronic and thermal Enthalpies=           -1000.160393
 Sum of electronic and thermal Free Energies=        -1000.225053

                     E (Thermal)             CV                S
                      KCal/Mol        Cal/Mol-Kelvin    Cal/Mol-Kelvin
 Total                  239.846             67.798            136.087
 Electronic               0.000              0.000              0.000
 Translational            0.889              2.981             42.216
 Rotational               0.889              2.981             32.954
 Vibrational            238.069             61.837             60.918
 Vibration     1          0.594              1.983              5.709
 Vibration     2          0.594              1.981              5.292
 Vibration     3          0.597              1.973              4.452
 Vibration     4          0.601              1.960              3.789
 Vibration     5          0.602              1.957              3.687
 Vibration     6          0.607              1.939              3.217
 Vibration     7          0.614              1.916              2.844
 Vibration     8          0.618              1.903              2.676
 Vibration     9          0.631              1.862              2.289
 Vibration    10          0.648              1.809              1.948
 Vibration    11          0.650              1.801              1.907
 Vibration    12          0.653              1.794              1.872
 Vibration    13          0.657              1.780              1.806
 Vibration    14          0.664              1.759              1.713
 Vibration    15          0.682              1.703              1.509
 Vibration    16          0.690              1.681              1.440
 Vibration    17          0.699              1.656              1.366
 Vibration    18          0.704              1.642              1.327
 Vibration    19          0.736              1.552              1.116
 Vibration    20          0.750              1.513              1.039
 Vibration    21          0.761              1.483              0.984
 Vibration    22          0.767              1.467              0.957
 Vibration    23          0.789              1.411              0.868
 Vibration    24          0.799              1.386              0.832
 Vibration    25          0.811              1.355              0.787
 Vibration    26          0.869              1.219              0.624
 Vibration    27          0.874              1.208              0.613
 Vibration    28          0.966              1.016              0.437

 Optimization completed.
    -- Stationary point found.
 Normal termination of Gaussian 16 at Thu Dec 10 18:23:45 2020.

 ----------------------------------------------------------------------
 # B3LYP/6-311++G(d,p) empiricaldispersion=gd3bj scf=xqc pop=npa geom=c
 heck
 ----------------------------------------------------------------------

 --------------------------------------
 CID_64650817_JID_5926_Energie_neutraal
 --------------------------------------
 Structure from the checkpoint file:  "JID_5926.chk"
 Charge =  0 Multiplicity = 1

 SCF Done:  E(RB3LYP) =  -1000.74942386     A.U. after   15 cycles
 Normal termination of Gaussian 16 at Thu Dec 10 18:30:13 2020.

 ----------------------------------------------------------------------
 # B3LYP/6-311++G(d,p) empiricaldispersion=gd3bj scf=xqc pop=npa geom=c
 heck
 ----------------------------------------------------------------------

 ------------------------------------
 CID_64650817_JID_5926_Energie_kation
 ------------------------------------
 Structure from the checkpoint file:  "JID_5926.chk"
 Charge =  1 Multiplicity = 2

 SCF Done:  E(UB3LYP) =  -1000.46246019     A.U. after   22 cycles
 Normal termination of Gaussian 16 at Thu Dec 10 18:42:35 2020.
 Gaussian 16:  ES64L-G16RevA.03 25-Dec-2016

 ----------------------------------------------------------------------
 # B3LYP/6-311++G(d,p) empiricaldispersion=gd3bj scf=xqc pop=npa geom=c
 heck
 ----------------------------------------------------------------------

 -----------------------------------
 CID_64650817_JID_5926_Energie_anion
 -----------------------------------
 Structure from the checkpoint file:  "JID_5926.chk"
 Charge = -1 Multiplicity = 2

                         Standard orientation:
 ---------------------------------------------------------------------
 Center     Atomic      Atomic             Coordinates (Angstroms)
 Number     Number       Type             X           Y           Z
 ---------------------------------------------------------------------
      1          6           0        3.418323    2.472195   -0.744385
      2          6           0        3.684671    1.493572    0.405005
      3          6           0        2.804361    0.230197    0.426788
      4          6           0        3.021244   -0.678458   -0.795913
      5          6           0        2.161851   -1.948444   -0.721764
      6          6           0        0.666321   -1.615506   -0.556442
      7          6           0        0.495090   -0.734140    0.680129
      8          6           0        1.308211    0.553434    0.584808
      9         16           0       -1.292704   -0.396303    1.122650
     10          8           0       -1.260928    0.824330    2.032431
     11          6           0       -1.877377    0.192150   -0.528176
     12          6           0       -3.221848    0.913887   -0.386660
     13          6           0       -3.580939    1.599265   -1.711035
     14          6           0       -4.339369   -0.035322    0.062859
     15          7           0       -0.235725   -2.768498   -0.480361
     16          1           0        3.572863    2.004976   -1.723285
     17          1           0        4.096426    3.330115   -0.680678
     18          1           0        2.395059    2.861686   -0.716825
     19          1           0        4.737331    1.180403    0.371776
     20          1           0        3.551905    2.021066    1.358841
     21          1           0        3.105520   -0.346861    1.315377
     22          1           0        4.082186   -0.944963   -0.882781
     23          1           0        2.761475   -0.129141   -1.711211
     24          1           0        2.480601   -2.566931    0.130481
     25          1           0        2.298949   -2.558373   -1.624977
     26          1           0        0.358743   -1.033117   -1.435272
     27          1           0        0.838299   -1.298452    1.560155
     28          1           0        1.119001    1.164389    1.472737
     29          1           0        0.965490    1.136057   -0.279589
     30          1           0       -1.123562    0.872652   -0.937425
     31          1           0       -1.954461   -0.695811   -1.164004
     32          1           0       -3.088640    1.685768    0.381829
     33          1           0       -3.703270    0.862541   -2.515464
     34          1           0       -4.523305    2.151408   -1.619248
     35          1           0       -2.803512    2.308057   -2.019051
     36          1           0       -4.121064   -0.490431    1.034367
     37          1           0       -5.289430    0.502829    0.153311
     38          1           0       -4.478696   -0.845498   -0.664411
     39          1           0       -0.096891   -3.369799   -1.291598
     40          1           0       -0.003503   -3.333845    0.336338
 ---------------------------------------------------------------------

 SCF Done:  E(UB3LYP) =  -1000.73854034     A.U. after   31 cycles

 The electronic state is 2-A.
 Alpha  occ. eigenvalues --  -88.83906 -18.97888 -14.20323 -10.11308 -10.10735
 Alpha  occ. eigenvalues --  -10.09751 -10.09226 -10.08418 -10.07796 -10.07604
 Alpha  occ. eigenvalues --  -10.07459 -10.07341 -10.07148 -10.07097 -10.06934
 Alpha  occ. eigenvalues --   -7.91657  -5.87927  -5.87786  -5.87234  -0.90576
 Alpha  occ. eigenvalues --   -0.80698  -0.74325  -0.72925  -0.68794  -0.66623
 Alpha  occ. eigenvalues --   -0.63333  -0.61535  -0.60137  -0.55685  -0.54473
 Alpha  occ. eigenvalues --   -0.50935  -0.49278  -0.46597  -0.46318  -0.40343
 Alpha  occ. eigenvalues --   -0.39240  -0.38687  -0.37077  -0.36622  -0.36114
 Alpha  occ. eigenvalues --   -0.34955  -0.34280  -0.33591  -0.32691  -0.31171
 Alpha  occ. eigenvalues --   -0.30538  -0.30407  -0.29842  -0.29393  -0.28993
 Alpha  occ. eigenvalues --   -0.28120  -0.27484  -0.26235  -0.25290  -0.25177
 Alpha  occ. eigenvalues --   -0.25009  -0.24164  -0.24034  -0.22964  -0.22664
 Alpha  occ. eigenvalues --   -0.21390  -0.16828  -0.15808  -0.12686   0.04075
 Alpha virt. eigenvalues --    0.05917   0.06057   0.06921   0.07793   0.08181
 Alpha virt. eigenvalues --    0.08656   0.09100   0.09328   0.10041   0.10320
 Alpha virt. eigenvalues --    0.10633   0.11105   0.11447   0.11769   0.12491

  Beta  occ. eigenvalues --  -88.83903 -18.97883 -14.20282 -10.11298 -10.10732
  Beta  occ. eigenvalues --  -10.09738 -10.09225 -10.08416 -10.07786 -10.07599
  Beta  occ. eigenvalues --  -10.07437 -10.07331 -10.07115 -10.07076 -10.06914
  Beta  occ. eigenvalues --   -7.91654  -5.87924  -5.87784  -5.87226  -0.90565
  Beta  occ. eigenvalues --   -0.80641  -0.74293  -0.72912  -0.68764  -0.66584
  Beta  occ. eigenvalues --   -0.63306  -0.61495  -0.60106  -0.55655  -0.54426
  Beta  occ. eigenvalues --   -0.50867  -0.49242  -0.46565  -0.46284  -0.40305
  Beta  occ. eigenvalues --   -0.39191  -0.38659  -0.37047  -0.36598  -0.36093
  Beta  occ. eigenvalues --   -0.34930  -0.34251  -0.33555  -0.32667  -0.31139
  Beta  occ. eigenvalues --   -0.30514  -0.30380  -0.29811  -0.29360  -0.28967
  Beta  occ. eigenvalues --   -0.28081  -0.27454  -0.26215  -0.25273  -0.25148
  Beta  occ. eigenvalues --   -0.24980  -0.24143  -0.24007  -0.22939  -0.22639
  Beta  occ. eigenvalues --   -0.21360  -0.16815  -0.15771  -0.12657
  Beta virt. eigenvalues --    0.06074   0.06423   0.06861   0.07541   0.08232
  Beta virt. eigenvalues --    0.08384   0.08937   0.09346   0.09739   0.10301
  Beta virt. eigenvalues --    0.10613   0.10868   0.11220   0.11669   0.12166

 Mulliken charges and spin densities:
               1          2
     1  C    0.126745  -0.696001
     2  C   -0.284650  -0.152727
     3  C   -0.298485   0.883621
     4  C    0.099962  -0.493364
     5  C    1.083958  -1.358943
     6  C   -0.758275  -0.238979
     7  C    1.057460  -0.680156
     8  C   -0.675880  -0.287466
     9  S    0.967929  -0.246340
    10  O   -0.411048   0.003632
    11  C   -0.167760  -0.480478
    12  C   -0.851674   1.046143
    13  C    0.104134  -0.783016
    14  C   -0.118403  -0.449144
    15  N   -0.365484   0.153849
    16  H   -0.177637   0.326693
    17  H   -0.144951   0.289512
    18  H   -0.166824   0.318980
    19  H   -0.088580   0.240105
    20  H    0.095599   0.027365
    21  H    0.035707   0.148303
    22  H   -0.220932   0.410418
    23  H    0.160929  -0.049083
    24  H   -0.015487   0.150969
    25  H   -0.759898   0.965248
    26  H   -0.201972   0.434663
    27  H    0.224368   0.048305
    28  H    0.204905   0.019503
    29  H    0.573906  -0.495128
    30  H   -0.062387   0.255529
    31  H    0.130212   0.072977
    32  H    0.157442   0.045795
    33  H   -0.095227   0.244879
    34  H   -0.034695   0.175084
    35  H   -0.098960   0.235447
    36  H    0.134503  -0.000419
    37  H    0.057256   0.075579
    38  H    0.031079   0.115314
    39  H   -0.269957   0.518614
    40  H    0.023071   0.204716
 Sum of Mulliken charges =  -1.00000   1.00000

 Dipole moment (field-independent basis, Debye):
    X=             -2.0704    Y=              2.0920    Z=              4.2266  Tot=              5.1505
 Quadrupole moment (field-independent basis, Debye-Ang):
   XX=           -172.4088   YY=           -161.7446   ZZ=           -152.3481
   XY=              3.2708   XZ=              9.2138   YZ=            -11.0996

 Summary of Natural Population Analysis:

                                       Natural Population
                Natural  -----------------------------------------------
    Atom  No    Charge         Core      Valence    Rydberg      Total
 -----------------------------------------------------------------------
      C    1   -0.28918      0.99967     2.28467    0.00485     3.28918
      C    2   -0.18524      0.99962     2.17680    0.00882     3.18524
      C    3   -0.10453      0.99958     2.09556    0.00938     3.10453
      C    4   -0.19087      0.99960     2.18186    0.00940     3.19087
      C    5   -0.19114      0.99961     2.18051    0.01103     3.19114
      C    6   -0.02422      0.99954     2.01022    0.01446     3.02422
      C    7   -0.17703      0.99950     2.16332    0.01422     3.17703
      C    8   -0.20212      0.99958     2.19339    0.00916     3.20212
      S    9    0.59274      4.99942     2.35819    0.04965     7.40726
      O   10   -0.49403      0.99993     3.48809    0.00600     4.49403
      C   11   -0.27747      0.99956     2.26530    0.01260     3.27747
      C   12   -0.12660      0.99961     2.11727    0.00972     3.12660
      C   13   -0.28248      0.99965     2.27704    0.00580     3.28248
      C   14   -0.28655      0.99965     2.28178    0.00511     3.28655
      N   15   -0.42343      0.99977     2.91243    0.01123     3.92343
      H   16    0.09893      0.00000     0.40001    0.00107     0.40107
      H   17    0.09841      0.00000     0.40079    0.00080     0.40159
      H   18    0.09740      0.00000     0.40168    0.00092     0.40260
      H   19    0.09588      0.00000     0.40314    0.00097     0.40412
      H   20    0.09411      0.00000     0.40496    0.00093     0.40589
      H   21    0.09302      0.00000     0.40523    0.00175     0.40698
      H   22    0.10155      0.00000     0.39723    0.00122     0.39845
      H   23    0.09706      0.00000     0.40113    0.00181     0.40294
      H   24    0.09249      0.00000     0.40586    0.00165     0.40751
      H   25    0.10630      0.00000     0.39091    0.00279     0.39370
      H   26    0.09381      0.00000     0.40337    0.00282     0.40619
      H   27    0.10158      0.00000     0.39679    0.00163     0.39842
      H   28    0.11660      0.00000     0.38230    0.00110     0.38340
      H   29    0.09825      0.00000     0.40022    0.00153     0.40175
      H   30    0.10626      0.00000     0.39209    0.00165     0.39374
      H   31    0.11461      0.00000     0.38299    0.00240     0.38539
      H   32    0.10597      0.00000     0.39223    0.00180     0.39403
      H   33    0.09816      0.00000     0.40086    0.00098     0.40184
      H   34    0.09780      0.00000     0.40144    0.00076     0.40220
      H   35    0.10107      0.00000     0.39803    0.00090     0.39893
      H   36    0.10298      0.00000     0.39602    0.00100     0.39702
      H   37    0.09717      0.00000     0.40208    0.00074     0.40283
      H   38    0.09793      0.00000     0.40118    0.00089     0.40207
      H   39    0.18236      0.00000     0.31391    0.00373     0.31764
      H   40    0.17244      0.00000     0.32511    0.00245     0.32756
 =======================================================================
   * Total *    0.00000     18.99429    44.78599    0.21972    64.00000

 Normal termination of Gaussian 16 at Thu Dec 10 18:59:53 2020.
