 Gaussian 16, Revision A.03,

 -----------------------------------------------------------
 # opt freq B3LYP/6-31G(d) empiricaldispersion=gd3bj scf=xqc
 -----------------------------------------------------------

 --------------------------------
 CID_115413159_JID_10588_neutraal
 --------------------------------
 Symbolic Z-matrix:
 Charge =  0 Multiplicity = 1

 SCF Done:  E(RB3LYP) =  -920.083039408     A.U. after   15 cycles
 SCF Done:  E(RB3LYP) =  -920.087316532     A.U. after   13 cycles
 SCF Done:  E(RB3LYP) =  -920.081999777     A.U. after   13 cycles
 SCF Done:  E(RB3LYP) =  -920.089032345     A.U. after   12 cycles
 SCF Done:  E(RB3LYP) =  -920.090655679     A.U. after   13 cycles
 SCF Done:  E(RB3LYP) =  -920.092050874     A.U. after   12 cycles
 SCF Done:  E(RB3LYP) =  -920.091408908     A.U. after   13 cycles
 SCF Done:  E(RB3LYP) =  -920.093037181     A.U. after   13 cycles
 SCF Done:  E(RB3LYP) =  -920.094822503     A.U. after   12 cycles
 SCF Done:  E(RB3LYP) =  -920.097174954     A.U. after   12 cycles
 SCF Done:  E(RB3LYP) =  -920.105868974     A.U. after    9 cycles
 SCF Done:  E(RB3LYP) =  -920.105868871     A.U. after    7 cycles
 SCF Done:  E(RB3LYP) =  -920.105868670     A.U. after    8 cycles
 SCF Done:  E(RB3LYP) =  -920.105869146     A.U. after   10 cycles
 SCF Done:  E(RB3LYP) =  -920.105868803     A.U. after    9 cycles
 Optimization completed.
    -- Stationary point found.
 Normal termination of Gaussian 16 at Sat Dec 12 17:02:19 2020.

 --------------------------------------------------------------------
 #N Geom=AllCheck Guess=TCheck SCRF=Check GenChk RB3LYP/6-31G(d) Freq
 --------------------------------------------------------------------

 Structure from the checkpoint file:  "JID_10588.chk"
 --------------------------------
 CID_115413159_JID_10588_neutraal
 --------------------------------
 Charge =  0 Multiplicity = 1

 SCF Done:  E(RB3LYP) =  -920.105868803     A.U. after    1 cycles

  Exact polarizability: 237.340  -8.494 171.830 -16.777 -13.259 130.512
 Approx polarizability: 307.501 -26.382 292.949 -31.724 -21.996 211.275

                      1                      2                      3
                      A                      A                      A
 Frequencies --      9.4675                35.9744                52.3787
 Red. masses --      4.8753                 4.2903                 4.8385
 Frc consts  --      0.0003                 0.0033                 0.0078
 IR Inten    --      0.5120                 2.1113                 0.6907

                      4                      5                      6
                      A                      A                      A
 Frequencies --     89.6945                97.2586               146.5434
 Red. masses --      4.4049                 4.4884                 5.1634
 Frc consts  --      0.0209                 0.0250                 0.0653
 IR Inten    --      0.4682                 6.3963                 3.5607

                      7                      8                      9
                      A                      A                      A
 Frequencies --    153.1497               169.5946               188.5376
 Red. masses --      3.5685                 3.0216                 3.0451
 Frc consts  --      0.0493                 0.0512                 0.0638
 IR Inten    --      1.2002                 1.0605                 0.9059

                     10                     11                     12
                      A                      A                      A
 Frequencies --    203.9598               210.5725               222.8240
 Red. masses --      2.2828                 4.0093                 3.9530
 Frc consts  --      0.0560                 0.1047                 0.1156
 IR Inten    --      0.4028                 1.3473                 0.9780

                     13                     14                     15
                      A                      A                      A
 Frequencies --    245.7344               265.4110               284.2755
 Red. masses --      2.8398                 1.6651                 2.6249
 Frc consts  --      0.1010                 0.0691                 0.1250
 IR Inten    --      2.5702                 0.9874                 2.9162

                     16                     17                     18
                      A                      A                      A
 Frequencies --    305.2020               330.7320               335.6290
 Red. masses --      3.2772                 2.5039                 3.3571
 Frc consts  --      0.1799                 0.1614                 0.2228
 IR Inten    --      5.5528                 4.1472                 1.0349

                     19                     20                     21
                      A                      A                      A
 Frequencies --    367.7586               387.0464               412.9502
 Red. masses --      2.6204                 1.4904                 2.0234
 Frc consts  --      0.2088                 0.1316                 0.2033
 IR Inten    --      9.5150                29.3887                26.7257

                     22                     23                     24
                      A                      A                      A
 Frequencies --    427.5438               433.9917               449.1507
 Red. masses --      2.3581                 3.5222                 1.2605
 Frc consts  --      0.2540                 0.3909                 0.1498
 IR Inten    --      4.2854                10.6729                50.1867

                     25                     26                     27
                      A                      A                      A
 Frequencies --    473.0391               481.0229               498.3695
 Red. masses --      2.7264                 3.2210                 2.6382
 Frc consts  --      0.3594                 0.4391                 0.3861
 IR Inten    --     21.1855                 7.4693                 7.8548

                     28                     29                     30
                      A                      A                      A
 Frequencies --    516.3140               544.9086               570.8259
 Red. masses --      3.0402                 4.1869                 3.3830
 Frc consts  --      0.4775                 0.7325                 0.6495
 IR Inten    --      1.2781                 1.6899                20.6407

                     31                     32                     33
                      A                      A                      A
 Frequencies --    597.5328               617.0406               636.6551
 Red. masses --      3.0674                 2.9491                 2.0178
 Frc consts  --      0.6453                 0.6616                 0.4819
 IR Inten    --     68.9287                19.7672                47.2392

                     34                     35                     36
                      A                      A                      A
 Frequencies --    656.6900               674.1536               717.1163
 Red. masses --      2.8523                 2.6151                 3.2267
 Frc consts  --      0.7247                 0.7003                 0.9776
 IR Inten    --     62.0927                49.4753                40.2415

                     37                     38                     39
                      A                      A                      A
 Frequencies --    753.6053               764.3151               787.5346
 Red. masses --      3.4158                 3.4069                 2.0573
 Frc consts  --      1.1430                 1.1726                 0.7518
 IR Inten    --     20.3601                 8.2200                10.6523

                     40                     41                     42
                      A                      A                      A
 Frequencies --    800.8889               821.6376               833.8045
 Red. masses --      1.5546                 1.6444                 1.7557
 Frc consts  --      0.5875                 0.6541                 0.7192
 IR Inten    --      5.0282                22.9803                73.6707

                     43                     44                     45
                      A                      A                      A
 Frequencies --    838.2644               854.2914               872.6409
 Red. masses --      3.2109                 2.7183                 1.5043
 Frc consts  --      1.3293                 1.1689                 0.6749
 IR Inten    --     30.3832                 8.7527                 3.1819

                     46                     47                     48
                      A                      A                      A
 Frequencies --    902.6117               935.9413               955.6848
 Red. masses --      2.3524                 2.1894                 1.4502
 Frc consts  --      1.1292                 1.1300                 0.7804
 IR Inten    --     13.7122                 9.1885                 2.4803

                     49                     50                     51
                      A                      A                      A
 Frequencies --    976.6703               990.2711              1002.5140
 Red. masses --      1.2816                 3.1594                 2.1258
 Frc consts  --      0.7203                 1.8254                 1.2588
 IR Inten    --      9.9405                11.5428                 4.4846

                     52                     53                     54
                      A                      A                      A
 Frequencies --   1022.3148              1052.0290              1071.6934
 Red. masses --      1.7494                 1.9254                 3.8983
 Frc consts  --      1.0772                 1.2555                 2.6379
 IR Inten    --      4.8813                 5.4151                36.0387

                     55                     56                     57
                      A                      A                      A
 Frequencies --   1082.9304              1103.6744              1111.8188
 Red. masses --      2.4665                 2.4411                 1.7288
 Frc consts  --      1.7043                 1.7519                 1.2591
 IR Inten    --     10.5809                 6.7733                19.7361

                     58                     59                     60
                      A                      A                      A
 Frequencies --   1115.6352              1137.6203              1152.1035
 Red. masses --      2.1046                 3.2364                 2.0829
 Frc consts  --      1.5433                 2.4678                 1.6289
 IR Inten    --     22.3048                40.8974                30.2268

                     61                     62                     63
                      A                      A                      A
 Frequencies --   1173.6513              1185.0207              1185.5611
 Red. masses --      1.3267                 1.5220                 1.2737
 Frc consts  --      1.0767                 1.2593                 1.0548
 IR Inten    --     33.1971                 8.7014                 1.0095

                     64                     65                     66
                      A                      A                      A
 Frequencies --   1191.3773              1217.4356              1234.9761
 Red. masses --      2.1363                 1.3732                 1.7960
 Frc consts  --      1.7865                 1.1992                 1.6139
 IR Inten    --     41.8478                11.3664                 0.4468

                     67                     68                     69
                      A                      A                      A
 Frequencies --   1253.4219              1263.7765              1303.1200
 Red. masses --      1.2568                 2.3599                 1.4034
 Frc consts  --      1.1633                 2.2207                 1.4041
 IR Inten    --     17.5451               210.6362                76.7150

                     70                     71                     72
                      A                      A                      A
 Frequencies --   1311.2336              1315.0549              1328.8994
 Red. masses --      1.7781                 1.3497                 1.4065
 Frc consts  --      1.8012                 1.3752                 1.4634
 IR Inten    --    167.9839                29.5220                22.0167

                     73                     74                     75
                      A                      A                      A
 Frequencies --   1346.5320              1370.8698              1379.4338
 Red. masses --      2.1618                 1.3829                 2.8659
 Frc consts  --      2.3094                 1.5313                 3.2130
 IR Inten    --    154.0783                 5.4856               170.5041

                     76                     77                     78
                      A                      A                      A
 Frequencies --   1391.0407              1398.2221              1401.8571
 Red. masses --      1.4786                 2.2304                 1.4320
 Frc consts  --      1.6857                 2.5692                 1.6581
 IR Inten    --      1.2744                27.5383                 1.3322

                     79                     80                     81
                      A                      A                      A
 Frequencies --   1407.2902              1413.9461              1418.3862
 Red. masses --      2.1988                 1.7546                 1.3927
 Frc consts  --      2.5657                 2.0668                 1.6508
 IR Inten    --     87.5080                47.9056                 9.0604

                     82                     83                     84
                      A                      A                      A
 Frequencies --   1459.8079              1478.3546              1495.0721
 Red. masses --      1.1755                 2.3336                 1.3016
 Frc consts  --      1.4760                 3.0049                 1.7141
 IR Inten    --     19.6814                12.8759                 2.3758

                     85                     86                     87
                      A                      A                      A
 Frequencies --   1506.6216              1508.7289              1511.1481
 Red. masses --      1.1139                 1.4588                 1.1075
 Frc consts  --      1.4897                 1.9565                 1.4901
 IR Inten    --      0.2996                22.0452                 1.3500

                     88                     89                     90
                      A                      A                      A
 Frequencies --   1520.7992              1521.6474              1527.2327
 Red. masses --      1.0843                 1.0477                 1.0961
 Frc consts  --      1.4776                 1.4293                 1.5063
 IR Inten    --      3.5893                 6.0656                11.3762

                     91                     92                     93
                      A                      A                      A
 Frequencies --   1528.3184              1534.8360              1541.6681
 Red. masses --      1.0976                 1.0796                 1.1017
 Frc consts  --      1.5105                 1.4985                 1.5427
 IR Inten    --      6.3019                42.5446                 2.2279

                     94                     95                     96
                      A                      A                      A
 Frequencies --   1561.1285              1615.8655              1662.1912
 Red. masses --      2.6665                 4.7865                 3.0869
 Frc consts  --      3.8288                 7.3634                 5.0249
 IR Inten    --     28.8057                31.5094               237.0693

                     97                     98                     99
                      A                      A                      A
 Frequencies --   1684.1837              1729.9238              3016.0524
 Red. masses --      2.0075                 3.3460                 1.0677
 Frc consts  --      3.3550                 5.8997                 5.7222
 IR Inten    --    399.4945               145.4881                41.3503

                    100                    101                    102
                      A                      A                      A
 Frequencies --   3021.2152              3028.0933              3031.1175
 Red. masses --      1.0708                 1.0642                 1.0346
 Frc consts  --      5.7587                 5.7490                 5.6002
 IR Inten    --     10.9435                38.2378                52.5764

                    103                    104                    105
                      A                      A                      A
 Frequencies --   3041.5076              3051.5525              3053.3414
 Red. masses --      1.0625                 1.0628                 1.0701
 Frc consts  --      5.7913                 5.8308                 5.8780
 IR Inten    --     32.7112                14.0290                14.9021

                    106                    107                    108
                      A                      A                      A
 Frequencies --   3074.1303              3077.8480              3084.7561
 Red. masses --      1.0946                 1.0947                 1.1024
 Frc consts  --      6.0948                 6.1100                 6.1807
 IR Inten    --     62.1386                54.7194                 5.0469

                    109                    110                    111
                      A                      A                      A
 Frequencies --   3092.3186              3092.7316              3100.3399
 Red. masses --      1.1068                 1.1019                 1.0960
 Frc consts  --      6.2356                 6.2100                 6.2072
 IR Inten    --     33.0322                35.3228                85.3000

                    112                    113                    114
                      A                      A                      A
 Frequencies --   3116.8999              3164.5853              3210.3522
 Red. masses --      1.0952                 1.1002                 1.0880
 Frc consts  --      6.2691                 6.4916                 6.6066
 IR Inten    --     34.2822                25.7672                 4.5561

                    115                    116                    117
                      A                      A                      A
 Frequencies --   3217.0400              3232.9202              3532.1613
 Red. masses --      1.0892                 1.0938                 1.0505
 Frc consts  --      6.6415                 6.7359                 7.7219
 IR Inten    --      9.2599                 2.6221                63.2970

                    118                    119                    120
                      A                      A                      A
 Frequencies --   3547.3917              3656.5360              3712.8099
 Red. masses --      1.0729                 1.0968                 1.0650
 Frc consts  --      7.9548                 8.6398                 8.6499
 IR Inten    --     14.6920                35.2413               214.5750

 - Thermochemistry -
 -------------------
 Temperature   298.150 Kelvin.  Pressure   1.00000 Atm.
 Atom     1 has atomic number  6 and mass  12.00000

 Molecular mass:   278.16304 amu.
 Principal axes and moments of inertia in atomic units:
                           1         2         3
     Eigenvalues --  2600.219748827.424689771.56121
           X            0.99998   0.00545  -0.00310
           Y           -0.00561   0.99854  -0.05371
           Z            0.00280   0.05372   0.99855
 This molecule is an asymmetric top.
 Rotational symmetry number  1.
 Warning -- assumption of classical behavior for rotation
           may cause significant error
 Rotational temperatures (Kelvin)      0.03331     0.00981     0.00886
 Rotational constants (GHZ):           0.69407     0.20445     0.18469
 Zero-point vibrational energy     955719.8 (Joules/Mol)
                                  228.42252 (Kcal/Mol)
 Warning -- explicit consideration of  32 degrees of freedom as
           vibrations may cause significant error
 Vibrational temperatures:     13.62    51.76    75.36   129.05   139.93
          (Kelvin)            210.84   220.35   244.01   271.26   293.45
                              302.97   320.59   353.56   381.87   409.01
                              439.12   475.85   482.90   529.12   556.87
                              594.14   615.14   624.42   646.23   680.60
                              692.08   717.04   742.86   784.00   821.29
                              859.72   887.78   916.00   944.83   969.96
                             1031.77  1084.27  1099.68  1133.09  1152.30
                             1182.15  1199.66  1206.08  1229.13  1255.54
                             1298.66  1346.61  1375.02  1405.21  1424.78
                             1442.39  1470.88  1513.64  1541.93  1558.10
                             1587.94  1599.66  1605.15  1636.78  1657.62
                             1688.62  1704.98  1705.76  1714.13  1751.62
                             1776.86  1803.39  1818.29  1874.90  1886.57
                             1892.07  1911.99  1937.36  1972.38  1984.70
                             2001.40  2011.73  2016.96  2024.78  2034.35
                             2040.74  2100.34  2127.02  2151.08  2167.69
                             2170.72  2174.21  2188.09  2189.31  2197.35
                             2198.91  2208.29  2218.12  2246.12  2324.87
                             2391.52  2423.16  2488.97  4339.43  4346.85
                             4356.75  4361.10  4376.05  4390.50  4393.08
                             4422.99  4428.34  4438.28  4449.16  4449.75
                             4460.70  4484.52  4553.13  4618.98  4628.60
                             4651.45  5081.99  5103.91  5260.94  5341.91

 Zero-point correction=                           0.364014 (Hartree/Particle)
 Thermal correction to Energy=                    0.383000
 Thermal correction to Enthalpy=                  0.383945
 Thermal correction to Gibbs Free Energy=         0.316360
 Sum of electronic and zero-point Energies=           -919.741854
 Sum of electronic and thermal Energies=              -919.722868
 Sum of electronic and thermal Enthalpies=            -919.721924
 Sum of electronic and thermal Free Energies=         -919.789508

                     E (Thermal)             CV                S
                      KCal/Mol        Cal/Mol-Kelvin    Cal/Mol-Kelvin
 Total                  240.336             75.462            142.243
 Electronic               0.000              0.000              0.000
 Translational            0.889              2.981             42.767
 Rotational               0.889              2.981             33.772
 Vibrational            238.559             69.500             65.703
 Vibration     1          0.593              1.987              8.120
 Vibration     2          0.594              1.982              5.469
 Vibration     3          0.596              1.977              4.725
 Vibration     4          0.602              1.956              3.667
 Vibration     5          0.603              1.951              3.509
 Vibration     6          0.617              1.906              2.717
 Vibration     7          0.619              1.899              2.633
 Vibration     8          0.625              1.880              2.440
 Vibration     9          0.633              1.856              2.242
 Vibration    10          0.640              1.834              2.097
 Vibration    11          0.643              1.825              2.039
 Vibration    12          0.649              1.806              1.936
 Vibration    13          0.660              1.770              1.761
 Vibration    14          0.671              1.736              1.626
 Vibration    15          0.683              1.703              1.508
 Vibration    16          0.696              1.664              1.388
 Vibration    17          0.713              1.614              1.257
 Vibration    18          0.717              1.604              1.233
 Vibration    19          0.740              1.539              1.089
 Vibration    20          0.755              1.498              1.012
 Vibration    21          0.777              1.442              0.916
 Vibration    22          0.789              1.410              0.867
 Vibration    23          0.795              1.396              0.846
 Vibration    24          0.808              1.363              0.798
 Vibration    25          0.830              1.310              0.729
 Vibration    26          0.837              1.292              0.707
 Vibration    27          0.854              1.254              0.662
 Vibration    28          0.871              1.214              0.619
 Vibration    29          0.900              1.151              0.555
 Vibration    30          0.927              1.094              0.503
 Vibration    31          0.955              1.037              0.454
 Vibration    32          0.977              0.996              0.421

                           ! Non-Optimized Parameters !
 Normal termination of Gaussian 16 at Sat Dec 12 17:25:15 2020.

 ----------------------------------------------------------------------
 # B3LYP/6-311++G(d,p) empiricaldispersion=gd3bj scf=xqc pop=npa geom=c
 heck
 ----------------------------------------------------------------------

 ----------------------------------------
 CID_115413159_JID_10588_Energie_neutraal
 ----------------------------------------
 Structure from the checkpoint file:  "JID_10588.chk"
 Charge =  0 Multiplicity = 1

 SCF Done:  E(RB3LYP) =  -920.377315720     A.U. after   16 cycles
 Normal termination of Gaussian 16 at Sat Dec 12 17:35:00 2020.

 ----------------------------------------------------------------------
 # B3LYP/6-311++G(d,p) empiricaldispersion=gd3bj scf=xqc pop=npa geom=c
 heck
 ----------------------------------------------------------------------

 --------------------------------------
 CID_115413159_JID_10588_Energie_kation
 --------------------------------------
 Structure from the checkpoint file:  "JID_10588.chk"
 Charge =  1 Multiplicity = 2

 SCF Done:  E(UB3LYP) =  -920.095012402     A.U. after   24 cycles
 Normal termination of Gaussian 16 at Sat Dec 12 17:55:09 2020.
 Gaussian 16:  ES64L-G16RevA.03 25-Dec-2016

 ----------------------------------------------------------------------
 # B3LYP/6-311++G(d,p) empiricaldispersion=gd3bj scf=xqc pop=npa geom=c
 heck
 ----------------------------------------------------------------------

 -------------------------------------
 CID_115413159_JID_10588_Energie_anion
 -------------------------------------
 Structure from the checkpoint file:  "JID_10588.chk"
 Charge = -1 Multiplicity = 2

                         Standard orientation:
 ---------------------------------------------------------------------
 Center     Atomic      Atomic             Coordinates (Angstroms)
 Number     Number       Type             X           Y           Z
 ---------------------------------------------------------------------
      1          6           0        5.503537   -0.048470   -1.004133
      2          8           0        4.648418   -0.830735   -0.184792
      3          6           0        3.411315   -0.348397    0.103104
      4          6           0        2.932728    0.885352   -0.335322
      5          6           0        1.641975    1.320945    0.018752
      6          6           0        0.806123    0.458960    0.773317
      7          6           0        1.330707   -0.760716    1.231724
      8          6           0        2.613011   -1.177229    0.912192
      9          6           0       -0.551623    0.894390    1.171095
     10          8           0       -0.781462    2.058608    1.522915
     11          7           0       -1.564479   -0.052649    1.210210
     12          6           0       -2.009369   -0.893249    0.048299
     13          6           0       -3.503087   -1.199915    0.320885
     14          6           0       -4.420159    0.030182    0.244726
     15          6           0       -4.248133    0.765543   -1.089899
     16          6           0       -2.777071    1.122128   -1.337768
     17          6           0       -1.881585   -0.121930   -1.282224
     18          6           0       -1.263406   -2.252459   -0.040711
     19          8           0       -0.133602   -2.289428   -0.888861
     20          7           0        1.171418    2.539177   -0.425668
     21          1           0        6.421230   -0.627605   -1.116043
     22          1           0        5.736189    0.915848   -0.534418
     23          1           0        5.059620    0.127363   -1.992183
     24          1           0        3.549041    1.537757   -0.943208
     25          1           0        0.706806   -1.378430    1.869708
     26          1           0        3.019664   -2.115313    1.271398
     27          1           0       -2.360436    0.405840    1.642792
     28          1           0       -3.833649   -1.917559   -0.439278
     29          1           0       -3.598739   -1.700859    1.293437
     30          1           0       -4.217350    0.727777    1.070196
     31          1           0       -5.460061   -0.291361    0.378587
     32          1           0       -4.871672    1.667494   -1.108181
     33          1           0       -4.604961    0.117324   -1.903757
     34          1           0       -2.444401    1.852485   -0.589730
     35          1           0       -2.664623    1.605030   -2.315823
     36          1           0       -0.834679    0.146027   -1.449182
     37          1           0       -2.148696   -0.809063   -2.095571
     38          1           0       -1.029643   -2.589218    0.980385
     39          1           0       -1.953238   -2.982974   -0.474636
     40          1           0        0.584635   -1.789275   -0.468028
     41          1           0        0.446229    2.935458    0.163635
     42          1           0        1.873561    3.199176   -0.730205
 ---------------------------------------------------------------------

 SCF Done:  E(UB3LYP) =  -920.371108035     A.U. after   33 cycles
 SCF Done:  E(UB3LYP) =  -920.371108035     a.u. after    1 cycles

 The electronic state is 2-A.
 Alpha  occ. eigenvalues --  -19.05043 -19.01380 -18.96936 -14.20990 -14.20418
 Alpha  occ. eigenvalues --  -10.14087 -10.12288 -10.12261 -10.11954 -10.11680
 Alpha  occ. eigenvalues --  -10.10974 -10.08459 -10.08430 -10.07735 -10.06696
 Alpha  occ. eigenvalues --  -10.06640 -10.06370 -10.05786 -10.05721 -10.05674
 Alpha  occ. eigenvalues --   -0.96798  -0.92108  -0.91711  -0.81373  -0.80875
 Alpha  occ. eigenvalues --   -0.73540  -0.72669  -0.66527  -0.65437  -0.65244
 Alpha  occ. eigenvalues --   -0.63200  -0.59937  -0.57783  -0.52821  -0.51809
 Alpha  occ. eigenvalues --   -0.50713  -0.50261  -0.47705  -0.45066  -0.43077
 Alpha  occ. eigenvalues --   -0.41646  -0.41205  -0.39011  -0.38570  -0.37960
 Alpha  occ. eigenvalues --   -0.37034  -0.36368  -0.36252  -0.35514  -0.33840
 Alpha  occ. eigenvalues --   -0.33213  -0.32802  -0.32286  -0.30932  -0.30128
 Alpha  occ. eigenvalues --   -0.29801  -0.29373  -0.28511  -0.28319  -0.27525
 Alpha  occ. eigenvalues --   -0.26992  -0.25968  -0.25564  -0.24310  -0.23926
 Alpha  occ. eigenvalues --   -0.23239  -0.22563  -0.22338  -0.21220  -0.19309
 Alpha  occ. eigenvalues --   -0.17875  -0.15838  -0.13769  -0.12777  -0.10076
 Alpha  occ. eigenvalues --    0.04250
 Alpha virt. eigenvalues --    0.05602   0.06052   0.07469   0.07836   0.07894
 Alpha virt. eigenvalues --    0.08589   0.09399   0.09872   0.09935   0.10279
 Alpha virt. eigenvalues --    0.10496   0.10656   0.11216   0.11932   0.12356

  Beta  occ. eigenvalues --  -19.04995 -19.01371 -18.96743 -14.20983 -14.20381
  Beta  occ. eigenvalues --  -10.13844 -10.12223 -10.12119 -10.11928 -10.11678
  Beta  occ. eigenvalues --  -10.10896 -10.08456 -10.08424 -10.07728 -10.06636
  Beta  occ. eigenvalues --  -10.06580 -10.06365 -10.05792 -10.05777 -10.05651
  Beta  occ. eigenvalues --   -0.96676  -0.91998  -0.91418  -0.81286  -0.80751
  Beta  occ. eigenvalues --   -0.73415  -0.72606  -0.66431  -0.65419  -0.65084
  Beta  occ. eigenvalues --   -0.63102  -0.59803  -0.57767  -0.52742  -0.51584
  Beta  occ. eigenvalues --   -0.50568  -0.50175  -0.47600  -0.44972  -0.42973
  Beta  occ. eigenvalues --   -0.41567  -0.41155  -0.38937  -0.38467  -0.37929
  Beta  occ. eigenvalues --   -0.36855  -0.36269  -0.36180  -0.35442  -0.33802
  Beta  occ. eigenvalues --   -0.33077  -0.32735  -0.32165  -0.30732  -0.30046
  Beta  occ. eigenvalues --   -0.29759  -0.29254  -0.28329  -0.28218  -0.27404
  Beta  occ. eigenvalues --   -0.26531  -0.25875  -0.25353  -0.24007  -0.23891
  Beta  occ. eigenvalues --   -0.23180  -0.22478  -0.22218  -0.21189  -0.19008
  Beta  occ. eigenvalues --   -0.17759  -0.15628  -0.13497  -0.12348  -0.09775
  Beta virt. eigenvalues --    0.05847   0.06820   0.07509   0.07823   0.08213
  Beta virt. eigenvalues --    0.08339   0.08823   0.09565   0.10004   0.10187
  Beta virt. eigenvalues --    0.10377   0.10543   0.10894   0.11373   0.12016

 Mulliken charges and spin densities:
               1          2
     1  C    0.545800  -0.889361
     2  O   -0.184703   0.047011
     3  C   -1.307709   0.482395
     4  C   -0.647789   0.495652
     5  C    1.224942  -0.900469
     6  C    1.199843  -0.546777
     7  C   -0.435425   0.224595
     8  C   -0.317050  -0.044553
     9  C   -0.240901   0.005608
    10  O   -0.325692   0.072511
    11  N    0.065871   0.007305
    12  C    0.229439   0.093314
    13  C   -0.449677  -0.110457
    14  C   -0.306968   0.032277
    15  C   -0.056175  -0.463601
    16  C   -0.453845   0.048145
    17  C   -0.367681  -0.033498
    18  C   -0.236788  -0.100316
    19  O   -0.233002  -0.003697
    20  N   -0.292783   0.040805
    21  H   -0.303623   0.471574
    22  H   -0.334522   0.495371
    23  H   -0.056301   0.205733
    24  H   -0.159173   0.340519
    25  H    0.158242  -0.006031
    26  H    0.168422  -0.000531
    27  H    0.293742  -0.003955
    28  H    0.047238   0.078230
    29  H    0.182151  -0.007679
    30  H    0.121191  -0.019873
    31  H   -0.067041   0.240920
    32  H    0.014215   0.150562
    33  H    0.056936   0.052258
    34  H    0.162017   0.024155
    35  H    0.097138   0.073262
    36  H    0.206916  -0.008073
    37  H    0.103869   0.091907
    38  H    0.152152  -0.002156
    39  H    0.124499   0.033224
    40  H    0.422051  -0.002283
    41  H    0.250293   0.025510
    42  H   -0.050120   0.310464
 Sum of Mulliken charges =  -1.00000   1.00000

 Dipole moment (field-independent basis, Debye):
    X=             -6.4442    Y=             -3.0590    Z=              1.3714  Tot=              7.2640
 Quadrupole moment (field-independent basis, Debye-Ang):
   XX=           -209.8504   YY=           -156.9852   ZZ=           -148.9583
   XY=             -3.8873   XZ=              5.0230   YZ=             -5.7887

 Summary of Natural Population Analysis:

                                       Natural Population
                Natural  -----------------------------------------------
    Atom  No    Charge         Core      Valence    Rydberg      Total
 -----------------------------------------------------------------------
      C    1   -0.10125      0.99960     2.09257    0.00908     3.10125
      O    2   -0.26904      0.99985     3.25980    0.00938     4.26904
      C    3    0.20112      0.99940     1.78573    0.01376     2.79888
      C    4   -0.17823      0.99949     2.16997    0.00877     3.17823
      C    5    0.12910      0.99949     1.86009    0.01133     2.87090
      C    6   -0.10959      0.99942     2.09955    0.01062     3.10959
      C    7   -0.08094      0.99956     2.07124    0.01014     3.08094
      C    8   -0.16239      0.99952     2.15205    0.01081     3.16239
      C    9    0.37520      0.99961     1.60206    0.02313     2.62480
      O   10   -0.32082      0.99988     3.31573    0.00522     4.32082
      N   11   -0.34377      0.99966     2.83340    0.01070     3.84377
      C   12    0.05794      0.99953     1.92875    0.01377     2.94206
      C   13   -0.19486      0.99959     2.18465    0.01063     3.19486
      C   14   -0.19243      0.99963     2.18392    0.00889     3.19243
      C   15   -0.18952      0.99963     2.18184    0.00805     3.18952
      C   16   -0.19795      0.99963     2.18943    0.00890     3.19795
      C   17   -0.20099      0.99958     2.19103    0.01038     3.20099
      C   18   -0.00756      0.99951     1.99578    0.01227     3.00756
      O   19   -0.37408      0.99990     3.36783    0.00636     4.37408
      N   20   -0.39519      0.99970     2.88656    0.00893     3.89519
      H   21    0.09137      0.00000     0.40754    0.00109     0.40863
      H   22    0.08749      0.00000     0.41014    0.00238     0.41251
      H   23    0.08428      0.00000     0.41446    0.00126     0.41572
      H   24    0.10395      0.00000     0.39456    0.00149     0.39605
      H   25    0.10435      0.00000     0.39465    0.00100     0.39565
      H   26    0.10387      0.00000     0.39491    0.00122     0.39613
      H   27    0.18520      0.00000     0.31270    0.00210     0.31480
      H   28    0.09943      0.00000     0.39935    0.00121     0.40057
      H   29    0.10076      0.00000     0.39829    0.00095     0.39924
      H   30    0.09245      0.00000     0.40643    0.00113     0.40755
      H   31    0.09885      0.00000     0.40018    0.00097     0.40115
      H   32    0.09732      0.00000     0.40190    0.00078     0.40268
      H   33    0.09088      0.00000     0.40803    0.00108     0.40912
      H   34    0.10627      0.00000     0.39224    0.00148     0.39373
      H   35    0.09815      0.00000     0.40101    0.00084     0.40185
      H   36    0.11470      0.00000     0.38413    0.00117     0.38530
      H   37    0.09888      0.00000     0.40009    0.00102     0.40112
      H   38    0.08121      0.00000     0.41771    0.00108     0.41879
      H   39    0.08309      0.00000     0.41574    0.00117     0.41691
      H   40    0.24286      0.00000     0.25409    0.00304     0.25714
      H   41    0.20602      0.00000     0.29218    0.00179     0.29398
      H   42    0.18385      0.00000     0.31435    0.00180     0.31615
 =======================================================================
   * Total *    0.00000     19.99217    54.76668    0.24116    75.00000

 Normal termination of Gaussian 16 at Sat Dec 12 18:23:39 2020.
