 Gaussian 16, Revision A.03,

 -----------------------------------------------------------
 # opt freq B3LYP/6-31G(d) empiricaldispersion=gd3bj scf=xqc
 -----------------------------------------------------------

 -------------------------------
 CID_126153199_JID_8965_neutraal
 -------------------------------
 Symbolic Z-matrix:
 Charge =  0 Multiplicity = 1

 SCF Done:  E(RB3LYP) =  -836.446328569     A.U. after   15 cycles
 SCF Done:  E(RB3LYP) =  -836.452625141     A.U. after   12 cycles
 SCF Done:  E(RB3LYP) =  -836.451653720     A.U. after   13 cycles
 SCF Done:  E(RB3LYP) =  -836.454269533     A.U. after   11 cycles
 SCF Done:  E(RB3LYP) =  -836.454990037     A.U. after   12 cycles
 SCF Done:  E(RB3LYP) =  -836.455270378     A.U. after   12 cycles
 SCF Done:  E(RB3LYP) =  -836.455408134     A.U. after   11 cycles
 SCF Done:  E(RB3LYP) =  -836.455514715     A.U. after   11 cycles
 SCF Done:  E(RB3LYP) =  -836.455615408     A.U. after   11 cycles
 SCF Done:  E(RB3LYP) =  -836.455682475     A.U. after   11 cycles
 SCF Done:  E(RB3LYP) =  -836.456003925     A.U. after    9 cycles
 SCF Done:  E(RB3LYP) =  -836.456004193     A.U. after    8 cycles
 SCF Done:  E(RB3LYP) =  -836.456004459     A.U. after    8 cycles
 SCF Done:  E(RB3LYP) =  -836.456004748     A.U. after    8 cycles
 SCF Done:  E(RB3LYP) =  -836.456004874     A.U. after    8 cycles
 Optimization completed.
    -- Stationary point found.
 Normal termination of Gaussian 16 at Fri Dec 11 23:18:55 2020.

 --------------------------------------------------------------------
 #N Geom=AllCheck Guess=TCheck SCRF=Check GenChk RB3LYP/6-31G(d) Freq
 --------------------------------------------------------------------

 Structure from the checkpoint file:  "JID_8965.chk"
 -------------------------------
 CID_126153199_JID_8965_neutraal
 -------------------------------
 Charge =  0 Multiplicity = 1

 SCF Done:  E(RB3LYP) =  -836.456004874     A.U. after    1 cycles

  Exact polarizability: 235.516 -14.179 147.837  19.685  12.914 103.681
 Approx polarizability: 324.115 -26.872 249.171  41.315  32.835 162.778

                      1                      2                      3
                      A                      A                      A
 Frequencies --     20.3410                37.6238                54.0575
 Red. masses --      4.8018                 4.6850                 3.5438
 Frc consts  --      0.0012                 0.0039                 0.0061
 IR Inten    --      0.7442                 0.3164                 1.1197

                      4                      5                      6
                      A                      A                      A
 Frequencies --     59.4402                69.1044               106.6487
 Red. masses --      1.1824                 7.2022                 5.8639
 Frc consts  --      0.0025                 0.0203                 0.0393
 IR Inten    --      0.2523                 3.6944                 0.6050

                      7                      8                      9
                      A                      A                      A
 Frequencies --    116.6928               134.9152               160.8743
 Red. masses --      3.4087                 2.9939                 1.0882
 Frc consts  --      0.0273                 0.0321                 0.0166
 IR Inten    --      5.4799                 0.5937                 0.1334

                     10                     11                     12
                      A                      A                      A
 Frequencies --    179.8082               195.6667               227.3674
 Red. masses --      2.5403                 4.3130                 4.1828
 Frc consts  --      0.0484                 0.0973                 0.1274
 IR Inten    --      5.0011                 4.0748                 3.0080

                     13                     14                     15
                      A                      A                      A
 Frequencies --    254.9861               289.3456               305.0191
 Red. masses --      4.3490                 2.7789                 4.3248
 Frc consts  --      0.1666                 0.1371                 0.2371
 IR Inten    --      3.0187                 2.2276                 0.5830

                     16                     17                     18
                      A                      A                      A
 Frequencies --    334.0251               362.9782               375.2315
 Red. masses --      3.1940                 5.5934                 3.2067
 Frc consts  --      0.2100                 0.4342                 0.2660
 IR Inten    --      4.1127                 3.2451                 5.4583

                     19                     20                     21
                      A                      A                      A
 Frequencies --    396.3066               441.3346               501.1729
 Red. masses --      6.1547                 3.0742                 1.3121
 Frc consts  --      0.5695                 0.3528                 0.1942
 IR Inten    --      2.6221                 4.6540                67.9013

                     22                     23                     24
                      A                      A                      A
 Frequencies --    525.7603               534.4044               558.5853
 Red. masses --      5.1768                 1.7643                 3.5203
 Frc consts  --      0.8431                 0.2969                 0.6472
 IR Inten    --      5.5998               115.1202                 9.9227

                     25                     26                     27
                      A                      A                      A
 Frequencies --    583.0459               597.7504               617.7820
 Red. masses --      1.4095                 4.7935                 3.0997
 Frc consts  --      0.2823                 1.0091                 0.6970
 IR Inten    --     83.6051                 4.4974                12.6821

                     28                     29                     30
                      A                      A                      A
 Frequencies --    635.6527               666.5870               694.9631
 Red. masses --      3.6126                 5.3564                 5.2908
 Frc consts  --      0.8600                 1.4023                 1.5055
 IR Inten    --     13.6602                10.6030                 6.9027

                     31                     32                     33
                      A                      A                      A
 Frequencies --    745.2544               762.9922               778.1986
 Red. masses --      4.2843                 5.1498                 3.9815
 Frc consts  --      1.4020                 1.7664                 1.4206
 IR Inten    --      5.3328                 2.5676                24.2972

                     34                     35                     36
                      A                      A                      A
 Frequencies --    801.9566               812.5407               840.9272
 Red. masses --      1.9405                 3.2585                 1.5259
 Frc consts  --      0.7353                 1.2675                 0.6358
 IR Inten    --     14.7162                52.2636                20.7483

                     37                     38                     39
                      A                      A                      A
 Frequencies --    865.2824               907.5426               909.8762
 Red. masses --      4.1228                 2.5916                 1.9058
 Frc consts  --      1.8187                 1.2576                 0.9296
 IR Inten    --     18.6652                 1.9533                26.4348

                     40                     41                     42
                      A                      A                      A
 Frequencies --    911.7156               919.4749               965.3596
 Red. masses --      1.4067                 1.6686                 2.3221
 Frc consts  --      0.6889                 0.8312                 1.2750
 IR Inten    --      0.6861                10.2343                31.6623

                     43                     44                     45
                      A                      A                      A
 Frequencies --    998.3134              1033.5321              1074.1013
 Red. masses --      2.1343                 1.6679                 1.5014
 Frc consts  --      1.2532                 1.0497                 1.0206
 IR Inten    --     17.0734                 9.0762                 2.0701

                     46                     47                     48
                      A                      A                      A
 Frequencies --   1074.3418              1119.4951              1125.8905
 Red. masses --      2.7674                 2.4111                 2.5058
 Frc consts  --      1.8819                 1.7803                 1.8715
 IR Inten    --    102.9056                15.8588                14.5155

                     49                     50                     51
                      A                      A                      A
 Frequencies --   1138.8295              1161.2349              1175.2948
 Red. masses --      3.2860                 1.2952                 1.3615
 Frc consts  --      2.5110                 1.0290                 1.1081
 IR Inten    --     19.7524                 0.1459                11.9748

                     52                     53                     54
                      A                      A                      A
 Frequencies --   1203.9595              1213.0987              1236.3246
 Red. masses --      2.2864                 2.6128                 1.2411
 Frc consts  --      1.9527                 2.2654                 1.1177
 IR Inten    --     56.2351                 0.8021               126.3986

                     55                     56                     57
                      A                      A                      A
 Frequencies --   1277.2091              1287.1144              1296.6595
 Red. masses --      1.5859                 2.0251                 1.6106
 Frc consts  --      1.5242                 1.9767                 1.5955
 IR Inten    --     42.8068                 0.2767                16.1741

                     58                     59                     60
                      A                      A                      A
 Frequencies --   1368.7705              1383.4122              1405.1783
 Red. masses --      5.5817                 1.6266                 2.9717
 Frc consts  --      6.1614                 1.8341                 3.4571
 IR Inten    --     54.0136               103.0188                10.6887

                     61                     62                     63
                      A                      A                      A
 Frequencies --   1419.6163              1423.8228              1433.6154
 Red. masses --      1.2795                 2.1329                 1.9316
 Frc consts  --      1.5193                 2.5476                 2.3390
 IR Inten    --      1.6269                67.7586               316.9925

                     64                     65                     66
                      A                      A                      A
 Frequencies --   1440.2916              1442.2865              1467.6691
 Red. masses --      1.3696                 1.7534                 2.3613
 Frc consts  --      1.6740                 2.1490                 2.9968
 IR Inten    --     42.1719                12.0117                32.4245

                     67                     68                     69
                      A                      A                      A
 Frequencies --   1488.2172              1492.8536              1506.5901
 Red. masses --      1.2422                 1.3116                 1.0425
 Frc consts  --      1.6209                 1.7222                 1.3941
 IR Inten    --      5.6822                 8.8034                16.5812

                     70                     71                     72
                      A                      A                      A
 Frequencies --   1509.3570              1519.2428              1520.4980
 Red. masses --      1.8479                 1.2804                 1.0430
 Frc consts  --      2.4804                 1.7412                 1.4207
 IR Inten    --     98.7251                 2.3040                 0.1825

                     73                     74                     75
                      A                      A                      A
 Frequencies --   1522.1794              1532.2569              1540.3178
 Red. masses --      1.3222                 1.1456                 2.9865
 Frc consts  --      1.8050                 1.5847                 4.1747
 IR Inten    --     60.7702                29.3607                42.8152

                     76                     77                     78
                      A                      A                      A
 Frequencies --   1547.6435              1585.3026              1645.2888
 Red. masses --      1.2096                 5.3239                 6.7930
 Frc consts  --      1.7070                 7.8833                10.8342
 IR Inten    --      9.6090                94.6549                29.8878

                     79                     80                     81
                      A                      A                      A
 Frequencies --   1684.5143              1774.7016              3014.8410
 Red. masses --      7.1813                 5.5221                 1.0689
 Frc consts  --     12.0061                10.2472                 5.7243
 IR Inten    --     12.2039               641.4056                39.2551

                     82                     83                     84
                      A                      A                      A
 Frequencies --   3048.4244              3052.4695              3085.3506
 Red. masses --      1.0402                 1.0370                 1.0655
 Frc consts  --      5.6955                 5.6927                 5.9762
 IR Inten    --     20.3852                63.3116                 7.9621

                     85                     86                     87
                      A                      A                      A
 Frequencies --   3098.6842              3101.4495              3106.0505
 Red. masses --      1.1012                 1.0900                 1.1058
 Frc consts  --      6.2296                 6.1773                 6.2856
 IR Inten    --     14.7971                55.3909                19.6591

                     88                     89                     90
                      A                      A                      A
 Frequencies --   3137.0428              3170.4110              3172.7440
 Red. masses --      1.1076                 1.0978                 1.0986
 Frc consts  --      6.4219                 6.5015                 6.5157
 IR Inten    --     19.5165                 4.9826                 6.4197

                     91                     92                     93
                      A                      A                      A
 Frequencies --   3187.3423              3207.1038              3251.6714
 Red. masses --      1.0876                 1.0944                 1.0916
 Frc consts  --      6.5101                 6.6321                 6.8005
 IR Inten    --      8.3246                14.6587                 0.5159

                     94                     95                     96
                      A                      A                      A
 Frequencies --   3549.6778              3609.5289              3691.2470
 Red. masses --      1.0740                 1.0757                 1.0670
 Frc consts  --      7.9734                 8.2572                 8.5653
 IR Inten    --     22.2633                36.0049                44.9185

 - Thermochemistry -
 -------------------
 Temperature   298.150 Kelvin.  Pressure   1.00000 Atm.
 Atom     1 has atomic number  6 and mass  12.00000

 Molecular mass:   248.12733 amu.
 Principal axes and moments of inertia in atomic units:
                           1         2         3
     Eigenvalues --  1862.753069212.669529733.65937
           X            1.00000   0.00129  -0.00105
           Y           -0.00125   0.99935   0.03611
           Z            0.00109  -0.03611   0.99935
 This molecule is an asymmetric top.
 Rotational symmetry number  1.
 Warning -- assumption of classical behavior for rotation
           may cause significant error
 Rotational temperatures (Kelvin)      0.04650     0.00940     0.00890
 Rotational constants (GHZ):           0.96886     0.19590     0.18541
 Zero-point vibrational energy     740558.2 (Joules/Mol)
                                  176.99765 (Kcal/Mol)
 Warning -- explicit consideration of  27 degrees of freedom as
           vibrations may cause significant error
 Vibrational temperatures:     29.27    54.13    77.78    85.52    99.43
          (Kelvin)            153.44   167.89   194.11   231.46   258.70
                              281.52   327.13   366.87   416.30   438.85
                              480.59   522.24   539.87   570.20   634.98
                              721.08   756.45   768.89   803.68   838.87
                              860.03   888.85   914.56   959.07   999.90
                             1072.25  1097.78  1119.65  1153.84  1169.06
                             1209.91  1244.95  1305.75  1309.11  1311.76
                             1322.92  1388.94  1436.35  1487.02  1545.39
                             1545.74  1610.70  1619.91  1638.52  1670.76
                             1690.99  1732.23  1745.38  1778.80  1837.62
                             1851.87  1865.60  1969.36  1990.42  2021.74
                             2042.51  2048.56  2062.65  2072.26  2075.13
                             2111.65  2141.21  2147.88  2167.65  2171.63
                             2185.85  2187.66  2190.08  2204.58  2216.17
                             2226.71  2280.90  2367.20  2423.64  2553.40
                             4337.68  4386.00  4391.82  4439.13  4458.32
                             4462.29  4468.91  4513.50  4561.51  4564.87
                             4585.87  4614.31  4678.43  5107.19  5193.31
                             5310.88

 Zero-point correction=                           0.282064 (Hartree/Particle)
 Thermal correction to Energy=                    0.299372
 Thermal correction to Enthalpy=                  0.300316
 Thermal correction to Gibbs Free Energy=         0.235128
 Sum of electronic and zero-point Energies=           -836.173941
 Sum of electronic and thermal Energies=              -836.156633
 Sum of electronic and thermal Enthalpies=            -836.155689
 Sum of electronic and thermal Free Energies=         -836.220877

                     E (Thermal)             CV                S
                      KCal/Mol        Cal/Mol-Kelvin    Cal/Mol-Kelvin
 Total                  187.859             64.492            137.199
 Electronic               0.000              0.000              0.000
 Translational            0.889              2.981             42.427
 Rotational               0.889              2.981             33.479
 Vibrational            186.081             58.531             61.293
 Vibration     1          0.593              1.986              6.601
 Vibration     2          0.594              1.982              5.380
 Vibration     3          0.596              1.976              4.663
 Vibration     4          0.597              1.974              4.476
 Vibration     5          0.598              1.969              4.179
 Vibration     6          0.606              1.944              3.329
 Vibration     7          0.608              1.936              3.154
 Vibration     8          0.613              1.918              2.875
 Vibration     9          0.622              1.890              2.539
 Vibration    10          0.629              1.867              2.330
 Vibration    11          0.636              1.846              2.173
 Vibration    12          0.651              1.799              1.900
 Vibration    13          0.665              1.754              1.696
 Vibration    14          0.686              1.694              1.478
 Vibration    15          0.696              1.664              1.389
 Vibration    16          0.716              1.608              1.241
 Vibration    17          0.737              1.548              1.109
 Vibration    18          0.746              1.523              1.058
 Vibration    19          0.763              1.478              0.976
 Vibration    20          0.801              1.380              0.822
 Vibration    21          0.857              1.247              0.655
 Vibration    22          0.881              1.193              0.597
 Vibration    23          0.889              1.174              0.577
 Vibration    24          0.914              1.121              0.527
 Vibration    25          0.940              1.068              0.480
 Vibration    26          0.956              1.037              0.454
 Vibration    27          0.978              0.994              0.420

                           ! Non-Optimized Parameters !
 Normal termination of Gaussian 16 at Fri Dec 11 23:31:50 2020.

 ----------------------------------------------------------------------
 # B3LYP/6-311++G(d,p) empiricaldispersion=gd3bj scf=xqc pop=npa geom=c
 heck
 ----------------------------------------------------------------------

 ---------------------------------------
 CID_126153199_JID_8965_Energie_neutraal
 ---------------------------------------
 Structure from the checkpoint file:  "JID_8965.chk"
 Charge =  0 Multiplicity = 1

 SCF Done:  E(RB3LYP) =  -836.699108370     A.U. after   15 cycles
 Normal termination of Gaussian 16 at Fri Dec 11 23:37:47 2020.

 ----------------------------------------------------------------------
 # B3LYP/6-311++G(d,p) empiricaldispersion=gd3bj scf=xqc pop=npa geom=c
 heck
 ----------------------------------------------------------------------

 -------------------------------------
 CID_126153199_JID_8965_Energie_kation
 -------------------------------------
 Structure from the checkpoint file:  "JID_8965.chk"
 Charge =  1 Multiplicity = 2

 SCF Done:  E(UB3LYP) =  -836.417752036     A.U. after   28 cycles
 Normal termination of Gaussian 16 at Fri Dec 11 23:53:22 2020.
 Gaussian 16:  ES64L-G16RevA.03 25-Dec-2016

 ----------------------------------------------------------------------
 # B3LYP/6-311++G(d,p) empiricaldispersion=gd3bj scf=xqc pop=npa geom=c
 heck
 ----------------------------------------------------------------------

 ------------------------------------
 CID_126153199_JID_8965_Energie_anion
 ------------------------------------
 Structure from the checkpoint file:  "JID_8965.chk"
 Charge = -1 Multiplicity = 2

                         Standard orientation:
 ---------------------------------------------------------------------
 Center     Atomic      Atomic             Coordinates (Angstroms)
 Number     Number       Type             X           Y           Z
 ---------------------------------------------------------------------
      1          6           0        4.770747   -1.839235   -0.298440
      2          6           0        3.525685   -1.017639   -0.252215
      3          7           0        2.365775   -1.398664   -0.741150
      4          6           0        1.495659   -0.347376   -0.486612
      5          6           0        2.179335    0.695843    0.181149
      6          7           0        3.482588    0.244195    0.322279
      7          6           0        4.556357    0.980535    0.955404
      8          6           0        1.542619    1.876736    0.555532
      9          6           0        0.188499    1.985228    0.254263
     10          6           0       -0.507690    0.956779   -0.420644
     11          6           0        0.142408   -0.216953   -0.807933
     12          7           0       -1.875050    1.201312   -0.708049
     13          6           0       -2.917867    0.346734   -0.982929
     14          8           0       -3.955897    0.767711   -1.494314
     15          7           0       -2.755526   -0.996836   -0.631029
     16          6           0       -2.538405   -1.308252    0.794857
     17          6           0       -3.591103   -0.626782    1.682005
     18          8           0       -4.907487   -0.838481    1.191167
     19          1           0        5.571916   -1.337078   -0.854393
     20          1           0        4.538105   -2.780044   -0.799232
     21          1           0        5.150903   -2.063124    0.705802
     22          1           0        4.317369    1.186922    2.004886
     23          1           0        5.474419    0.393426    0.915580
     24          1           0        4.726722    1.932482    0.439949
     25          1           0        2.063341    2.679693    1.068202
     26          1           0       -0.355506    2.879268    0.546301
     27          1           0       -0.385989   -1.003509   -1.330722
     28          1           0       -2.127577    2.161778   -0.900771
     29          1           0       -3.586007   -1.480008   -0.960781
     30          1           0       -2.611210   -2.395645    0.886770
     31          1           0       -1.527724   -1.015067    1.092194
     32          1           0       -3.555101   -1.045033    2.693604
     33          1           0       -3.365669    0.447790    1.759344
     34          1           0       -5.022905   -0.259443    0.417479
 ---------------------------------------------------------------------

 SCF Done:  E(UB3LYP) =  -836.695016549     A.U. after   33 cycles
 SCF Done:  E(UB3LYP) =  -836.695016549     a.u. after    1 cycles

 The electronic state is 2-A.
 Alpha  occ. eigenvalues --  -19.05243 -19.01648 -14.27136 -14.26773 -14.25236
 Alpha  occ. eigenvalues --  -14.19685 -10.22313 -10.14706 -10.14555 -10.13199
 Alpha  occ. eigenvalues --  -10.12891 -10.11216 -10.10993 -10.10054 -10.08661
 Alpha  occ. eigenvalues --  -10.08482 -10.08381 -10.07715  -0.98119  -0.95387
 Alpha  occ. eigenvalues --   -0.92360  -0.86406  -0.83725  -0.79679  -0.75204
 Alpha  occ. eigenvalues --   -0.67769  -0.66763  -0.66018  -0.62667  -0.61577
 Alpha  occ. eigenvalues --   -0.56883  -0.54476  -0.52520  -0.50317  -0.47802
 Alpha  occ. eigenvalues --   -0.45742  -0.44846  -0.42335  -0.41911  -0.41274
 Alpha  occ. eigenvalues --   -0.39273  -0.38443  -0.38372  -0.36264  -0.35514
 Alpha  occ. eigenvalues --   -0.35324  -0.34127  -0.33208  -0.33094  -0.32563
 Alpha  occ. eigenvalues --   -0.32060  -0.31403  -0.30331  -0.30104  -0.29671
 Alpha  occ. eigenvalues --   -0.27589  -0.26661  -0.25958  -0.22077  -0.21376
 Alpha  occ. eigenvalues --   -0.20953  -0.19587  -0.18152  -0.17788  -0.13603
 Alpha  occ. eigenvalues --   -0.12205   0.03713
 Alpha virt. eigenvalues --    0.05643   0.06043   0.06706   0.07214   0.07757
 Alpha virt. eigenvalues --    0.08043   0.08665   0.08840   0.09493   0.10143
 Alpha virt. eigenvalues --    0.10701   0.11042   0.11365   0.11676   0.12368

  Beta  occ. eigenvalues --  -19.05242 -19.01638 -14.27137 -14.26775 -14.25237
  Beta  occ. eigenvalues --  -14.19681 -10.22294 -10.14699 -10.14515 -10.13196
  Beta  occ. eigenvalues --  -10.12892 -10.11138 -10.10993 -10.10046 -10.08606
  Beta  occ. eigenvalues --  -10.08466 -10.08344 -10.07661  -0.98097  -0.95383
  Beta  occ. eigenvalues --   -0.92328  -0.86393  -0.83718  -0.79655  -0.75150
  Beta  occ. eigenvalues --   -0.67711  -0.66747  -0.65925  -0.62587  -0.61504
  Beta  occ. eigenvalues --   -0.56862  -0.54435  -0.52490  -0.50251  -0.47732
  Beta  occ. eigenvalues --   -0.45713  -0.44821  -0.42272  -0.41888  -0.41246
  Beta  occ. eigenvalues --   -0.39253  -0.38399  -0.38297  -0.36231  -0.35471
  Beta  occ. eigenvalues --   -0.35283  -0.34077  -0.33134  -0.33062  -0.32503
  Beta  occ. eigenvalues --   -0.32044  -0.31361  -0.30251  -0.30042  -0.29628
  Beta  occ. eigenvalues --   -0.27549  -0.26651  -0.25882  -0.22064  -0.21325
  Beta  occ. eigenvalues --   -0.20888  -0.19510  -0.18124  -0.17772  -0.13426
  Beta  occ. eigenvalues --   -0.12095
  Beta virt. eigenvalues --    0.05891   0.06225   0.06736   0.06927   0.07543
  Beta virt. eigenvalues --    0.07983   0.08522   0.08803   0.09697   0.09992
  Beta virt. eigenvalues --    0.10360   0.10964   0.11093   0.11637   0.12161

 Mulliken charges and spin densities:
               1          2
     1  C    2.407834  -2.731066
     2  C   -1.046309   1.394778
     3  N   -0.159040   0.051011
     4  C   -0.336390   0.175874
     5  C   -0.064416  -0.167306
     6  N   -0.248990   0.273126
     7  C    1.945526  -2.257017
     8  C   -0.226395  -0.059604
     9  C   -0.896287   0.460624
    10  C    0.701433  -0.656530
    11  C   -0.187909   0.072356
    12  N   -0.259682   0.057113
    13  C    0.171548  -0.108380
    14  O   -0.339115   0.012723
    15  N   -0.425239  -0.001668
    16  C   -0.128342   0.061805
    17  C   -0.385243  -0.151726
    18  O   -0.225354   0.004713
    19  H   -0.137861   0.317995
    20  H    0.102586   0.065303
    21  H   -0.335774   0.524650
    22  H   -0.443756   0.621072
    23  H   -0.819125   0.981970
    24  H   -0.549776   0.733299
    25  H   -0.440374   0.617261
    26  H   -0.314590   0.476578
    27  H    0.210129   0.021680
    28  H    0.261897   0.052488
    29  H    0.370359  -0.003579
    30  H    0.182713   0.003579
    31  H    0.166518   0.002407
    32  H    0.106006   0.066829
    33  H    0.110468   0.077429
    34  H    0.232949   0.010214
 Sum of Mulliken charges =  -1.00000   1.00000

 Dipole moment (field-independent basis, Debye):
    X=             -9.5472    Y=             -2.8505    Z=             -1.3092  Tot=             10.0493
 Quadrupole moment (field-independent basis, Debye-Ang):
   XX=           -239.5997   YY=           -144.7600   ZZ=           -140.8137
   XY=             -5.5140   XZ=            -15.7312   YZ=             -3.1916

 Summary of Natural Population Analysis:

                                       Natural Population
                Natural  -----------------------------------------------
    Atom  No    Charge         Core      Valence    Rydberg      Total
 -----------------------------------------------------------------------
      C    1   -0.31153      0.99963     2.30621    0.00569     3.31153
      C    2    0.22808      0.99961     1.75534    0.01697     2.77192
      N    3   -0.26588      0.99968     2.75710    0.00910     3.76588
      C    4    0.06644      0.99946     1.92034    0.01376     2.93356
      C    5    0.06654      0.99945     1.92273    0.01129     2.93346
      N    6   -0.21387      0.99960     2.70384    0.01044     3.71387
      C    7   -0.17573      0.99964     2.16772    0.00838     3.17573
      C    8   -0.10105      0.99953     2.09236    0.00917     3.10105
      C    9   -0.11577      0.99954     2.10585    0.01037     3.11577
      C   10    0.05850      0.99948     1.93062    0.01140     2.94150
      C   11   -0.11130      0.99948     2.10283    0.00898     3.11130
      N   12   -0.31364      0.99963     2.80441    0.00960     3.81364
      C   13    0.40532      0.99970     1.57057    0.02441     2.59468
      O   14   -0.34330      0.99988     3.33777    0.00565     4.34330
      N   15   -0.34208      0.99970     2.83106    0.01133     3.84208
      C   16   -0.10487      0.99962     2.09564    0.00960     3.10487
      C   17   -0.02258      0.99961     2.01133    0.01164     3.02258
      O   18   -0.37662      0.99990     3.36969    0.00703     4.37662
      H   19    0.10935      0.00000     0.38951    0.00114     0.39065
      H   20    0.11412      0.00000     0.38480    0.00108     0.38588
      H   21    0.11245      0.00000     0.38566    0.00189     0.38755
      H   22    0.10103      0.00000     0.39655    0.00242     0.39897
      H   23    0.10886      0.00000     0.38732    0.00382     0.39114
      H   24    0.10357      0.00000     0.39306    0.00337     0.39643
      H   25    0.10868      0.00000     0.38979    0.00153     0.39132
      H   26    0.10016      0.00000     0.39852    0.00132     0.39984
      H   27    0.11431      0.00000     0.38410    0.00160     0.38569
      H   28    0.19913      0.00000     0.29872    0.00215     0.30087
      H   29    0.18982      0.00000     0.30851    0.00166     0.31018
      H   30    0.09648      0.00000     0.40254    0.00098     0.40352
      H   31    0.10857      0.00000     0.39016    0.00126     0.39143
      H   32    0.08816      0.00000     0.41051    0.00133     0.41184
      H   33    0.08210      0.00000     0.41641    0.00149     0.41790
      H   34    0.23654      0.00000     0.26028    0.00318     0.26346
 =======================================================================
   * Total *   -0.00000     17.99313    47.78185    0.22502    66.00000

 Normal termination of Gaussian 16 at Sat Dec 12 00:11:34 2020.
