 Gaussian 16, Revision A.03,

 -----------------------------------------------------------
 # opt freq B3LYP/6-31G(d) empiricaldispersion=gd3bj scf=xqc
 -----------------------------------------------------------

 ------------------------------
 CID_96605930_JID_6072_neutraal
 ------------------------------
 Symbolic Z-matrix:
 Charge =  0 Multiplicity = 1

 SCF Done:  E(RB3LYP) =  -778.817785281     A.U. after   15 cycles
 SCF Done:  E(RB3LYP) =  -778.824946997     A.U. after   12 cycles
 SCF Done:  E(RB3LYP) =  -778.826250227     A.U. after   12 cycles
 SCF Done:  E(RB3LYP) =  -778.826619010     A.U. after   13 cycles
 SCF Done:  E(RB3LYP) =  -778.827549515     A.U. after   12 cycles
 SCF Done:  E(RB3LYP) =  -778.827863908     A.U. after   12 cycles
 SCF Done:  E(RB3LYP) =  -778.828000322     A.U. after   12 cycles
 SCF Done:  E(RB3LYP) =  -778.828064646     A.U. after   11 cycles
 SCF Done:  E(RB3LYP) =  -778.828125368     A.U. after   11 cycles
 SCF Done:  E(RB3LYP) =  -778.828163925     A.U. after   11 cycles
 SCF Done:  E(RB3LYP) =  -778.828631511     A.U. after   10 cycles
 SCF Done:  E(RB3LYP) =  -778.828640027     A.U. after    9 cycles
 SCF Done:  E(RB3LYP) =  -778.828647161     A.U. after   10 cycles
 SCF Done:  E(RB3LYP) =  -778.828648503     A.U. after    8 cycles
 SCF Done:  E(RB3LYP) =  -778.828648723     A.U. after    8 cycles
 Optimization completed.
    -- Stationary point found.
 Normal termination of Gaussian 16 at Thu Dec 10 21:14:53 2020.

 --------------------------------------------------------------------
 #N Geom=AllCheck Guess=TCheck SCRF=Check GenChk RB3LYP/6-31G(d) Freq
 --------------------------------------------------------------------

 Structure from the checkpoint file:  "JID_6072.chk"
 ------------------------------
 CID_96605930_JID_6072_neutraal
 ------------------------------
 Charge =  0 Multiplicity = 1

 SCF Done:  E(RB3LYP) =  -778.828648723     A.U. after    1 cycles

  Exact polarizability: 180.554   0.209 147.157  -8.160   6.687  79.632
 Approx polarizability: 252.671  -7.438 240.495 -20.071  21.310 121.762

                      1                      2                      3
                      A                      A                      A
 Frequencies --     37.9974                57.5493                61.2613
 Red. masses --      3.6987                 4.6517                 5.3959
 Frc consts  --      0.0031                 0.0091                 0.0119
 IR Inten    --      1.9210                 0.9018                 1.7263

                      4                      5                      6
                      A                      A                      A
 Frequencies --     77.7781                90.3559               110.7232
 Red. masses --      1.1594                 2.8042                 2.9523
 Frc consts  --      0.0041                 0.0135                 0.0213
 IR Inten    --      0.0511                 1.6303                 3.9083

                      7                      8                      9
                      A                      A                      A
 Frequencies --    129.2546               143.1996               151.8631
 Red. masses --      4.2405                 1.1385                 1.9337
 Frc consts  --      0.0417                 0.0138                 0.0263
 IR Inten    --      2.8211                 0.3102                 1.5103

                     10                     11                     12
                      A                      A                      A
 Frequencies --    198.6890               207.6979               246.1422
 Red. masses --      2.3977                 2.4839                 3.2930
 Frc consts  --      0.0558                 0.0631                 0.1175
 IR Inten    --      1.6753                 2.4666                 8.4826

                     13                     14                     15
                      A                      A                      A
 Frequencies --    253.5711               273.3612               303.0840
 Red. masses --      2.8950                 3.7642                 4.3364
 Frc consts  --      0.1097                 0.1657                 0.2347
 IR Inten    --      0.5573                 6.5017                 1.5524

                     16                     17                     18
                      A                      A                      A
 Frequencies --    342.5920               376.8984               393.4662
 Red. masses --      4.4945                 5.0353                 8.9481
 Frc consts  --      0.3108                 0.4214                 0.8162
 IR Inten    --      5.1747                 3.3848                 1.1452

                     19                     20                     21
                      A                      A                      A
 Frequencies --    441.3842               460.8878               533.4704
 Red. masses --      2.4879                 5.0353                 3.1497
 Frc consts  --      0.2856                 0.6302                 0.5281
 IR Inten    --      0.6279                 0.9328                28.5499

                     22                     23                     24
                      A                      A                      A
 Frequencies --    587.8009               598.5612               624.3830
 Red. masses --      1.8590                 2.4157                 1.9370
 Frc consts  --      0.3784                 0.5099                 0.4449
 IR Inten    --     98.5831               142.4411                57.3780

                     25                     26                     27
                      A                      A                      A
 Frequencies --    640.1630               652.5471               697.6335
 Red. masses --      2.9922                 3.6028                 3.9339
 Frc consts  --      0.7225                 0.9039                 1.1281
 IR Inten    --     56.2572                20.8722                16.0279

                     28                     29                     30
                      A                      A                      A
 Frequencies --    720.8271               738.4247               773.7431
 Red. masses --      7.7441                 5.3916                 5.2408
 Frc consts  --      2.3707                 1.7321                 1.8486
 IR Inten    --      6.9536                12.1257                23.4811

                     31                     32                     33
                      A                      A                      A
 Frequencies --    784.8563               861.6500               934.1714
 Red. masses --      5.5126                 5.9976                 4.1598
 Frc consts  --      2.0007                 2.6235                 2.1388
 IR Inten    --     22.5257                 5.4697                38.6086

                     34                     35                     36
                      A                      A                      A
 Frequencies --    948.3176              1012.5278              1035.8314
 Red. masses --      2.4824                 1.9793                 1.9895
 Frc consts  --      1.3153                 1.1956                 1.2577
 IR Inten    --      2.9912                 2.6911                10.3591

                     37                     38                     39
                      A                      A                      A
 Frequencies --   1072.7262              1077.3212              1080.3774
 Red. masses --      1.5334                 1.8980                 1.8571
 Frc consts  --      1.0397                 1.2979                 1.2771
 IR Inten    --      5.1534                 2.5562                 8.2759

                     40                     41                     42
                      A                      A                      A
 Frequencies --   1121.9306              1136.2447              1181.8671
 Red. masses --      3.8836                 3.1576                 4.4314
 Frc consts  --      2.8802                 2.4019                 3.6469
 IR Inten    --    142.6478                88.4878               113.1412

                     43                     44                     45
                      A                      A                      A
 Frequencies --   1192.4819              1193.4779              1222.6586
 Red. masses --      1.5949                 1.9900                 1.5950
 Frc consts  --      1.3362                 1.6701                 1.4048
 IR Inten    --     63.4883                81.5264                23.3244

                     46                     47                     48
                      A                      A                      A
 Frequencies --   1251.0562              1270.2176              1312.5600
 Red. masses --      2.3339                 2.5904                 1.2934
 Frc consts  --      2.1522                 2.4625                 1.3128
 IR Inten    --     16.0715                37.8425                10.8038

                     49                     50                     51
                      A                      A                      A
 Frequencies --   1358.5628              1381.7503              1389.6280
 Red. masses --      3.8952                 1.4578                 3.4538
 Frc consts  --      4.2358                 1.6399                 3.9295
 IR Inten    --     16.1608                14.7456                34.9256

                     52                     53                     54
                      A                      A                      A
 Frequencies --   1418.7941              1444.4886              1450.9698
 Red. masses --      2.6909                 1.5217                 1.3605
 Frc consts  --      3.1915                 1.8707                 1.6876
 IR Inten    --     11.7424                 4.3386                19.7516

                     55                     56                     57
                      A                      A                      A
 Frequencies --   1457.6775              1486.8967              1501.5569
 Red. masses --      4.1630                 2.5818                 1.2108
 Frc consts  --      5.2117                 3.3631                 1.6084
 IR Inten    --    113.6504                26.7223                 1.4572

                     58                     59                     60
                      A                      A                      A
 Frequencies --   1504.9541              1509.3876              1515.8605
 Red. masses --      1.0492                 1.0431                 1.0499
 Frc consts  --      1.4001                 1.4002                 1.4214
 IR Inten    --      1.5559                10.4219                 2.6997

                     61                     62                     63
                      A                      A                      A
 Frequencies --   1520.8197              1522.8043              1526.5883
 Red. masses --      1.1097                 1.0872                 1.2522
 Frc consts  --      1.5121                 1.4854                 1.7193
 IR Inten    --      4.4613                 8.8099                 8.1304

                     64                     65                     66
                      A                      A                      A
 Frequencies --   1539.1855              1589.9467              1615.0514
 Red. masses --      1.0613                 6.6370                 5.9713
 Frc consts  --      1.4814                 9.8852                 9.1768
 IR Inten    --      6.8590                 2.1565                82.9950

                     67                     68                     69
                      A                      A                      A
 Frequencies --   1633.9565              1796.0885              3012.3169
 Red. masses --      8.1291                 9.2548                 1.0362
 Frc consts  --     12.7871                17.5903                 5.5396
 IR Inten    --    111.6818               342.6692                38.4307

                     70                     71                     72
                      A                      A                      A
 Frequencies --   3021.8345              3048.6798              3062.9925
 Red. masses --      1.0419                 1.0380                 1.1011
 Frc consts  --      5.6057                 5.6844                 6.0863
 IR Inten    --     51.2385                41.3401                25.0167

                     73                     74                     75
                      A                      A                      A
 Frequencies --   3066.0960              3072.5882              3104.7611
 Red. masses --      1.1030                 1.0608                 1.0987
 Frc consts  --      6.1092                 5.9006                 6.2398
 IR Inten    --     60.2362                15.1975                19.0272

                     76                     77                     78
                      A                      A                      A
 Frequencies --   3127.8775              3129.1230              3141.9419
 Red. masses --      1.1064                 1.1019                 1.0945
 Frc consts  --      6.3779                 6.3569                 6.3658
 IR Inten    --      3.5004                21.1020                12.4466

                     79                     80                     81
                      A                      A                      A
 Frequencies --   3148.2541              3564.3610              3695.7470
 Red. masses --      1.0994                 1.0774                 1.0639
 Frc consts  --      6.4204                 8.0647                 8.5619
 IR Inten    --     27.4334                49.5583                76.0950

 - Thermochemistry -
 -------------------
 Temperature   298.150 Kelvin.  Pressure   1.00000 Atm.
 Atom     1 has atomic number  6 and mass  12.00000

 Molecular mass:   223.09569 amu.
 Principal axes and moments of inertia in atomic units:
                           1         2         3
     Eigenvalues --  2418.580864458.568636437.47331
           X            0.99998  -0.00345   0.00589
           Y            0.00348   0.99998  -0.00508
           Z           -0.00587   0.00510   0.99997
 This molecule is an asymmetric top.
 Rotational symmetry number  1.
 Warning -- assumption of classical behavior for rotation
           may cause significant error
 Rotational temperatures (Kelvin)      0.03581     0.01943     0.01345
 Rotational constants (GHZ):           0.74620     0.40478     0.28035
 Zero-point vibrational energy     609958.7 (Joules/Mol)
                                  145.78362 (Kcal/Mol)
 Warning -- explicit consideration of  23 degrees of freedom as
           vibrations may cause significant error
 Vibrational temperatures:     54.67    82.80    88.14   111.91   130.00
          (Kelvin)            159.31   185.97   206.03   218.50   285.87
                              298.83   354.14   364.83   393.31   436.07
                              492.91   542.27   566.11   635.05   663.11
                              767.54   845.71   861.20   898.35   921.05
                              938.87  1003.74  1037.11  1062.43  1113.24
                             1129.23  1239.72  1344.06  1364.42  1456.80
                             1490.33  1543.41  1550.02  1554.42  1614.21
                             1634.80  1700.44  1715.72  1717.15  1759.13
                             1799.99  1827.56  1888.48  1954.67  1988.03
                             1999.36  2041.33  2078.30  2087.62  2097.27
                             2139.31  2160.41  2165.29  2171.67  2180.99
                             2188.12  2190.98  2196.42  2214.54  2287.58
                             2323.70  2350.90  2584.17  4334.05  4347.75
                             4386.37  4406.96  4411.43  4420.77  4467.06
                             4500.32  4502.11  4520.55  4529.64  5128.32
                             5317.36

 Zero-point correction=                           0.232321 (Hartree/Particle)
 Thermal correction to Energy=                    0.248353
 Thermal correction to Enthalpy=                  0.249297
 Thermal correction to Gibbs Free Energy=         0.187965
 Sum of electronic and zero-point Energies=           -778.596328
 Sum of electronic and thermal Energies=              -778.580296
 Sum of electronic and thermal Enthalpies=            -778.579352
 Sum of electronic and thermal Free Energies=         -778.640684

                     E (Thermal)             CV                S
                      KCal/Mol        Cal/Mol-Kelvin    Cal/Mol-Kelvin
 Total                  155.844             57.654            129.084
 Electronic               0.000              0.000              0.000
 Translational            0.889              2.981             42.110
 Rotational               0.889              2.981             32.607
 Vibrational            154.066             51.693             54.368
 Vibration     1          0.594              1.982              5.361
 Vibration     2          0.596              1.974              4.540
 Vibration     3          0.597              1.973              4.416
 Vibration     4          0.599              1.964              3.946
 Vibration     5          0.602              1.956              3.652
 Vibration     6          0.607              1.941              3.256
 Vibration     7          0.612              1.924              2.957
 Vibration     8          0.616              1.910              2.761
 Vibration     9          0.619              1.901              2.649
 Vibration    10          0.637              1.842              2.145
 Vibration    11          0.641              1.829              2.064
 Vibration    12          0.661              1.769              1.758
 Vibration    13          0.665              1.757              1.706
 Vibration    14          0.676              1.722              1.575
 Vibration    15          0.695              1.668              1.400
 Vibration    16          0.722              1.590              1.200
 Vibration    17          0.747              1.519              1.052
 Vibration    18          0.761              1.484              0.987
 Vibration    19          0.801              1.380              0.822
 Vibration    20          0.819              1.337              0.764
 Vibration    21          0.888              1.176              0.580
 Vibration    22          0.945              1.058              0.471
 Vibration    23          0.957              1.035              0.452

                           ! Non-Optimized Parameters !
 Normal termination of Gaussian 16 at Thu Dec 10 21:23:47 2020.

 ----------------------------------------------------------------------
 # B3LYP/6-311++G(d,p) empiricaldispersion=gd3bj scf=xqc pop=npa geom=c
 heck
 ----------------------------------------------------------------------

 --------------------------------------
 CID_96605930_JID_6072_Energie_neutraal
 --------------------------------------
 Structure from the checkpoint file:  "JID_6072.chk"
 Charge =  0 Multiplicity = 1

 SCF Done:  E(RB3LYP) =  -779.054101698     A.U. after   16 cycles
 Normal termination of Gaussian 16 at Thu Dec 10 21:27:28 2020.

 ----------------------------------------------------------------------
 # B3LYP/6-311++G(d,p) empiricaldispersion=gd3bj scf=xqc pop=npa geom=c
 heck
 ----------------------------------------------------------------------

 ------------------------------------
 CID_96605930_JID_6072_Energie_kation
 ------------------------------------
 Structure from the checkpoint file:  "JID_6072.chk"
 Charge =  1 Multiplicity = 2

 SCF Done:  E(UB3LYP) =  -778.779176927     A.U. after   23 cycles
 Normal termination of Gaussian 16 at Thu Dec 10 21:35:42 2020.
 Gaussian 16:  ES64L-G16RevA.03 25-Dec-2016

 ----------------------------------------------------------------------
 # B3LYP/6-311++G(d,p) empiricaldispersion=gd3bj scf=xqc pop=npa geom=c
 heck
 ----------------------------------------------------------------------

 -----------------------------------
 CID_96605930_JID_6072_Energie_anion
 -----------------------------------
 Structure from the checkpoint file:  "JID_6072.chk"
 Charge = -1 Multiplicity = 2

                         Standard orientation:
 ---------------------------------------------------------------------
 Center     Atomic      Atomic             Coordinates (Angstroms)
 Number     Number       Type             X           Y           Z
 ---------------------------------------------------------------------
      1          6           0       -4.290875    0.668246    0.380486
      2          6           0       -2.852197    0.324752    0.157689
      3          6           0       -2.318239   -0.935246   -0.097496
      4          7           0       -0.957870   -0.688903   -0.130305
      5          6           0       -0.741642    0.665483    0.022139
      6          7           0       -1.881193    1.307862    0.212475
      7          6           0        0.675973    0.860515   -0.196201
      8          6           0        1.201909   -0.377493   -0.504899
      9          7           0        0.187362   -1.322718   -0.573796
     10          6           0        2.603608   -0.864624   -0.719338
     11          8           0        2.820190   -2.080314   -0.006524
     12          6           0        3.017729   -1.863987    1.384035
     13          6           0        1.462155    2.089607   -0.105171
     14          8           0        2.653728    2.184181   -0.355196
     15          8           0        0.723237    3.142754    0.305905
     16          6           0       -2.898034   -2.295683   -0.264426
     17          1           0       -4.950280   -0.169285    0.132002
     18          1           0       -4.575670    1.526410   -0.237492
     19          1           0       -4.476349    0.945600    1.425492
     20          1           0        0.378684   -2.255096   -0.218830
     21          1           0        2.763267   -1.107168   -1.775479
     22          1           0        3.308516   -0.078732   -0.432056
     23          1           0        3.898591   -1.231948    1.564363
     24          1           0        2.145373   -1.386177    1.854059
     25          1           0        3.178075   -2.845231    1.836422
     26          1           0        1.336110    3.900888    0.332426
     27          1           0       -2.587311   -2.756580   -1.212298
     28          1           0       -2.607291   -2.979852    0.545417
     29          1           0       -3.989372   -2.238903   -0.267019
 ---------------------------------------------------------------------

 SCF Done:  E(UB3LYP) =  -779.056024739     A.U. after   33 cycles
 SCF Done:  E(UB3LYP) =  -779.056024739     a.u. after    1 cycles

 The electronic state is 2-A.
 Alpha  occ. eigenvalues --  -19.02944 -19.01985 -18.96087 -14.26543 -14.25592
 Alpha  occ. eigenvalues --  -14.15685 -10.15097 -10.10960 -10.10191 -10.09782
 Alpha  occ. eigenvalues --  -10.08243 -10.07270 -10.07131 -10.06932 -10.05860
 Alpha  occ. eigenvalues --  -10.04305  -0.96849  -0.94981  -0.92873  -0.87312
 Alpha  occ. eigenvalues --   -0.82780  -0.72265  -0.67674  -0.65480  -0.62189
 Alpha  occ. eigenvalues --   -0.61104  -0.56612  -0.54592  -0.51698  -0.46996
 Alpha  occ. eigenvalues --   -0.45197  -0.43783  -0.40338  -0.37802  -0.37642
 Alpha  occ. eigenvalues --   -0.36387  -0.35930  -0.35098  -0.34369  -0.32189
 Alpha  occ. eigenvalues --   -0.31576  -0.30753  -0.30487  -0.30214  -0.29598
 Alpha  occ. eigenvalues --   -0.28751  -0.27763  -0.27180  -0.26669  -0.25926
 Alpha  occ. eigenvalues --   -0.22559  -0.21678  -0.19094  -0.16697  -0.16445
 Alpha  occ. eigenvalues --   -0.14589  -0.14074  -0.11136  -0.07922   0.04477
 Alpha virt. eigenvalues --    0.06538   0.07695   0.08574   0.09533   0.09905
 Alpha virt. eigenvalues --    0.10239   0.10967   0.11388   0.11994   0.12258
 Alpha virt. eigenvalues --    0.12738   0.13794   0.14097   0.14544   0.15038

  Beta  occ. eigenvalues --  -19.02872 -19.01921 -18.95927 -14.26522 -14.25473
  Beta  occ. eigenvalues --  -14.15682 -10.14866 -10.10940 -10.10217 -10.09790
  Beta  occ. eigenvalues --  -10.08250 -10.07238 -10.06929 -10.06608 -10.05854
  Beta  occ. eigenvalues --  -10.04294  -0.96608  -0.94825  -0.92747  -0.87045
  Beta  occ. eigenvalues --   -0.82636  -0.72053  -0.67561  -0.65163  -0.62091
  Beta  occ. eigenvalues --   -0.61051  -0.56359  -0.54190  -0.51564  -0.46916
  Beta  occ. eigenvalues --   -0.45091  -0.43508  -0.40187  -0.37615  -0.37349
  Beta  occ. eigenvalues --   -0.36213  -0.35842  -0.34944  -0.34216  -0.31950
  Beta  occ. eigenvalues --   -0.31191  -0.30500  -0.30183  -0.30069  -0.29412
  Beta  occ. eigenvalues --   -0.28655  -0.27605  -0.27101  -0.26538  -0.25824
  Beta  occ. eigenvalues --   -0.22070  -0.21530  -0.18342  -0.16318  -0.15911
  Beta  occ. eigenvalues --   -0.14543  -0.13952  -0.10711  -0.07173
  Beta virt. eigenvalues --    0.06728   0.07732   0.08661   0.09443   0.09563
  Beta virt. eigenvalues --    0.10326   0.10903   0.11127   0.11554   0.11955
  Beta virt. eigenvalues --    0.12215   0.12748   0.13813   0.14389   0.14743

 Mulliken charges and spin densities:
               1          2
     1  C   -0.375412  -0.157723
     2  C    0.155266   0.218708
     3  C   -0.625451   0.742785
     4  N    0.268935  -0.008426
     5  C    0.007833  -0.021330
     6  N   -0.141072   0.008983
     7  C   -0.132728   0.067580
     8  C   -0.694612   0.656930
     9  N   -0.155284   0.155873
    10  C   -0.074547  -0.674465
    11  O   -0.144864   0.002574
    12  C   -0.038214  -0.303069
    13  C   -0.182015   0.256934
    14  O   -0.402982   0.057913
    15  O   -0.181991   0.014230
    16  C    1.169959  -1.663534
    17  H    0.063957   0.040858
    18  H    0.127086   0.015381
    19  H    0.102391   0.043352
    20  H    0.185579   0.099469
    21  H   -0.143294   0.330881
    22  H    0.224888  -0.019214
    23  H    0.076075   0.048567
    24  H    0.078611   0.074988
    25  H   -0.012499   0.154247
    26  H    0.261064   0.000081
    27  H   -0.221207   0.380019
    28  H   -0.150819   0.298419
    29  H   -0.044650   0.178991
 Sum of Mulliken charges =  -1.00000   1.00000

 Dipole moment (field-independent basis, Debye):
    X=             -0.7801    Y=             -0.3500    Z=              2.1559  Tot=              2.3192
 Quadrupole moment (field-independent basis, Debye-Ang):
   XX=           -139.4925   YY=           -128.8486   ZZ=           -109.1305
   XY=              0.1539   XZ=              5.7301   YZ=             -3.8292

 Summary of Natural Population Analysis:

                                       Natural Population
                Natural  -----------------------------------------------
    Atom  No    Charge         Core      Valence    Rydberg      Total
 -----------------------------------------------------------------------
      C    1   -0.29293      0.99963     2.28828    0.00502     3.29293
      C    2    0.05459      0.99950     1.93237    0.01354     2.94541
      C    3    0.03237      0.99947     1.95596    0.01220     2.96763
      N    4   -0.11398      0.99955     2.60348    0.01095     3.61398
      C    5    0.19388      0.99957     1.78849    0.01806     2.80612
      N    6   -0.27337      0.99967     2.76403    0.00966     3.77337
      C    7   -0.13845      0.99936     2.12822    0.01087     3.13845
      C    8    0.20031      0.99952     1.78792    0.01224     2.79969
      N    9   -0.17710      0.99964     2.66525    0.01221     3.67710
      C   10   -0.03556      0.99953     2.02203    0.01400     3.03556
      O   11   -0.29911      0.99989     3.28908    0.01014     4.29911
      C   12   -0.09912      0.99962     2.09106    0.00844     3.09912
      C   13    0.42288      0.99966     1.55173    0.02573     2.57712
      O   14   -0.32672      0.99987     3.32073    0.00612     4.32672
      O   15   -0.33630      0.99988     3.33056    0.00587     4.33630
      C   16   -0.29799      0.99965     2.29315    0.00520     3.29799
      H   17    0.09598      0.00000     0.40315    0.00087     0.40402
      H   18    0.10208      0.00000     0.39638    0.00154     0.39792
      H   19    0.09840      0.00000     0.39994    0.00165     0.40160
      H   20    0.19879      0.00000     0.29895    0.00227     0.30121
      H   21    0.10224      0.00000     0.39590    0.00186     0.39776
      H   22    0.10539      0.00000     0.39329    0.00132     0.39461
      H   23    0.07821      0.00000     0.42041    0.00138     0.42179
      H   24    0.08290      0.00000     0.41574    0.00136     0.41710
      H   25    0.08479      0.00000     0.41400    0.00121     0.41521
      H   26    0.22997      0.00000     0.26753    0.00250     0.27003
      H   27    0.10310      0.00000     0.39523    0.00167     0.39690
      H   28    0.09947      0.00000     0.39890    0.00163     0.40053
      H   29    0.10529      0.00000     0.39390    0.00082     0.39471
 =======================================================================
   * Total *    0.00000     15.99401    42.80566    0.20032    59.00000

 Normal termination of Gaussian 16 at Thu Dec 10 21:48:08 2020.
