 Gaussian 16, Revision A.03,

 -----------------------------------------------------------
 # opt freq B3LYP/6-31G(d) empiricaldispersion=gd3bj scf=xqc
 -----------------------------------------------------------

 ------------------------------
 CID_18615742_JID_1460_neutraal
 ------------------------------
 Symbolic Z-matrix:
 Charge =  0 Multiplicity = 1

 SCF Done:  E(RB3LYP) =  -516.689350686     A.U. after   14 cycles
 SCF Done:  E(RB3LYP) =  -516.692146200     A.U. after   11 cycles
 SCF Done:  E(RB3LYP) =  -516.692345864     A.U. after   10 cycles
 SCF Done:  E(RB3LYP) =  -516.692394265     A.U. after   10 cycles
 SCF Done:  E(RB3LYP) =  -516.692417196     A.U. after    9 cycles
 SCF Done:  E(RB3LYP) =  -516.692433384     A.U. after   10 cycles
 SCF Done:  E(RB3LYP) =  -516.692441658     A.U. after    9 cycles
 SCF Done:  E(RB3LYP) =  -516.692444289     A.U. after    8 cycles
 SCF Done:  E(RB3LYP) =  -516.692444779     A.U. after    8 cycles
 SCF Done:  E(RB3LYP) =  -516.692444815     A.U. after    7 cycles
 Optimization completed.
    -- Stationary point found.
 Normal termination of Gaussian 16 at Tue Dec  8 20:02:53 2020.

 --------------------------------------------------------------------
 #N Geom=AllCheck Guess=TCheck SCRF=Check GenChk RB3LYP/6-31G(d) Freq
 --------------------------------------------------------------------

 Structure from the checkpoint file:  "JID_1460.chk"
 ------------------------------
 CID_18615742_JID_1460_neutraal
 ------------------------------
 Charge =  0 Multiplicity = 1

 SCF Done:  E(RB3LYP) =  -516.692444815     A.U. after    1 cycles

  Exact polarizability: 124.282  -0.693 111.761   2.887   4.169  49.655
 Approx polarizability: 193.024  -7.478 174.666  11.759   9.530  76.133

                      1                      2                      3
                      A                      A                      A
 Frequencies --     86.6262               121.8246               156.0417
 Red. masses --      2.4220                 3.3273                 4.0185
 Frc consts  --      0.0107                 0.0291                 0.0576
 IR Inten    --      5.6572                 1.8956                 0.3527

                      4                      5                      6
                      A                      A                      A
 Frequencies --    173.5520               177.9606               194.1405
 Red. masses --      1.0693                 1.2342                 2.8950
 Frc consts  --      0.0190                 0.0230                 0.0643
 IR Inten    --      0.2054                 2.0289                 6.1637

                      7                      8                      9
                      A                      A                      A
 Frequencies --    271.3841               304.7781               332.9900
 Red. masses --      1.1647                 3.1336                 3.2550
 Frc consts  --      0.0505                 0.1715                 0.2126
 IR Inten    --     16.9842                 1.6684                15.8978

                     10                     11                     12
                      A                      A                      A
 Frequencies --    338.2334               349.6840               389.6139
 Red. masses --      4.0168                 3.7056                 4.3594
 Frc consts  --      0.2707                 0.2670                 0.3899
 IR Inten    --      7.4013                 9.1232                 1.8221

                     13                     14                     15
                      A                      A                      A
 Frequencies --    478.9241               495.4768               533.2427
 Red. masses --      7.1133                 4.6078                 2.0652
 Frc consts  --      0.9613                 0.6665                 0.3460
 IR Inten    --      0.3214                 7.1585                36.1937

                     16                     17                     18
                      A                      A                      A
 Frequencies --    558.7172               579.5092               629.0375
 Red. masses --      1.5728                 3.0940                 3.1570
 Frc consts  --      0.2893                 0.6122                 0.7360
 IR Inten    --     48.7096                 7.8932                38.0715

                     19                     20                     21
                      A                      A                      A
 Frequencies --    673.8831               705.7728               738.6494
 Red. masses --      4.3147                 1.9383                 6.4935
 Frc consts  --      1.1544                 0.5689                 2.0874
 IR Inten    --     59.8065               209.7501                15.5983

                     22                     23                     24
                      A                      A                      A
 Frequencies --    772.8916               818.4306               903.2872
 Red. masses --      3.1119                 1.5720                 2.5070
 Frc consts  --      1.0953                 0.6204                 1.2052
 IR Inten    --     23.5521                63.2640                 6.8788

                     25                     26                     27
                      A                      A                      A
 Frequencies --    911.8671              1013.1477              1049.3805
 Red. masses --      1.2695                 3.9662                 3.2861
 Frc consts  --      0.6219                 2.3987                 2.1321
 IR Inten    --      0.3394                16.5335                54.1148

                     28                     29                     30
                      A                      A                      A
 Frequencies --   1070.5287              1087.2435              1161.8724
 Red. masses --      1.4542                 1.7710                 1.7148
 Frc consts  --      0.9819                 1.2335                 1.3639
 IR Inten    --      0.5222                53.7730                90.3834

                     31                     32                     33
                      A                      A                      A
 Frequencies --   1187.9301              1189.4445              1222.0304
 Red. masses --      1.3801                 1.2595                 1.9376
 Frc consts  --      1.1475                 1.0499                 1.7048
 IR Inten    --     15.5510                 3.2414                16.1166

                     34                     35                     36
                      A                      A                      A
 Frequencies --   1229.3183              1285.8395              1326.7327
 Red. masses --      1.5810                 3.0410                 1.7844
 Frc consts  --      1.4077                 2.9624                 1.8506
 IR Inten    --     73.6102               124.8114                16.5881

                     37                     38                     39
                      A                      A                      A
 Frequencies --   1347.1037              1408.4297              1438.0466
 Red. masses --      7.0056                 2.5655                 1.2960
 Frc consts  --      7.4903                 2.9985                 1.5791
 IR Inten    --     47.4052                 7.9348                 0.9317

                     40                     41                     42
                      A                      A                      A
 Frequencies --   1490.4643              1510.4473              1516.5437
 Red. masses --      1.3970                 1.3169                 1.0761
 Frc consts  --      1.8285                 1.7701                 1.4582
 IR Inten    --     62.6447                16.1145                 2.7613

                     43                     44                     45
                      A                      A                      A
 Frequencies --   1522.3152              1536.2863              1540.5789
 Red. masses --      1.1586                 1.3251                 1.5321
 Frc consts  --      1.5819                 1.8427                 2.1425
 IR Inten    --     21.3412                11.8216                19.8186

                     46                     47                     48
                      A                      A                      A
 Frequencies --   1543.0669              1665.9260              1675.5435
 Red. masses --      2.0468                 6.0149                 3.3509
 Frc consts  --      2.8713                 9.8353                 5.5428
 IR Inten    --    167.2317                 3.6495                11.1581

                     49                     50                     51
                      A                      A                      A
 Frequencies --   1698.0392              3023.7711              3037.3860
 Red. masses --      1.3651                 1.0478                 1.0313
 Frc consts  --      2.3191                 5.6448                 5.6059
 IR Inten    --     58.1389                37.9917                45.6921

                     52                     53                     54
                      A                      A                      A
 Frequencies --   3073.3979              3102.5973              3149.8087
 Red. masses --      1.0936                 1.1069                 1.1036
 Frc consts  --      6.0864                 6.2778                 6.4513
 IR Inten    --     22.1263                28.5474                36.6365

                     55                     56                     57
                      A                      A                      A
 Frequencies --   3159.0429              3177.6396              3217.4906
 Red. masses --      1.0954                 1.0889                 1.0929
 Frc consts  --      6.4408                 6.4778                 6.6659
 IR Inten    --      6.1946                19.4356                 8.7779

                     58                     59                     60
                      A                      A                      A
 Frequencies --   3531.5267              3627.7045              3679.3951
 Red. masses --      1.0482                 1.0966                 1.0643
 Frc consts  --      7.7025                 8.5027                 8.4892
 IR Inten    --      3.1602                 5.2060                61.4393

 - Thermochemistry -
 -------------------
 Temperature   298.150 Kelvin.  Pressure   1.00000 Atm.
 Atom     1 has atomic number  6 and mass  12.00000

 Molecular mass:   153.07898 amu.
 Principal axes and moments of inertia in atomic units:
                           1         2         3
     Eigenvalues --  1134.892731749.549352733.59433
           X            0.99954   0.02639  -0.01462
           Y           -0.02643   0.99965  -0.00264
           Z            0.01455   0.00303   0.99989
 This molecule is an asymmetric top.
 Rotational symmetry number  1.
 Warning -- assumption of classical behavior for rotation
           may cause significant error
 Rotational temperatures (Kelvin)      0.07632     0.04951     0.03168
 Rotational constants (GHZ):           1.59023     1.03155     0.66021
 Zero-point vibrational energy     479657.9 (Joules/Mol)
                                  114.64099 (Kcal/Mol)
 Warning -- explicit consideration of  17 degrees of freedom as
           vibrations may cause significant error
 Vibrational temperatures:    124.64   175.28   224.51   249.70   256.05
          (Kelvin)            279.32   390.46   438.51   479.10   486.64
                              503.12   560.57   689.07   712.88   767.22
                              803.87   833.78   905.04   969.57  1015.45
                             1062.75  1112.02  1177.54  1299.63  1311.97
                             1457.69  1509.82  1540.25  1564.30  1671.68
                             1709.17  1711.35  1758.23  1768.71  1850.04
                             1908.87  1938.18  2026.42  2069.03  2144.45
                             2173.20  2181.97  2190.27  2210.37  2216.55
                             2220.13  2396.90  2410.73  2443.10  4350.53
                             4370.12  4421.93  4463.95  4531.87  4545.16
                             4571.91  4629.25  5081.08  5219.46  5293.83

 Zero-point correction=                           0.182692 (Hartree/Particle)
 Thermal correction to Energy=                    0.193742
 Thermal correction to Enthalpy=                  0.194686
 Thermal correction to Gibbs Free Energy=         0.146842
 Sum of electronic and zero-point Energies=           -516.509753
 Sum of electronic and thermal Energies=              -516.498703
 Sum of electronic and thermal Enthalpies=            -516.497759
 Sum of electronic and thermal Free Energies=         -516.545603

                     E (Thermal)             CV                S
                      KCal/Mol        Cal/Mol-Kelvin    Cal/Mol-Kelvin
 Total                  121.575             42.197            100.696
 Electronic               0.000              0.000              0.000
 Translational            0.889              2.981             40.987
 Rotational               0.889              2.981             30.074
 Vibrational            119.797             36.235             29.635
 Vibration     1          0.601              1.959              3.735
 Vibration     2          0.609              1.931              3.071
 Vibration     3          0.620              1.896              2.597
 Vibration     4          0.627              1.875              2.397
 Vibration     5          0.628              1.869              2.350
 Vibration     6          0.635              1.848              2.188
 Vibration     7          0.675              1.726              1.587
 Vibration     8          0.696              1.665              1.391
 Vibration     9          0.715              1.610              1.246
 Vibration    10          0.719              1.599              1.220
 Vibration    11          0.727              1.576              1.168
 Vibration    12          0.758              1.492              1.002
 Vibration    13          0.835              1.297              0.713
 Vibration    14          0.851              1.260              0.670
 Vibration    15          0.888              1.176              0.580
 Vibration    16          0.914              1.121              0.526
 Vibration    17          0.936              1.076              0.486

                           ! Non-Optimized Parameters !
 Normal termination of Gaussian 16 at Tue Dec  8 20:07:06 2020.

 ----------------------------------------------------------------------
 # B3LYP/6-311++G(d,p) empiricaldispersion=gd3bj scf=xqc pop=npa geom=c
 heck
 ----------------------------------------------------------------------

 --------------------------------------
 CID_18615742_JID_1460_Energie_neutraal
 --------------------------------------
 Structure from the checkpoint file:  "JID_1460.chk"
 Charge =  0 Multiplicity = 1

 SCF Done:  E(RB3LYP) =  -516.851539595     A.U. after   15 cycles
 Normal termination of Gaussian 16 at Tue Dec  8 20:08:35 2020.

 ----------------------------------------------------------------------
 # B3LYP/6-311++G(d,p) empiricaldispersion=gd3bj scf=xqc pop=npa geom=c
 heck
 ----------------------------------------------------------------------

 ------------------------------------
 CID_18615742_JID_1460_Energie_kation
 ------------------------------------
 Structure from the checkpoint file:  "JID_1460.chk"
 Charge =  1 Multiplicity = 2

 SCF Done:  E(UB3LYP) =  -516.584225187     A.U. after   20 cycles
 Normal termination of Gaussian 16 at Tue Dec  8 20:11:15 2020.
 Gaussian 16:  ES64L-G16RevA.03 25-Dec-2016

 ----------------------------------------------------------------------
 # B3LYP/6-311++G(d,p) empiricaldispersion=gd3bj scf=xqc pop=npa geom=c
 heck
 ----------------------------------------------------------------------

 -----------------------------------
 CID_18615742_JID_1460_Energie_anion
 -----------------------------------
 Structure from the checkpoint file:  "JID_1460.chk"
 Charge = -1 Multiplicity = 2

                         Standard orientation:
 ---------------------------------------------------------------------
 Center     Atomic      Atomic             Coordinates (Angstroms)
 Number     Number       Type             X           Y           Z
 ---------------------------------------------------------------------
      1          6           0        0.888899   -2.179524   -0.311090
      2          6           0        0.661194   -0.699647   -0.154442
      3          6           0        1.744571    0.175679    0.072612
      4          6           0        1.508545    1.549782    0.205945
      5          6           0        0.222608    2.077729    0.106810
      6          6           0       -0.853067    1.225451   -0.117212
      7          6           0       -0.620111   -0.151065   -0.234127
      8          8           0       -1.741687   -0.947383   -0.456554
      9          6           0       -2.310250   -1.455716    0.756764
     10          8           0       -2.127218    1.715486   -0.225352
     11          7           0        3.042538   -0.348174    0.231975
     12          1           0        1.574952   -2.393408   -1.143605
     13          1           0       -0.046842   -2.697621   -0.526951
     14          1           0        1.336875   -2.614129    0.591672
     15          1           0        2.348305    2.217663    0.382684
     16          1           0        0.045687    3.144517    0.195309
     17          1           0       -1.602610   -2.112250    1.276446
     18          1           0       -2.596795   -0.637126    1.428547
     19          1           0       -3.196363   -2.026661    0.469485
     20          1           0       -2.664972    0.969928   -0.548343
     21          1           0        3.768741    0.346277    0.098013
     22          1           0        3.232149   -1.160940   -0.343399
 ---------------------------------------------------------------------

 SCF Done:  E(UB3LYP) =  -516.837753866     A.U. after   32 cycles

 The electronic state is 2-A.
 Alpha  occ. eigenvalues --  -19.04776 -19.04745 -14.20393 -10.12106 -10.11982
 Alpha  occ. eigenvalues --  -10.11944 -10.10216 -10.07532 -10.06868 -10.06550
 Alpha  occ. eigenvalues --  -10.05960  -0.97233  -0.94363  -0.80927  -0.73292
 Alpha  occ. eigenvalues --   -0.66941  -0.63151  -0.59621  -0.57456  -0.50426
 Alpha  occ. eigenvalues --   -0.48894  -0.45276  -0.42375  -0.40064  -0.37498
 Alpha  occ. eigenvalues --   -0.36832  -0.35931  -0.33290  -0.31760  -0.31586
 Alpha  occ. eigenvalues --   -0.30574  -0.30217  -0.29040  -0.27225  -0.26112
 Alpha  occ. eigenvalues --   -0.24990  -0.23848  -0.19055  -0.18304  -0.14022
 Alpha  occ. eigenvalues --   -0.09035   0.04565
 Alpha virt. eigenvalues --    0.06315   0.07847   0.08678   0.09229   0.09523
 Alpha virt. eigenvalues --    0.09748   0.10933   0.11583   0.11890   0.12729
 Alpha virt. eigenvalues --    0.13237   0.13745   0.15162   0.16558   0.16996

  Beta  occ. eigenvalues --  -19.04768 -19.04735 -14.20330 -10.12106 -10.11944
  Beta  occ. eigenvalues --  -10.11932 -10.10214 -10.07526 -10.06866 -10.06539
  Beta  occ. eigenvalues --  -10.05909  -0.97217  -0.94346  -0.80854  -0.73252
  Beta  occ. eigenvalues --   -0.66910  -0.63097  -0.59562  -0.57385  -0.50380
  Beta  occ. eigenvalues --   -0.48850  -0.45249  -0.42328  -0.40010  -0.37457
  Beta  occ. eigenvalues --   -0.36777  -0.35878  -0.33249  -0.31718  -0.31548
  Beta  occ. eigenvalues --   -0.30532  -0.30182  -0.29016  -0.27185  -0.26079
  Beta  occ. eigenvalues --   -0.24958  -0.23819  -0.19036  -0.18274  -0.14004
  Beta  occ. eigenvalues --   -0.09004
  Beta virt. eigenvalues --    0.07024   0.07718   0.08450   0.08953   0.09673
  Beta virt. eigenvalues --    0.09951   0.10415   0.11677   0.11770   0.12351
  Beta virt. eigenvalues --    0.13401   0.13587   0.13988   0.15821   0.16664

 Mulliken charges and spin densities:
               1          2
     1  C    3.680173  -4.146570
     2  C    0.000748   1.636813
     3  C   -1.705377   0.594543
     4  C   -0.658983   0.395056
     5  C    1.229027  -0.951828
     6  C   -0.524879  -0.126773
     7  C   -0.688060   0.297682
     8  O   -0.282668   0.040227
     9  C    0.968742  -1.288866
    10  O   -0.281010   0.009418
    11  N   -0.255933  -0.006746
    12  H   -0.476001   0.621413
    13  H   -0.175351   0.352694
    14  H   -0.235329   0.426804
    15  H   -0.320715   0.462179
    16  H    0.148958   0.013774
    17  H   -0.206129   0.359403
    18  H   -0.206328   0.360123
    19  H   -0.427443   0.580090
    20  H    0.127107   0.158815
    21  H   -0.452233   0.699700
    22  H   -0.258315   0.512049
 Sum of Mulliken charges =  -1.00000   1.00000

 Dipole moment (field-independent basis, Debye):
    X=             -3.8315    Y=              4.2869    Z=              0.1541  Tot=              5.7517
 Quadrupole moment (field-independent basis, Debye-Ang):
   XX=           -134.2865   YY=           -109.1559   ZZ=            -92.0773
   XY=              1.4053   XZ=              3.2771   YZ=             -0.1518

 Summary of Natural Population Analysis:

                                       Natural Population
                Natural  -----------------------------------------------
    Atom  No    Charge         Core      Valence    Rydberg      Total
 -----------------------------------------------------------------------
      C    1   -0.29992      0.99964     2.29351    0.00677     3.29992
      C    2   -0.04253      0.99944     2.03251    0.01058     3.04253
      C    3    0.07853      0.99945     1.91017    0.01185     2.92147
      C    4   -0.11861      0.99953     2.10894    0.01014     3.11861
      C    5   -0.12178      0.99953     2.11346    0.00879     3.12178
      C    6    0.12529      0.99933     1.86317    0.01221     2.87471
      C    7    0.12576      0.99929     1.86145    0.01350     2.87424
      O    8   -0.30097      0.99987     3.29027    0.01083     4.30097
      C    9   -0.09904      0.99959     2.08998    0.00947     3.09904
      O   10   -0.34785      0.99988     3.34118    0.00678     4.34785
      N   11   -0.39863      0.99972     2.88802    0.01088     3.89863
      H   12    0.10483      0.00000     0.39325    0.00192     0.39517
      H   13    0.11029      0.00000     0.38827    0.00144     0.38971
      H   14    0.10844      0.00000     0.39005    0.00151     0.39156
      H   15    0.09874      0.00000     0.40033    0.00093     0.40126
      H   16    0.10220      0.00000     0.39692    0.00088     0.39780
      H   17    0.08721      0.00000     0.41124    0.00155     0.41279
      H   18    0.08314      0.00000     0.41538    0.00148     0.41686
      H   19    0.09192      0.00000     0.40599    0.00209     0.40808
      H   20    0.23817      0.00000     0.25851    0.00332     0.26183
      H   21    0.18535      0.00000     0.30935    0.00531     0.31465
      H   22    0.18946      0.00000     0.30467    0.00587     0.31054
 =======================================================================
   * Total *   -0.00000     10.99528    29.86660    0.13812    41.00000

 Normal termination of Gaussian 16 at Tue Dec  8 20:16:32 2020.
