 Gaussian 16, Revision A.03,

 -----------------------------------------------------------
 # opt freq B3LYP/6-31G(d) empiricaldispersion=gd3bj scf=xqc
 -----------------------------------------------------------

 -------------------------------
 CID_123578658_JID_6804_neutraal
 -------------------------------
 Symbolic Z-matrix:
 Charge =  0 Multiplicity = 1

 SCF Done:  E(RB3LYP) =  -672.552041347     A.U. after   15 cycles
 SCF Done:  E(RB3LYP) =  -672.555905580     A.U. after   12 cycles
 SCF Done:  E(RB3LYP) =  -672.556170010     A.U. after   11 cycles
 SCF Done:  E(RB3LYP) =  -672.556202436     A.U. after   10 cycles
 SCF Done:  E(RB3LYP) =  -672.556216299     A.U. after    9 cycles
 SCF Done:  E(RB3LYP) =  -672.556220792     A.U. after   10 cycles
 SCF Done:  E(RB3LYP) =  -672.556222364     A.U. after    9 cycles
 SCF Done:  E(RB3LYP) =  -672.556223180     A.U. after    9 cycles
 SCF Done:  E(RB3LYP) =  -672.556223528     A.U. after    8 cycles
 Optimization completed.
    -- Stationary point found.
 Normal termination of Gaussian 16 at Fri Dec 11 00:32:25 2020.

 --------------------------------------------------------------------
 #N Geom=AllCheck Guess=TCheck SCRF=Check GenChk RB3LYP/6-31G(d) Freq
 --------------------------------------------------------------------

 Structure from the checkpoint file:  "JID_6804.chk"
 -------------------------------
 CID_123578658_JID_6804_neutraal
 -------------------------------
 Charge =  0 Multiplicity = 1

 SCF Done:  E(RB3LYP) =  -672.556223528     A.U. after    1 cycles

  Exact polarizability: 214.715  -4.364 127.488 -11.202  -9.667 106.021
 Approx polarizability: 285.711  -7.582 208.921 -26.109 -31.929 181.812

                      1                      2                      3
                      A                      A                      A
 Frequencies --     29.6689                54.3247                67.3681
 Red. masses --      4.1915                 4.4765                 3.5722
 Frc consts  --      0.0022                 0.0078                 0.0096
 IR Inten    --      0.1796                 0.4731                 0.3276

                      4                      5                      6
                      A                      A                      A
 Frequencies --    125.7366               171.5245               204.7952
 Red. masses --      3.3663                 3.3624                 3.4543
 Frc consts  --      0.0314                 0.0583                 0.0854
 IR Inten    --      0.7695                 0.7021                 0.3151

                      7                      8                      9
                      A                      A                      A
 Frequencies --    255.3887               263.8755               305.2970
 Red. masses --      4.6415                 6.2502                 1.9052
 Frc consts  --      0.1784                 0.2564                 0.1046
 IR Inten    --      0.3677                 0.3615                 0.1658

                     10                     11                     12
                      A                      A                      A
 Frequencies --    336.5288               353.3619               425.0870
 Red. masses --      2.8954                 5.1034                 2.4827
 Frc consts  --      0.1932                 0.3754                 0.2643
 IR Inten    --      1.0586                 0.8339                 0.2332

                     13                     14                     15
                      A                      A                      A
 Frequencies --    435.7955               470.7669               475.0354
 Red. masses --      2.8628                 2.7247                 2.3826
 Frc consts  --      0.3203                 0.3558                 0.3168
 IR Inten    --      2.6427                 0.8229                 0.6254

                     16                     17                     18
                      A                      A                      A
 Frequencies --    508.5416               575.4810               589.9324
 Red. masses --      5.5910                 5.8660                 4.1403
 Frc consts  --      0.8519                 1.1446                 0.8490
 IR Inten    --      0.1223                 0.3648                 0.1269

                     19                     20                     21
                      A                      A                      A
 Frequencies --    633.3889               637.9133               698.9820
 Red. masses --      2.5449                 6.7723                 4.4036
 Frc consts  --      0.6015                 1.6237                 1.2676
 IR Inten    --      4.1727                 1.5810                 0.9644

                     22                     23                     24
                      A                      A                      A
 Frequencies --    725.4329               760.5029               770.0744
 Red. masses --      1.2091                 1.4665                 3.3991
 Frc consts  --      0.3749                 0.4997                 1.1876
 IR Inten    --      0.5378                44.8248                 6.3794

                     25                     26                     27
                      A                      A                      A
 Frequencies --    778.0073               790.7440               845.1493
 Red. masses --      3.4093                 2.5368                 2.1261
 Frc consts  --      1.2159                 0.9346                 0.8948
 IR Inten    --      5.9995                 6.5874                12.8098

                     28                     29                     30
                      A                      A                      A
 Frequencies --    858.9370               869.8109               876.0713
 Red. masses --      2.3933                 1.4467                 2.6674
 Frc consts  --      1.0403                 0.6449                 1.2062
 IR Inten    --     11.6595                 0.0800                 1.3954

                     31                     32                     33
                      A                      A                      A
 Frequencies --    904.8660               913.4984               920.5780
 Red. masses --      3.0262                 3.1196                 1.3853
 Frc consts  --      1.4599                 1.5338                 0.6917
 IR Inten    --      1.7795                 3.8212                26.7240

                     34                     35                     36
                      A                      A                      A
 Frequencies --    936.1506               944.5235               961.8500
 Red. masses --      1.3580                 2.3323                 2.5558
 Frc consts  --      0.7012                 1.2259                 1.3931
 IR Inten    --      2.1687                 7.7626                 7.4335

                     37                     38                     39
                      A                      A                      A
 Frequencies --    975.9457              1008.7107              1018.9332
 Red. masses --      1.2368                 1.7157                 3.0356
 Frc consts  --      0.6941                 1.0285                 1.8569
 IR Inten    --      0.0100                 0.1588                26.4116

                     40                     41                     42
                      A                      A                      A
 Frequencies --   1035.3267              1060.8282              1091.5183
 Red. masses --      2.0278                 2.0672                 1.9245
 Frc consts  --      1.2806                 1.3707                 1.3509
 IR Inten    --     11.4614                 5.7179                 0.0739

                     43                     44                     45
                      A                      A                      A
 Frequencies --   1119.2690              1133.5152              1148.4716
 Red. masses --      1.9712                 1.7580                 1.4178
 Frc consts  --      1.4550                 1.3309                 1.1018
 IR Inten    --      1.9528                 4.8572                 8.0700

                     46                     47                     48
                      A                      A                      A
 Frequencies --   1179.3312              1187.2436              1191.3146
 Red. masses --      1.3655                 1.7754                 1.4843
 Frc consts  --      1.1189                 1.4744                 1.2412
 IR Inten    --     20.4521                30.3846                 5.8663

                     49                     50                     51
                      A                      A                      A
 Frequencies --   1242.5961              1275.8006              1277.6270
 Red. masses --      2.3840                 1.5095                 3.1117
 Frc consts  --      2.1688                 1.4476                 2.9926
 IR Inten    --      7.4665                 4.4566                46.3989

                     52                     53                     54
                      A                      A                      A
 Frequencies --   1284.8562              1301.0028              1321.6962
 Red. masses --      1.9881                 1.2774                 1.5410
 Frc consts  --      1.9338                 1.2739                 1.5860
 IR Inten    --     17.5084                 0.2312                 1.2369

                     55                     56                     57
                      A                      A                      A
 Frequencies --   1341.6602              1363.1387              1372.5752
 Red. masses --      1.4781                 1.5312                 1.3530
 Frc consts  --      1.5676                 1.6763                 1.5018
 IR Inten    --      1.1187                 3.7774                 1.7038

                     58                     59                     60
                      A                      A                      A
 Frequencies --   1386.7428              1397.8064              1401.6879
 Red. masses --      1.5092                 3.3430                 1.4707
 Frc consts  --      1.7100                 3.8484                 1.7025
 IR Inten    --      3.2241                 2.2726                 4.2040

                     61                     62                     63
                      A                      A                      A
 Frequencies --   1424.6505              1480.3550              1497.4706
 Red. masses --      2.1409                 1.1736                 2.5513
 Frc consts  --      2.5601                 1.5154                 3.3707
 IR Inten    --      9.4923                 3.1499                41.7233

                     64                     65                     66
                      A                      A                      A
 Frequencies --   1510.6809              1514.7004              1518.0555
 Red. masses --      1.1053                 1.1000                 1.0825
 Frc consts  --      1.4862                 1.4869                 1.4697
 IR Inten    --      3.9222                 4.1881                 7.9391

                     67                     68                     69
                      A                      A                      A
 Frequencies --   1525.3085              1530.8381              1623.6146
 Red. masses --      2.6609                 1.0987                 9.6082
 Frc consts  --      3.6475                 1.5169                14.9231
 IR Inten    --      2.7888                 0.2186                60.4816

                     70                     71                     72
                      A                      A                      A
 Frequencies --   1665.2005              1677.5943              1741.2631
 Red. masses --      7.5396                 7.6955                 5.3397
 Frc consts  --     12.3177                12.7603                 9.5388
 IR Inten    --      9.2066                11.8247                10.6696

                     73                     74                     75
                      A                      A                      A
 Frequencies --   3006.3622              3012.1300              3024.2581
 Red. masses --      1.0776                 1.0727                 1.0686
 Frc consts  --      5.7385                 5.7344                 5.7586
 IR Inten    --      1.7306                32.7965                36.2635

                     76                     77                     78
                      A                      A                      A
 Frequencies --   3041.1957              3065.5496              3081.0724
 Red. masses --      1.0608                 1.0647                 1.0907
 Frc consts  --      5.7808                 5.8949                 6.1003
 IR Inten    --     29.6309                14.7892                59.8838

                     79                     80                     81
                      A                      A                      A
 Frequencies --   3085.8445              3093.1361              3110.8965
 Red. masses --      1.1012                 1.0958                 1.1050
 Frc consts  --      6.1784                 6.1771                 6.3008
 IR Inten    --     58.6254                29.2720                31.1573

                     82                     83                     84
                      A                      A                      A
 Frequencies --   3167.3725              3193.1066              3207.5095
 Red. masses --      1.0608                 1.0864                 1.0909
 Frc consts  --      6.2701                 6.5263                 6.6128
 IR Inten    --      7.9634                 3.2535                17.0755

                     85                     86                     87
                      A                      A                      A
 Frequencies --   3222.9353              3227.8267              3245.1062
 Red. masses --      1.0941                 1.0953                 1.1153
 Frc consts  --      6.6960                 6.7238                 6.9200
 IR Inten    --     14.1208                 8.4871                18.8756

 - Thermochemistry -
 -------------------
 Temperature   298.150 Kelvin.  Pressure   1.00000 Atm.
 Atom     1 has atomic number  6 and mass  12.00000

 Molecular mass:   213.11536 amu.
 Principal axes and moments of inertia in atomic units:
                           1         2         3
     Eigenvalues --  1126.040246518.449346977.64686
           X            0.99999  -0.00285  -0.00185
           Y            0.00288   0.99986   0.01668
           Z            0.00180  -0.01669   0.99986
 This molecule is an asymmetric top.
 Rotational symmetry number  1.
 Warning -- assumption of classical behavior for rotation
           may cause significant error
 Rotational temperatures (Kelvin)      0.07692     0.01329     0.01241
 Rotational constants (GHZ):           1.60273     0.27687     0.25865
 Zero-point vibrational energy     688370.9 (Joules/Mol)
                                  164.52459 (Kcal/Mol)
 Warning -- explicit consideration of  18 degrees of freedom as
           vibrations may cause significant error
 Vibrational temperatures:     42.69    78.16    96.93   180.91   246.79
          (Kelvin)            294.65   367.45   379.66   439.25   484.19
                              508.41   611.61   627.01   677.33   683.47
                              731.68   827.99   848.78   911.31   917.82
                             1005.68  1043.74  1094.19  1107.97  1119.38
                             1137.70  1215.98  1235.82  1251.46  1260.47
                             1301.90  1314.32  1324.51  1346.91  1358.96
                             1383.89  1404.17  1451.31  1466.02  1489.60
                             1526.30  1570.45  1610.38  1630.88  1652.39
                             1696.79  1708.18  1714.04  1787.82  1835.59
                             1838.22  1848.62  1871.85  1901.63  1930.35
                             1961.25  1974.83  1995.21  2011.13  2016.72
                             2049.75  2129.90  2154.53  2173.53  2179.32
                             2184.14  2194.58  2202.53  2336.02  2395.85
                             2413.68  2505.29  4325.48  4333.78  4351.23
                             4375.60  4410.64  4432.98  4439.84  4450.33
                             4475.89  4557.14  4594.17  4614.89  4637.09
                             4644.12  4668.98

 Zero-point correction=                           0.262187 (Hartree/Particle)
 Thermal correction to Energy=                    0.274939
 Thermal correction to Enthalpy=                  0.275884
 Thermal correction to Gibbs Free Energy=         0.222059
 Sum of electronic and zero-point Energies=           -672.294037
 Sum of electronic and thermal Energies=              -672.281284
 Sum of electronic and thermal Enthalpies=            -672.280340
 Sum of electronic and thermal Free Energies=         -672.334164

                     E (Thermal)             CV                S
                      KCal/Mol        Cal/Mol-Kelvin    Cal/Mol-Kelvin
 Total                  172.527             51.794            113.283
 Electronic               0.000              0.000              0.000
 Translational            0.889              2.981             41.973
 Rotational               0.889              2.981             32.304
 Vibrational            170.750             45.833             39.005
 Vibration     1          0.593              1.984              5.851
 Vibration     2          0.596              1.976              4.653
 Vibration     3          0.598              1.970              4.229
 Vibration     4          0.611              1.927              3.010
 Vibration     5          0.626              1.878              2.419
 Vibration     6          0.640              1.833              2.090
 Vibration     7          0.666              1.754              1.693
 Vibration     8          0.670              1.739              1.636
 Vibration     9          0.696              1.664              1.388
 Vibration    10          0.717              1.603              1.229
 Vibration    11          0.730              1.568              1.151
 Vibration    12          0.787              1.416              0.875
 Vibration    13          0.796              1.392              0.840
 Vibration    14          0.828              1.315              0.735
 Vibration    15          0.832              1.305              0.724
 Vibration    16          0.864              1.231              0.637
 Vibration    17          0.932              1.084              0.494
 Vibration    18          0.947              1.053              0.467

 Optimization completed.
    -- Stationary point found.
 Normal termination of Gaussian 16 at Fri Dec 11 00:41:50 2020.

 ----------------------------------------------------------------------
 # B3LYP/6-311++G(d,p) empiricaldispersion=gd3bj scf=xqc pop=npa geom=c
 heck
 ----------------------------------------------------------------------

 ---------------------------------------
 CID_123578658_JID_6804_Energie_neutraal
 ---------------------------------------
 Structure from the checkpoint file:  "JID_6804.chk"
 Charge =  0 Multiplicity = 1

 SCF Done:  E(RB3LYP) =  -672.729412173     A.U. after   15 cycles
 Normal termination of Gaussian 16 at Fri Dec 11 00:45:41 2020.

 ----------------------------------------------------------------------
 # B3LYP/6-311++G(d,p) empiricaldispersion=gd3bj scf=xqc pop=npa geom=c
 heck
 ----------------------------------------------------------------------

 -------------------------------------
 CID_123578658_JID_6804_Energie_kation
 -------------------------------------
 Structure from the checkpoint file:  "JID_6804.chk"
 Charge =  1 Multiplicity = 2

 SCF Done:  E(UB3LYP) =  -672.424077232     A.U. after   27 cycles
 Normal termination of Gaussian 16 at Fri Dec 11 00:55:10 2020.
 Gaussian 16:  ES64L-G16RevA.03 25-Dec-2016

 ----------------------------------------------------------------------
 # B3LYP/6-311++G(d,p) empiricaldispersion=gd3bj scf=xqc pop=npa geom=c
 heck
 ----------------------------------------------------------------------

 ------------------------------------
 CID_123578658_JID_6804_Energie_anion
 ------------------------------------
 Structure from the checkpoint file:  "JID_6804.chk"
 Charge = -1 Multiplicity = 2

                         Standard orientation:
 ---------------------------------------------------------------------
 Center     Atomic      Atomic             Coordinates (Angstroms)
 Number     Number       Type             X           Y           Z
 ---------------------------------------------------------------------
      1          6           0        1.460610    1.695930    1.300412
      2          6           0        2.101709    1.000224    0.360397
      3          6           0        3.584086    1.133922    0.108316
      4          6           0        4.296186   -0.219697    0.291537
      5          6           0        3.652469   -1.301574   -0.583838
      6          6           0        2.147317   -1.419794   -0.320828
      7          6           0        1.440394   -0.059124   -0.517066
      8          6           0       -0.029075   -0.176516   -0.292540
      9          7           0       -0.671582   -1.056859    0.406330
     10          6           0       -2.015681   -0.679867    0.304989
     11          6           0       -3.175924   -1.239588    0.842030
     12          6           0       -4.385871   -0.610761    0.547946
     13          6           0       -4.441681    0.540814   -0.257574
     14          6           0       -3.287756    1.110770   -0.802217
     15          6           0       -2.098426    0.469197   -0.494967
     16          8           0       -0.820080    0.793042   -0.882017
     17          1           0        1.988555    2.419567    1.915871
     18          1           0        0.399232    1.577413    1.494454
     19          1           0        3.748515    1.479406   -0.924342
     20          1           0        4.013796    1.891086    0.772840
     21          1           0        4.226733   -0.515754    1.346712
     22          1           0        5.362121   -0.117893    0.054709
     23          1           0        4.135402   -2.270190   -0.408144
     24          1           0        3.818299   -1.056206   -1.643219
     25          1           0        1.963998   -1.757031    0.705253
     26          1           0        1.693172   -2.163754   -0.984180
     27          1           0        1.581851    0.250734   -1.564237
     28          1           0       -3.128046   -2.127851    1.463058
     29          1           0       -5.309085   -1.017747    0.949573
     30          1           0       -5.404336    0.999765   -0.461875
     31          1           0       -3.318644    1.998521   -1.424234
 ---------------------------------------------------------------------

 SCF Done:  E(UB3LYP) =  -672.717220036     A.U. after   33 cycles
 SCF Done:  E(UB3LYP) =  -672.717220036     a.u. after    1 cycles

 The electronic state is 2-A.
 Alpha  occ. eigenvalues --  -19.07834 -14.19423 -10.14312 -10.12025 -10.08726
 Alpha  occ. eigenvalues --  -10.08578 -10.07579 -10.06920 -10.06785 -10.06670
 Alpha  occ. eigenvalues --  -10.06407 -10.06271 -10.06192 -10.06121 -10.06066
 Alpha  occ. eigenvalues --  -10.05060  -1.01175  -0.81198  -0.75256  -0.73615
 Alpha  occ. eigenvalues --   -0.67023  -0.66047  -0.64380  -0.62271  -0.57723
 Alpha  occ. eigenvalues --   -0.53980  -0.50752  -0.50074  -0.47989  -0.47283
 Alpha  occ. eigenvalues --   -0.42528  -0.40931  -0.39936  -0.37978  -0.37867
 Alpha  occ. eigenvalues --   -0.35183  -0.34443  -0.33884  -0.33379  -0.31540
 Alpha  occ. eigenvalues --   -0.31350  -0.30237  -0.28523  -0.28279  -0.26865
 Alpha  occ. eigenvalues --   -0.25670  -0.25147  -0.24685  -0.24120  -0.23128
 Alpha  occ. eigenvalues --   -0.22078  -0.21598  -0.20592  -0.17903  -0.14856
 Alpha  occ. eigenvalues --   -0.14068  -0.12963   0.04835
 Alpha virt. eigenvalues --    0.06378   0.07104   0.08033   0.08262   0.08758
 Alpha virt. eigenvalues --    0.08912   0.10122   0.10298   0.10879   0.11047
 Alpha virt. eigenvalues --    0.11323   0.11457   0.11500   0.12415   0.12843

  Beta  occ. eigenvalues --  -19.07806 -14.19430 -10.14090 -10.12062 -10.08669
  Beta  occ. eigenvalues --  -10.08588 -10.07541 -10.06954 -10.06651 -10.06571
  Beta  occ. eigenvalues --  -10.06388 -10.06253 -10.06101 -10.06039 -10.06029
  Beta  occ. eigenvalues --  -10.05025  -1.01076  -0.81085  -0.75107  -0.73502
  Beta  occ. eigenvalues --   -0.66908  -0.65963  -0.64134  -0.62138  -0.57636
  Beta  occ. eigenvalues --   -0.53842  -0.50633  -0.49904  -0.47878  -0.47176
  Beta  occ. eigenvalues --   -0.42413  -0.40804  -0.39839  -0.37887  -0.37624
  Beta  occ. eigenvalues --   -0.35094  -0.34321  -0.33769  -0.33323  -0.31474
  Beta  occ. eigenvalues --   -0.31303  -0.30181  -0.28424  -0.28217  -0.26795
  Beta  occ. eigenvalues --   -0.25586  -0.24739  -0.24615  -0.24019  -0.23076
  Beta  occ. eigenvalues --   -0.21950  -0.21279  -0.20510  -0.17884  -0.14617
  Beta  occ. eigenvalues --   -0.13536  -0.12218
  Beta virt. eigenvalues --    0.06951   0.07350   0.08375   0.08407   0.08515
  Beta virt. eigenvalues --    0.08918   0.09339   0.10302   0.10474   0.11176
  Beta virt. eigenvalues --    0.11249   0.11391   0.11652   0.11853   0.12614

 Mulliken charges and spin densities:
               1          2
     1  C   -0.452778   0.075073
     2  C   -0.034791   0.468279
     3  C    0.136887  -0.736686
     4  C    0.633855  -1.000020
     5  C   -0.121474  -0.275099
     6  C   -0.040160  -0.511540
     7  C    0.107967  -0.112965
     8  C    0.021219  -0.685912
     9  N    0.139782   0.022789
    10  C    0.728541  -0.138961
    11  C   -0.894373   0.536013
    12  C   -0.238267  -0.089829
    13  C   -0.204853  -0.013915
    14  C   -1.072360   0.646818
    15  C    0.876146  -0.051199
    16  O   -0.003713   0.018034
    17  H   -0.061456   0.207468
    18  H    0.191931  -0.061326
    19  H   -0.066054   0.208984
    20  H   -0.259717   0.419305
    21  H    0.216417  -0.113054
    22  H   -0.816232   1.000693
    23  H   -0.250397   0.423154
    24  H   -0.074674   0.207466
    25  H    0.122501   0.061966
    26  H    0.089447   0.078545
    27  H   -0.030786   0.245907
    28  H    0.108214   0.027718
    29  H    0.097303   0.032709
    30  H    0.093517   0.028123
    31  H    0.058358   0.081460
 Sum of Mulliken charges =  -1.00000   1.00000

 Dipole moment (field-independent basis, Debye):
    X=             -6.8505    Y=             -0.0657    Z=              0.8561  Tot=              6.9041
 Quadrupole moment (field-independent basis, Debye-Ang):
   XX=           -190.1734   YY=           -122.6598   ZZ=           -116.5215
   XY=             -4.1997   XZ=              4.4095   YZ=             -2.2771

 Summary of Natural Population Analysis:

                                       Natural Population
                Natural  -----------------------------------------------
    Atom  No    Charge         Core      Valence    Rydberg      Total
 -----------------------------------------------------------------------
      C    1   -0.19620      0.99948     2.18857    0.00816     3.19620
      C    2    0.01753      0.99951     1.97212    0.01084     2.98247
      C    3   -0.20491      0.99958     2.19424    0.01108     3.20491
      C    4   -0.18554      0.99963     2.17695    0.00896     3.18554
      C    5   -0.19021      0.99963     2.18192    0.00866     3.19021
      C    6   -0.18063      0.99962     2.17086    0.01015     3.18063
      C    7   -0.16740      0.99952     2.15202    0.01587     3.16740
      C    8    0.36465      0.99957     1.61920    0.01658     2.63535
      N    9   -0.27221      0.99967     2.76089    0.01165     3.77221
      C   10    0.04739      0.99944     1.93917    0.01400     2.95261
      C   11   -0.07632      0.99953     2.06802    0.00877     3.07632
      C   12   -0.12213      0.99959     2.11238    0.01017     3.12213
      C   13   -0.09411      0.99959     2.08423    0.01029     3.09411
      C   14   -0.10419      0.99952     2.09543    0.00923     3.10419
      C   15    0.12905      0.99933     1.85719    0.01443     2.87095
      O   16   -0.24995      0.99985     3.24166    0.00844     4.24995
      H   17    0.09206      0.00000     0.40704    0.00091     0.40794
      H   18    0.09679      0.00000     0.40221    0.00100     0.40321
      H   19    0.10005      0.00000     0.39815    0.00180     0.39995
      H   20    0.10305      0.00000     0.39553    0.00143     0.39695
      H   21    0.09196      0.00000     0.40682    0.00122     0.40804
      H   22    0.10261      0.00000     0.39434    0.00305     0.39739
      H   23    0.09887      0.00000     0.40023    0.00089     0.40113
      H   24    0.09378      0.00000     0.40454    0.00168     0.40622
      H   25    0.10216      0.00000     0.39622    0.00161     0.39784
      H   26    0.10270      0.00000     0.39622    0.00108     0.39730
      H   27    0.11117      0.00000     0.38654    0.00229     0.38883
      H   28    0.09876      0.00000     0.39983    0.00141     0.40124
      H   29    0.09524      0.00000     0.40393    0.00082     0.40476
      H   30    0.09421      0.00000     0.40500    0.00080     0.40579
      H   31    0.10194      0.00000     0.39707    0.00099     0.39806
 =======================================================================
   * Total *    0.00015     15.99304    40.80854    0.19826    56.99985

 Normal termination of Gaussian 16 at Fri Dec 11 01:07:00 2020.
