 Gaussian 16, Revision A.03,

 -----------------------------------------------------------
 # opt freq B3LYP/6-31G(d) empiricaldispersion=gd3bj scf=xqc
 -----------------------------------------------------------

 -------------------------------
 CID_151011581_JID_2525_neutraal
 -------------------------------
 Symbolic Z-matrix:
 Charge =  0 Multiplicity = 1

 SCF Done:  E(RB3LYP) =  -563.069955591     A.U. after   18 cycles
 SCF Done:  E(RB3LYP) =  -563.079287849     A.U. after   14 cycles
 SCF Done:  E(RB3LYP) =  -563.080714251     A.U. after   15 cycles
 SCF Done:  E(RB3LYP) =  -563.081091920     A.U. after   13 cycles
 SCF Done:  E(RB3LYP) =  -563.081302572     A.U. after   12 cycles
 SCF Done:  E(RB3LYP) =  -563.081961891     A.U. after   13 cycles
 SCF Done:  E(RB3LYP) =  -563.078709915     A.U. after   17 cycles
 SCF Done:  E(RB3LYP) =  -563.083128715     A.U. after   15 cycles
 SCF Done:  E(RB3LYP) =  -563.083220109     A.U. after   15 cycles
 SCF Done:  E(RB3LYP) =  -563.084398031     A.U. after   17 cycles
 SCF Done:  E(RB3LYP) =  -563.086997713     A.U. after   11 cycles
 SCF Done:  E(RB3LYP) =  -563.087000663     A.U. after   10 cycles
 SCF Done:  E(RB3LYP) =  -563.087001774     A.U. after    9 cycles
 SCF Done:  E(RB3LYP) =  -563.087002212     A.U. after    8 cycles
 SCF Done:  E(RB3LYP) =  -563.087002293     A.U. after    8 cycles
 Optimization completed.
    -- Stationary point found.

 1\1\GINC-NODE116\FOpt\RB3LYP\6-31G(d)\C6H10N6\VSC10255\09-Dec-2020\0\\
 # opt freq B3LYP/6-31G(d) empiricaldispersion=gd3bj scf=xqc\\CID_15101
 1581_JID_2525_neutraal\\0,1\C,0.9764542807,0.0280228807,0.0293208203\C
 ,0.464677088,-0.2537687243,1.4199446593\C,0.2911262258,-1.5000010578,1
 .939643703\N,-0.2478673436,-1.609577356,3.2324803795\C,0.0783046146,-0
 .4790355516,4.1308369874\N,-0.254582447,0.7801329023,3.522199768\C,0.0
 14878824,0.8686886594,2.2618020096\N,-0.1062637315,2.1070398222,1.6509
 939186\N,0.0588822333,-2.8640870162,3.8754327417\N,-0.976191567,-3.396

 Normal termination of Gaussian 16 at Wed Dec  9 18:05:40 2020.

 --------------------------------------------------------------------
 #N Geom=AllCheck Guess=TCheck SCRF=Check GenChk RB3LYP/6-31G(d) Freq
 --------------------------------------------------------------------

 Structure from the checkpoint file:  "JID_2525.chk"
 -------------------------------
 CID_151011581_JID_2525_neutraal
 -------------------------------
 Charge =  0 Multiplicity = 1

 SCF Done:  E(RB3LYP) =  -563.087002293     A.U. after    1 cycles

  Exact polarizability: 160.035  -4.104  96.115  -4.137   0.288  65.622
 Approx polarizability: 249.648 -12.810 141.851 -23.482   6.434 113.808

                      1                      2                      3
                      A                      A                      A
 Frequencies --     26.9220                62.5816               107.9730
 Red. masses --      7.7399                 5.1299                 2.3555
 Frc consts  --      0.0033                 0.0118                 0.0162
 IR Inten    --      0.4703                 1.2558                 0.4763

                      4                      5                      6
                      A                      A                      A
 Frequencies --    135.3959               161.6141               166.3749
 Red. masses --      1.1731                 5.1638                 1.0574
 Frc consts  --      0.0127                 0.0795                 0.0172
 IR Inten    --      0.7116                 2.0635                 0.3695

                      7                      8                      9
                      A                      A                      A
 Frequencies --    241.0176               262.8897               316.2910
 Red. masses --      3.7736                 2.9182                 3.4971
 Frc consts  --      0.1292                 0.1188                 0.2061
 IR Inten    --      2.1108                 7.7065                 1.3986

                     10                     11                     12
                      A                      A                      A
 Frequencies --    325.8154               346.9807               366.5390
 Red. masses --      3.4578                 4.1723                 2.7164
 Frc consts  --      0.2163                 0.2960                 0.2150
 IR Inten    --     18.0296                 1.4627                 2.3360

                     13                     14                     15
                      A                      A                      A
 Frequencies --    416.5633               440.0230               479.0693
 Red. masses --      6.5282                 1.2019                 4.9126
 Frc consts  --      0.6674                 0.1371                 0.6643
 IR Inten    --      7.6618                62.5188                 2.2214

                     16                     17                     18
                      A                      A                      A
 Frequencies --    535.8440               547.1313               561.9024
 Red. masses --      3.1484                 3.4092                10.7093
 Frc consts  --      0.5326                 0.6013                 1.9922
 IR Inten    --     25.0086                66.8121                12.2850

                     19                     20                     21
                      A                      A                      A
 Frequencies --    595.5301               649.5315               718.2412
 Red. masses --      5.4220                 1.6191                 4.2976
 Frc consts  --      1.1330                 0.4025                 1.3062
 IR Inten    --     39.1238               113.5544                 8.2598

                     22                     23                     24
                      A                      A                      A
 Frequencies --    742.5748               759.8523               853.1273
 Red. masses --      6.5964                 4.5252                 3.6355
 Frc consts  --      2.1431                 1.5394                 1.5590
 IR Inten    --      6.5860               110.7470                 6.2048

                     25                     26                     27
                      A                      A                      A
 Frequencies --    957.4113              1012.0373              1037.1701
 Red. masses --      2.4930                 2.6229                 1.9270
 Frc consts  --      1.3464                 1.5828                 1.2214
 IR Inten    --      9.8545                 2.6274                49.6744

                     28                     29                     30
                      A                      A                      A
 Frequencies --   1060.8880              1080.7621              1087.7694
 Red. masses --      1.4759                 1.5054                 2.8850
 Frc consts  --      0.9787                 1.0360                 2.0113
 IR Inten    --      5.1680                 5.6451                17.4360

                     31                     32                     33
                      A                      A                      A
 Frequencies --   1108.2779              1148.8671              1194.5875
 Red. masses --      1.9537                 2.4618                 2.7212
 Frc consts  --      1.4138                 1.9144                 2.2880
 IR Inten    --      9.0567                14.5863                25.8787

                     34                     35                     36
                      A                      A                      A
 Frequencies --   1224.4151              1260.4198              1289.6525
 Red. masses --      6.7840                 2.8131                 1.1848
 Frc consts  --      5.9923                 2.6331                 1.1611
 IR Inten    --     72.9154                24.2680                 5.0092

                     37                     38                     39
                      A                      A                      A
 Frequencies --   1310.9955              1416.8438              1435.3522
 Red. masses --      3.3894                 2.7236                 1.4267
 Frc consts  --      3.4323                 3.2214                 1.7318
 IR Inten    --     25.7432               136.6125                12.6628

                     40                     41                     42
                      A                      A                      A
 Frequencies --   1449.4759              1458.0707              1503.5111
 Red. masses --      1.4520                 1.5695                 1.0738
 Frc consts  --      1.7974                 1.9660                 1.4302
 IR Inten    --     37.8325                32.0601                 8.9386

                     43                     44                     45
                      A                      A                      A
 Frequencies --   1509.3465              1526.2714              1535.3692
 Red. masses --      1.0462                 1.0533                 1.0823
 Frc consts  --      1.4042                 1.4456                 1.5032
 IR Inten    --     11.8974                10.2962                12.1375

                     46                     47                     48
                      A                      A                      A
 Frequencies --   1544.2867              1643.8943              1669.8345
 Red. masses --      1.0981                 2.5772                 1.6959
 Frc consts  --      1.5429                 4.1035                 2.7861
 IR Inten    --      3.1841               110.6079                29.4288

                     49                     50                     51
                      A                      A                      A
 Frequencies --   1730.7816              2228.7007              2925.2843
 Red. masses --      5.5169                13.9820                 1.0736
 Frc consts  --      9.7370                40.9188                 5.4130
 IR Inten    --    310.1924               562.0855               110.7403

                     52                     53                     54
                      A                      A                      A
 Frequencies --   3011.6030              3063.9966              3095.7138
 Red. masses --      1.0572                 1.0412                 1.0812
 Frc consts  --      5.6493                 5.7591                 6.1051
 IR Inten    --     53.5287                12.8879                17.7599

                     55                     56                     57
                      A                      A                      A
 Frequencies --   3098.2425              3114.1721              3144.5461
 Red. masses --      1.0899                 1.0993                 1.0989
 Frc consts  --      6.1642                 6.2816                 6.4021
 IR Inten    --     39.1593                 7.8515                14.2649

                     58                     59                     60
                      A                      A                      A
 Frequencies --   3181.7873              3553.0940              3663.0525
 Red. masses --      1.0966                 1.0469                 1.0993
 Frc consts  --      6.5409                 7.7873                 8.6907
 IR Inten    --     19.9228                18.2704                15.4601

 - Thermochemistry -
 -------------------
 Temperature   298.150 Kelvin.  Pressure   1.00000 Atm.
 Atom     1 has atomic number  6 and mass  12.00000

 Molecular mass:   166.09669 amu.
 Principal axes and moments of inertia in atomic units:
                           1         2         3
     Eigenvalues --  1006.381952825.103793612.99716
           X            0.99990  -0.00998   0.00955
           Y            0.01003   0.99994  -0.00508
           Z           -0.00949   0.00518   0.99994
 This molecule is an asymmetric top.
 Rotational symmetry number  1.
 Warning -- assumption of classical behavior for rotation
           may cause significant error
 Rotational temperatures (Kelvin)      0.08606     0.03066     0.02397
 Rotational constants (GHZ):           1.79330     0.63882     0.49951
 Zero-point vibrational energy     461138.1 (Joules/Mol)
                                  110.21465 (Kcal/Mol)
 Warning -- explicit consideration of  19 degrees of freedom as
           vibrations may cause significant error
 Vibrational temperatures:     38.73    90.04   155.35   194.80   232.53
          (Kelvin)            239.38   346.77   378.24   455.07   468.78
                              499.23   527.37   599.34   633.09   689.27
                              770.96   787.20   808.45   856.84   934.53
                             1033.39  1068.40  1093.26  1227.46  1377.50
                             1456.10  1492.26  1526.38  1554.98  1565.06
                             1594.56  1652.96  1718.74  1761.66  1813.46
                             1855.52  1886.23  2038.52  2065.15  2085.47
                             2097.84  2163.22  2171.61  2195.96  2209.05
                             2221.88  2365.20  2402.52  2490.21  3206.60
                             4208.83  4333.02  4408.41  4454.04  4457.68
                             4480.60  4524.30  4577.88  5112.11  5270.32

 Zero-point correction=                           0.175638 (Hartree/Particle)
 Thermal correction to Energy=                    0.187649
 Thermal correction to Enthalpy=                  0.188593
 Thermal correction to Gibbs Free Energy=         0.136981
 Sum of electronic and zero-point Energies=           -562.911364
 Sum of electronic and thermal Energies=              -562.899353
 Sum of electronic and thermal Enthalpies=            -562.898409
 Sum of electronic and thermal Free Energies=         -562.950021

                     E (Thermal)             CV                S
                      KCal/Mol        Cal/Mol-Kelvin    Cal/Mol-Kelvin
 Total                  117.752             44.052            108.626
 Electronic               0.000              0.000              0.000
 Translational            0.889              2.981             41.230
 Rotational               0.889              2.981             30.708
 Vibrational            115.974             38.090             36.688
 Vibration     1          0.593              1.984              6.044
 Vibration     2          0.597              1.972              4.374
 Vibration     3          0.606              1.943              3.305
 Vibration     4          0.613              1.918              2.868
 Vibration     5          0.622              1.889              2.531
 Vibration     6          0.624              1.884              2.476
 Vibration     7          0.658              1.778              1.795
 Vibration     8          0.670              1.741              1.643
 Vibration     9          0.703              1.643              1.329
 Vibration    10          0.710              1.624              1.281
 Vibration    11          0.725              1.581              1.180
 Vibration    12          0.739              1.541              1.094
 Vibration    13          0.780              1.434              0.904
 Vibration    14          0.800              1.383              0.827
 Vibration    15          0.836              1.296              0.713
 Vibration    16          0.891              1.171              0.574
 Vibration    17          0.902              1.146              0.550
 Vibration    18          0.918              1.114              0.520
 Vibration    19          0.953              1.041              0.457

                           ! Non-Optimized Parameters !

 1\1\GINC-NODE116\Freq\RB3LYP\6-31G(d)\C6H10N6\VSC10255\09-Dec-2020\0\\
 #N Geom=AllCheck Guess=TCheck SCRF=Check GenChk RB3LYP/6-31G(d) Freq\\
 CID_151011581_JID_2525_neutraal\\0,1\C,0.9764542807,0.0280228807,0.029
 3208203\C,0.464677088,-0.2537687243,1.4199446593\C,0.2911262258,-1.500
 0010578,1.939643703\N,-0.2478673436,-1.609577356,3.2324803795\C,0.0783
 046146,-0.4790355516,4.1308369874\N,-0.254582447,0.7801329023,3.522199
 768\C,0.014878824,0.8686886594,2.2618020096\N,-0.1062637315,2.10703982
 22,1.6509939186\N,0.0588822333,-2.8640870162,3.8754327417\N,-0.9761915

 Normal termination of Gaussian 16 at Wed Dec  9 18:11:12 2020.

 ----------------------------------------------------------------------
 # B3LYP/6-311++G(d,p) empiricaldispersion=gd3bj scf=xqc pop=npa geom=c
 heck
 ----------------------------------------------------------------------

 ---------------------------------------
 CID_151011581_JID_2525_Energie_neutraal
 ---------------------------------------
 Structure from the checkpoint file:  "JID_2525.chk"
 Charge =  0 Multiplicity = 1

 SCF Done:  E(RB3LYP) =  -563.247600417     A.U. after   18 cycles
 Normal termination of Gaussian 16 at Wed Dec  9 18:14:42 2020.

 ----------------------------------------------------------------------
 # B3LYP/6-311++G(d,p) empiricaldispersion=gd3bj scf=xqc pop=npa geom=c
 heck
 ----------------------------------------------------------------------

 -------------------------------------
 CID_151011581_JID_2525_Energie_kation
 -------------------------------------
 Structure from the checkpoint file:  "JID_2525.chk"
 Charge =  1 Multiplicity = 2

 SCF Done:  E(UB3LYP) =  -562.972602335     A.U. after   24 cycles
 Normal termination of Gaussian 16 at Wed Dec  9 18:20:31 2020.
 Gaussian 16:  ES64L-G16RevA.03 25-Dec-2016

 ------------------------------------
 CID_151011581_JID_2525_Energie_anion
 ------------------------------------
 Structure from the checkpoint file:  "JID_2525.chk"
 Charge = -1 Multiplicity = 2

                         Standard orientation:
 ---------------------------------------------------------------------
 Center     Atomic      Atomic             Coordinates (Angstroms)
 Number     Number       Type             X           Y           Z
 ---------------------------------------------------------------------
      1          6           0       -2.517567    1.614333    0.003707
      2          6           0       -1.417749    0.582567    0.035577
      3          6           0       -0.088553    0.873809    0.077040
      4          7           0        0.824825   -0.193303    0.046048
      5          6           0        0.328249   -1.443819    0.663444
      6          7           0       -0.947146   -1.821086    0.117737
      7          6           0       -1.765847   -0.843592   -0.090323
      8          7           0       -3.072739   -1.146087   -0.439330
      9          7           0        2.120981    0.147783    0.579824
     10          7           0        3.033704   -0.185048   -0.210467
     11          7           0        3.977436   -0.443330   -0.793271
     12          6           0        0.504792    2.250203    0.039442
     13          1           0       -2.891220    1.805122   -1.014260
     14          1           0       -2.197796    2.575180    0.411854
     15          1           0       -3.370235    1.274937    0.601093
     16          1           0        1.067511   -2.220737    0.450268
     17          1           0        0.275145   -1.313213    1.762564
     18          1           0       -3.529264   -0.515936   -1.085778
     19          1           0       -3.192684   -2.124928   -0.673045
     20          1           0        1.208661    2.332593   -0.796612
     21          1           0       -0.261556    3.014146   -0.085811
     22          1           0        1.072045    2.459331    0.952618
 ---------------------------------------------------------------------

 SCF Done:  E(UB3LYP) =  -563.249692266     A.U. after   33 cycles
 SCF Done:  E(UB3LYP) =  -563.249692266     a.u. after    1 cycles

 The electronic state is 2-A.
 Alpha  occ. eigenvalues --  -14.29499 -14.22840 -14.22751 -14.21230 -14.20543
 Alpha  occ. eigenvalues --  -14.15669 -10.11942 -10.10166 -10.09972 -10.06080
 Alpha  occ. eigenvalues --  -10.05915 -10.05236  -0.98245  -0.87736  -0.83447
 Alpha  occ. eigenvalues --   -0.77743  -0.73215  -0.67916  -0.62072  -0.57749
 Alpha  occ. eigenvalues --   -0.53958  -0.49129  -0.43324  -0.42138  -0.40090
 Alpha  occ. eigenvalues --   -0.37696  -0.36017  -0.34046  -0.33688  -0.32102
 Alpha  occ. eigenvalues --   -0.31050  -0.30372  -0.30119  -0.29337  -0.28010
 Alpha  occ. eigenvalues --   -0.27194  -0.26726  -0.24392  -0.21640  -0.17534
 Alpha  occ. eigenvalues --   -0.14452  -0.12603  -0.11239  -0.07498   0.04678
 Alpha virt. eigenvalues --    0.06420   0.08019   0.09049   0.09818   0.10033
 Alpha virt. eigenvalues --    0.11068   0.11638   0.12650   0.12970   0.13791
 Alpha virt. eigenvalues --    0.14215   0.15143   0.15295   0.16822   0.17421

  Beta  occ. eigenvalues --  -14.29031 -14.22810 -14.22653 -14.20578 -14.20508
  Beta  occ. eigenvalues --  -14.15674 -10.11902 -10.10119 -10.09960 -10.06066
  Beta  occ. eigenvalues --  -10.05884 -10.05246  -0.97364  -0.87402  -0.83317
  Beta  occ. eigenvalues --   -0.77499  -0.73066  -0.67768  -0.62022  -0.57685
  Beta  occ. eigenvalues --   -0.53725  -0.48999  -0.43082  -0.41968  -0.39956
  Beta  occ. eigenvalues --   -0.37006  -0.35776  -0.33362  -0.32754  -0.32031
  Beta  occ. eigenvalues --   -0.30880  -0.30091  -0.29793  -0.28483  -0.27888
  Beta  occ. eigenvalues --   -0.27064  -0.26673  -0.24120  -0.20660  -0.17133
  Beta  occ. eigenvalues --   -0.14377  -0.12452  -0.11089  -0.07386
  Beta virt. eigenvalues --    0.07151   0.08472   0.09243   0.09785   0.10114
  Beta virt. eigenvalues --    0.11077   0.11838   0.12428   0.12673   0.12995
  Beta virt. eigenvalues --    0.14062   0.14404   0.15130   0.15641   0.16888

 Mulliken charges and spin densities:
               1          2
     1  C    1.671775  -2.515078
     2  C    0.536000   0.304462
     3  C   -1.090480   0.892420
     4  N    0.168435   0.059699
     5  C   -0.115616  -0.233139
     6  N   -0.197211  -0.033185
     7  C   -0.708069   0.472441
     8  N   -0.358752   0.073423
     9  N   -0.340773  -0.131098
    10  N    0.138422   0.215044
    11  N   -0.282281   0.451476
    12  C   -0.188846  -0.462384
    13  H   -0.359189   0.515346
    14  H    0.020460   0.095883
    15  H   -0.015380   0.180720
    16  H    0.144878   0.013894
    17  H    0.035677   0.065754
    18  H   -0.153114   0.398462
    19  H    0.085276   0.171715
    20  H    0.118746   0.044768
    21  H   -0.108702   0.229924
    22  H   -0.001257   0.189455
 Sum of Mulliken charges =  -1.00000   1.00000

 Dipole moment (field-independent basis, Debye):
    X=             -1.3711    Y=              0.8444    Z=              1.5238  Tot=              2.2170
 Quadrupole moment (field-independent basis, Debye-Ang):
   XX=           -133.7664   YY=            -93.7739   ZZ=            -90.1489
   XY=              4.4078   XZ=             -0.6411   YZ=             -0.2171

 Summary of Natural Population Analysis:

                                       Natural Population
                Natural  -----------------------------------------------
    Atom  No    Charge         Core      Valence    Rydberg      Total
 -----------------------------------------------------------------------
      C    1   -0.29428      0.99965     2.28845    0.00618     3.29428
      C    2   -0.10977      0.99941     2.09923    0.01113     3.10977
      C    3    0.14048      0.99944     1.84600    0.01409     2.85952
      N    4   -0.15952      0.99961     2.64738    0.01253     3.65952
      C    5    0.01279      0.99962     1.97408    0.01351     2.98721
      N    6   -0.29982      0.99965     2.78862    0.01154     3.79982
      C    7    0.22592      0.99954     1.75556    0.01898     2.77408
      N    8   -0.40024      0.99971     2.89084    0.00969     3.90024
      N    9   -0.16293      0.99972     2.64788    0.01533     3.66293
      N   10    0.14898      0.99971     2.33621    0.01510     3.35102
      N   11    0.03799      0.99982     2.44801    0.01418     3.46201
      C   12   -0.30480      0.99962     2.30042    0.00477     3.30480
      H   13    0.09716      0.00000     0.40086    0.00198     0.40284
      H   14    0.10197      0.00000     0.39713    0.00091     0.39803
      H   15    0.10390      0.00000     0.39471    0.00138     0.39610
      H   16    0.08994      0.00000     0.40814    0.00192     0.41006
      H   17    0.07046      0.00000     0.42673    0.00281     0.42954
      H   18    0.18717      0.00000     0.30977    0.00306     0.31283
      H   19    0.18757      0.00000     0.30958    0.00285     0.31243
      H   20    0.11031      0.00000     0.38824    0.00145     0.38969
      H   21    0.10160      0.00000     0.39756    0.00084     0.39840
      H   22    0.11512      0.00000     0.38324    0.00164     0.38488
 =======================================================================
   * Total *    0.00000     11.99550    31.83864    0.16586    44.00000

 Normal termination of Gaussian 16 at Wed Dec  9 18:27:51 2020.
