 Gaussian 16, Revision A.03,

 -----------------------------------------------------------
 # opt freq B3LYP/6-31G(d) empiricaldispersion=gd3bj scf=xqc
 -----------------------------------------------------------

 ------------------------------
 CID_142382835_JID_415_neutraal
 ------------------------------
 Symbolic Z-matrix:
 Charge =  0 Multiplicity = 1

 SCF Done:  E(RB3LYP) =  -785.495677014     A.U. after   15 cycles
 SCF Done:  E(RB3LYP) =  -785.499679729     A.U. after   13 cycles
 SCF Done:  E(RB3LYP) =  -785.499767526     A.U. after   13 cycles
 SCF Done:  E(RB3LYP) =  -785.500027972     A.U. after   13 cycles
 SCF Done:  E(RB3LYP) =  -785.500076842     A.U. after   11 cycles
 SCF Done:  E(RB3LYP) =  -785.500239562     A.U. after   14 cycles
 SCF Done:  E(RB3LYP) =  -785.499750506     A.U. after   16 cycles
 SCF Done:  E(RB3LYP) =  -785.500506617     A.U. after   12 cycles
 SCF Done:  E(RB3LYP) =  -785.500665296     A.U. after   14 cycles
 SCF Done:  E(RB3LYP) =  -785.500898890     A.U. after   12 cycles
 SCF Done:  E(RB3LYP) =  -785.500931650     A.U. after   12 cycles
 SCF Done:  E(RB3LYP) =  -785.500932337     A.U. after   10 cycles
 SCF Done:  E(RB3LYP) =  -785.500936798     A.U. after   10 cycles
 SCF Done:  E(RB3LYP) =  -785.500936998     A.U. after    8 cycles
 Optimization completed.
    -- Stationary point found.
 Normal termination of Gaussian 16 at Tue Dec  8 10:37:23 2020.

 --------------------------------------------------------------------
 #N Geom=AllCheck Guess=TCheck SCRF=Check GenChk RB3LYP/6-31G(d) Freq
 --------------------------------------------------------------------

 Structure from the checkpoint file:  "JID_415.chk"
 ------------------------------
 CID_142382835_JID_415_neutraal
 ------------------------------
 Charge =  0 Multiplicity = 1

 SCF Done:  E(RB3LYP) =  -785.500936998     A.U. after    1 cycles

  Exact polarizability: 135.210   3.799  92.985   9.293   1.404  77.273
 Approx polarizability: 192.856  11.317 137.155  29.114   4.115 127.061

                      1                      2                      3
                      A                      A                      A
 Frequencies --     28.3859                76.8891               135.4322
 Red. masses --      7.1160                 3.0709                 4.9515
 Frc consts  --      0.0034                 0.0107                 0.0535
 IR Inten    --      0.4104                 0.3020                 1.6151

                      4                      5                      6
                      A                      A                      A
 Frequencies --    144.8723               190.7908               239.1742
 Red. masses --      3.6446                 3.1293                 1.1013
 Frc consts  --      0.0451                 0.0671                 0.0371
 IR Inten    --      0.4003                 0.7327                 0.0608

                      7                      8                      9
                      A                      A                      A
 Frequencies --    249.1875               284.0648               326.2294
 Red. masses --      1.2226                 3.3788                 2.3018
 Frc consts  --      0.0447                 0.1606                 0.1443
 IR Inten    --      0.1120                 0.0424                 0.2540

                     10                     11                     12
                      A                      A                      A
 Frequencies --    353.8807               378.9298               424.9184
 Red. masses --      2.2992                 3.6428                 3.1419
 Frc consts  --      0.1696                 0.3082                 0.3342
 IR Inten    --      0.2419                 0.7306                 0.1042

                     13                     14                     15
                      A                      A                      A
 Frequencies --    461.0461               487.8728               541.5908
 Red. masses --      6.2174                 4.0697                 3.2089
 Frc consts  --      0.7787                 0.5707                 0.5546
 IR Inten    --      8.5251                 2.1940                 2.4940

                     16                     17                     18
                      A                      A                      A
 Frequencies --    575.1517               675.9974               682.4513
 Red. masses --      9.5867                 6.0532                 2.9399
 Frc consts  --      1.8685                 1.6298                 0.8067
 IR Inten    --      0.7369                 0.4271                 5.0908

                     19                     20                     21
                      A                      A                      A
 Frequencies --    840.0644               882.5931               929.0575
 Red. masses --      1.9797                 2.2509                 2.1677
 Frc consts  --      0.8232                 1.0331                 1.1024
 IR Inten    --      1.8160                 0.3432                 4.0265

                     22                     23                     24
                      A                      A                      A
 Frequencies --    945.3039               976.1452               979.4988
 Red. masses --      1.2039                 2.0492                 1.4984
 Frc consts  --      0.6338                 1.1504                 0.8470
 IR Inten    --      2.2555                 5.8119                 0.8390

                     25                     26                     27
                      A                      A                      A
 Frequencies --   1004.4072              1061.3244              1071.5772
 Red. masses --      1.6979                 2.3507                 3.7894
 Frc consts  --      1.0092                 1.5601                 2.5637
 IR Inten    --      2.0076                 0.6884                12.5123

                     28                     29                     30
                      A                      A                      A
 Frequencies --   1138.4573              1149.8260              1191.9182
 Red. masses --      1.7377                 1.7204                 1.4077
 Frc consts  --      1.3270                 1.3401                 1.1783
 IR Inten    --      2.0129                 2.3285                 1.0831

                     31                     32                     33
                      A                      A                      A
 Frequencies --   1205.2927              1222.8444              1279.2353
 Red. masses --      1.7241                 1.4673                 1.3375
 Frc consts  --      1.4757                 1.2928                 1.2896
 IR Inten    --      5.0885                 1.7859                27.9019

                     34                     35                     36
                      A                      A                      A
 Frequencies --   1315.7088              1338.9396              1361.7206
 Red. masses --      1.3404                 1.3547                 1.3518
 Frc consts  --      1.3671                 1.4309                 1.4768
 IR Inten    --      1.2414                14.4007                 0.9852

                     37                     38                     39
                      A                      A                      A
 Frequencies --   1375.6599              1402.4066              1407.8539
 Red. masses --      1.2976                 2.2714                 2.2097
 Frc consts  --      1.4468                 2.6320                 2.5805
 IR Inten    --      2.6236                 3.6604                 9.6620

                     40                     41                     42
                      A                      A                      A
 Frequencies --   1430.2382              1449.6770              1507.2033
 Red. masses --      1.2516                 1.2258                 1.0859
 Frc consts  --      1.5085                 1.5178                 1.4534
 IR Inten    --      6.2006                 5.7678                 3.8508

                     43                     44                     45
                      A                      A                      A
 Frequencies --   1515.8701              1517.3464              1525.7864
 Red. masses --      1.1016                 1.0497                 1.0452
 Frc consts  --      1.4915                 1.4239                 1.4336
 IR Inten    --      1.3435                 0.4809                 3.3032

                     46                     47                     48
                      A                      A                      A
 Frequencies --   1534.4578              1543.4885              2220.9247
 Red. masses --      1.0562                 1.0467                12.5118
 Frc consts  --      1.4653                 1.4692                36.3611
 IR Inten    --      2.0748                11.3613               828.5983

                     49                     50                     51
                      A                      A                      A
 Frequencies --   3033.1740              3038.9176              3042.0023
 Red. masses --      1.0818                 1.0676                 1.0370
 Frc consts  --      5.8637                 5.8088                 5.6540
 IR Inten    --      4.1303                28.1648                18.1708

                     52                     53                     54
                      A                      A                      A
 Frequencies --   3046.3222              3056.4752              3060.5246
 Red. masses --      1.0413                 1.0635                 1.0789
 Frc consts  --      5.6934                 5.8538                 5.9544
 IR Inten    --     16.6983                26.4961                21.3339

                     55                     56                     57
                      A                      A                      A
 Frequencies --   3106.0382              3106.5859              3112.4400
 Red. masses --      1.0993                 1.1004                 1.1017
 Frc consts  --      6.2483                 6.2573                 6.2881
 IR Inten    --     18.6054                 2.7892                12.5111

                     58                     59                     60
                      A                      A                      A
 Frequencies --   3113.5229              3122.2581              3125.6459
 Red. masses --      1.1008                 1.1022                 1.1016
 Frc consts  --      6.2876                 6.3308                 6.3408
 IR Inten    --     78.5075                29.2471                39.5355

 - Thermochemistry -
 -------------------
 Temperature   298.150 Kelvin.  Pressure   1.00000 Atm.
 Atom     1 has atomic number  6 and mass  12.00000

 Molecular mass:   156.06089 amu.
 Principal axes and moments of inertia in atomic units:
                           1         2         3
     Eigenvalues --   776.837132792.097513212.11801
           X            0.99985  -0.01208  -0.01226
           Y            0.01222   0.99986   0.01158
           Z            0.01212  -0.01172   0.99986
 This molecule is an asymmetric top.
 Rotational symmetry number  1.
 Warning -- assumption of classical behavior for rotation
           may cause significant error
 Rotational temperatures (Kelvin)      0.11150     0.03102     0.02696
 Rotational constants (GHZ):           2.32319     0.64637     0.56185
 Zero-point vibrational energy     487751.0 (Joules/Mol)
                                  116.57529 (Kcal/Mol)
 Warning -- explicit consideration of  16 degrees of freedom as
           vibrations may cause significant error
 Vibrational temperatures:     40.84   110.63   194.86   208.44   274.51
          (Kelvin)            344.12   358.53   408.71   469.37   509.16
                              545.20   611.36   663.34   701.94   779.23
                              827.51   972.61   981.90  1208.67  1269.85
                             1336.71  1360.08  1404.46  1409.28  1445.12
                             1527.01  1541.76  1637.99  1654.34  1714.90
                             1734.15  1759.40  1840.53  1893.01  1926.44
                             1959.21  1979.27  2017.75  2025.59  2057.79
                             2085.76  2168.53  2181.00  2183.12  2195.27
                             2207.74  2220.74  3195.42  4364.06  4372.32
                             4376.76  4382.98  4397.59  4403.41  4468.90
                             4469.68  4478.11  4479.67  4492.23  4497.11

 Zero-point correction=                           0.185775 (Hartree/Particle)
 Thermal correction to Energy=                    0.196643
 Thermal correction to Enthalpy=                  0.197587
 Thermal correction to Gibbs Free Energy=         0.148574
 Sum of electronic and zero-point Energies=           -785.315162
 Sum of electronic and thermal Energies=              -785.304294
 Sum of electronic and thermal Enthalpies=            -785.303350
 Sum of electronic and thermal Free Energies=         -785.352363

                     E (Thermal)             CV                S
                      KCal/Mol        Cal/Mol-Kelvin    Cal/Mol-Kelvin
 Total                  123.395             39.933            103.155
 Electronic               0.000              0.000              0.000
 Translational            0.889              2.981             41.045
 Rotational               0.889              2.981             30.322
 Vibrational            121.618             33.971             31.788
 Vibration     1          0.593              1.984              5.939
 Vibration     2          0.599              1.965              3.969
 Vibration     3          0.613              1.918              2.867
 Vibration     4          0.616              1.908              2.739
 Vibration     5          0.634              1.853              2.220
 Vibration     6          0.657              1.781              1.809
 Vibration     7          0.662              1.764              1.736
 Vibration     8          0.682              1.703              1.509
 Vibration     9          0.710              1.623              1.279
 Vibration    10          0.730              1.567              1.149
 Vibration    11          0.749              1.515              1.043
 Vibration    12          0.787              1.416              0.875
 Vibration    13          0.819              1.336              0.763
 Vibration    14          0.844              1.277              0.689
 Vibration    15          0.897              1.158              0.562
 Vibration    16          0.932              1.085              0.494

                           ! Non-Optimized Parameters !
 Normal termination of Gaussian 16 at Tue Dec  8 10:41:42 2020.

 ----------------------------------------------------------------------
 # B3LYP/6-311++G(d,p) empiricaldispersion=gd3bj scf=xqc pop=npa geom=c
 heck
 ----------------------------------------------------------------------

 --------------------------------------
 CID_142382835_JID_415_Energie_neutraal
 --------------------------------------
 Structure from the checkpoint file:  "JID_415.chk"
 Charge =  0 Multiplicity = 1

 SCF Done:  E(RB3LYP) =  -785.638227095     A.U. after   15 cycles
 Normal termination of Gaussian 16 at Tue Dec  8 10:44:26 2020.

 ----------------------------------------------------------------------
 # B3LYP/6-311++G(d,p) empiricaldispersion=gd3bj scf=xqc pop=npa geom=c
 heck
 ----------------------------------------------------------------------

 ------------------------------------
 CID_142382835_JID_415_Energie_kation
 ------------------------------------
 Structure from the checkpoint file:  "JID_415.chk"
 Charge =  1 Multiplicity = 2

 SCF Done:  E(UB3LYP) =  -785.359017405     A.U. after   19 cycles
 Normal termination of Gaussian 16 at Tue Dec  8 10:47:48 2020.
 Gaussian 16:  ES64L-G16RevA.03 25-Dec-2016

 ----------------------------------------------------------------------
 # B3LYP/6-311++G(d,p) empiricaldispersion=gd3bj scf=xqc pop=npa geom=c
 heck
 ----------------------------------------------------------------------

 -----------------------------------
 CID_142382835_JID_415_Energie_anion
 -----------------------------------
 Structure from the checkpoint file:  "JID_415.chk"
 Charge = -1 Multiplicity = 2

                         Standard orientation:
 ---------------------------------------------------------------------
 Center     Atomic      Atomic             Coordinates (Angstroms)
 Number     Number       Type             X           Y           Z
 ---------------------------------------------------------------------
      1          6           0        3.101469    0.956367   -0.562320
      2          6           0        2.049309   -0.161618   -0.494141
      3          6           0        2.700853   -1.479137   -0.057837
      4          6           0        0.899833    0.239517    0.442174
      5          6           0        0.176215    1.537894    0.044404
      6          6           0       -1.260590    1.495583    0.587794
      7          6           0       -1.734449    0.101627    0.245145
      8          6           0       -2.851421   -0.195354   -0.379323
      9          8           0       -3.877036   -0.469503   -0.887153
     10         16           0       -0.427700   -1.089851    0.535050
     11          1           0        3.516333    1.163051    0.432573
     12          1           0        2.686598    1.889693   -0.955853
     13          1           0        3.932082    0.660175   -1.212349
     14          1           0        1.618858   -0.300427   -1.495686
     15          1           0        3.118457   -1.391487    0.953314
     16          1           0        1.980638   -2.304082   -0.058269
     17          1           0        3.518862   -1.749651   -0.734411
     18          1           0        1.289726    0.330870    1.463040
     19          1           0        0.722591    2.410198    0.419219
     20          1           0        0.140360    1.605697   -1.049509
     21          1           0       -1.890323    2.271816    0.142130
     22          1           0       -1.262015    1.638503    1.676853
 ---------------------------------------------------------------------

 SCF Done:  E(UB3LYP) =  -785.633065505     A.U. after   33 cycles
 SCF Done:  E(UB3LYP) =  -785.633065505     a.u. after    1 cycles

 The electronic state is 2-A.
 Alpha  occ. eigenvalues --  -88.70896 -19.00407 -10.09615 -10.08326 -10.06969
 Alpha  occ. eigenvalues --  -10.05586 -10.05509 -10.05442 -10.05285 -10.04759
 Alpha  occ. eigenvalues --   -7.79499  -5.75898  -5.75550  -5.74867  -0.93772
 Alpha  occ. eigenvalues --   -0.73290  -0.68630  -0.61711  -0.59710  -0.57938
 Alpha  occ. eigenvalues --   -0.51556  -0.48314  -0.44389  -0.37071  -0.35619
 Alpha  occ. eigenvalues --   -0.35129  -0.33905  -0.32524  -0.30425  -0.29397
 Alpha  occ. eigenvalues --   -0.28363  -0.28340  -0.27302  -0.25636  -0.24740
 Alpha  occ. eigenvalues --   -0.23254  -0.22389  -0.21781  -0.21428  -0.18380
 Alpha  occ. eigenvalues --   -0.13650  -0.05164   0.05092
 Alpha virt. eigenvalues --    0.06723   0.08391   0.08954   0.09347   0.10801
 Alpha virt. eigenvalues --    0.11287   0.11553   0.12113   0.12367   0.13532
 Alpha virt. eigenvalues --    0.14004   0.14720   0.14936   0.15588   0.16608

  Beta  occ. eigenvalues --  -88.70847 -18.99989 -10.09141 -10.08320 -10.06956
  Beta  occ. eigenvalues --  -10.05580 -10.05421 -10.05396 -10.05256 -10.04804
  Beta  occ. eigenvalues --   -7.79447  -5.75817  -5.75482  -5.74828  -0.92977
  Beta  occ. eigenvalues --   -0.73172  -0.68484  -0.61327  -0.59500  -0.57874
  Beta  occ. eigenvalues --   -0.50977  -0.48102  -0.44295  -0.36840  -0.35439
  Beta  occ. eigenvalues --   -0.34815  -0.33687  -0.32331  -0.30337  -0.28322
  Beta  occ. eigenvalues --   -0.28117  -0.27874  -0.26688  -0.25386  -0.24646
  Beta  occ. eigenvalues --   -0.23161  -0.22201  -0.21401  -0.21097  -0.18254
  Beta  occ. eigenvalues --   -0.13524  -0.04964
  Beta virt. eigenvalues --    0.07348   0.08698   0.09237   0.09612   0.10829
  Beta virt. eigenvalues --    0.11366   0.11655   0.12000   0.12313   0.12664
  Beta virt. eigenvalues --    0.13669   0.14294   0.14856   0.15039   0.15688

 Mulliken charges and spin densities:
               1          2
     1  C    0.942599  -1.585957
     2  C   -1.128163   1.355930
     3  C   -0.362289  -0.262800
     4  C    0.630385  -0.251066
     5  C   -0.112372  -0.411131
     6  C    0.543942  -1.022885
     7  C   -0.048499   0.907622
     8  C   -0.016769  -0.450298
     9  O   -0.327545   0.135787
    10  S   -0.455594   0.122142
    11  H   -0.216883   0.357005
    12  H   -0.248765   0.397306
    13  H   -0.373768   0.514516
    14  H    0.070159   0.083348
    15  H    0.058329   0.070526
    16  H    0.159058  -0.029843
    17  H    0.043501   0.083986
    18  H    0.184946   0.034435
    19  H   -0.106471   0.247585
    20  H    0.006263   0.165194
    21  H   -0.054149   0.204609
    22  H   -0.187915   0.333987
 Sum of Mulliken charges =  -1.00000   1.00000

 Dipole moment (field-independent basis, Debye):
    X=              1.6448    Y=             -2.0696    Z=              0.8717  Tot=              2.7836
 Quadrupole moment (field-independent basis, Debye-Ang):
   XX=           -132.5462   YY=            -95.7917   ZZ=            -89.7306
   XY=            -10.2781   XZ=              0.4310   YZ=             -0.2416

 Summary of Natural Population Analysis:

                                       Natural Population
                Natural  -----------------------------------------------
    Atom  No    Charge         Core      Valence    Rydberg      Total
 -----------------------------------------------------------------------
      C    1   -0.28565      0.99965     2.27948    0.00652     3.28565
      C    2   -0.11802      0.99957     2.10746    0.01098     3.11802
      C    3   -0.28559      0.99965     2.28014    0.00580     3.28559
      C    4   -0.15045      0.99954     2.13614    0.01477     3.15045
      C    5   -0.19293      0.99960     2.18296    0.01037     3.19293
      C    6   -0.17706      0.99960     2.16720    0.01026     3.17706
      C    7   -0.25546      0.99937     2.24511    0.01098     3.25546
      C    8    0.39966      0.99942     1.58096    0.01996     2.60034
      O    9   -0.21808      0.99987     3.21052    0.00769     4.21808
      S   10    0.10521      4.99957     2.87726    0.01797     7.89479
      H   11    0.09621      0.00000     0.40261    0.00118     0.40379
      H   12    0.10186      0.00000     0.39690    0.00124     0.39814
      H   13    0.09845      0.00000     0.40031    0.00124     0.40155
      H   14    0.09583      0.00000     0.40239    0.00177     0.40417
      H   15    0.09456      0.00000     0.40468    0.00075     0.40544
      H   16    0.10420      0.00000     0.39487    0.00092     0.39580
      H   17    0.09579      0.00000     0.40349    0.00072     0.40421
      H   18    0.09487      0.00000     0.40332    0.00181     0.40513
      H   19    0.10185      0.00000     0.39691    0.00124     0.39815
      H   20    0.09789      0.00000     0.40079    0.00132     0.40211
      H   21    0.10394      0.00000     0.39482    0.00124     0.39606
      H   22    0.09290      0.00000     0.40577    0.00133     0.40710
 =======================================================================
   * Total *    0.00000     13.99584    27.87411    0.13006    42.00000

 Normal termination of Gaussian 16 at Tue Dec  8 10:56:18 2020.
