 Gaussian 16, Revision A.03,

 -----------------------------------------------------------
 # opt freq B3LYP/6-31G(d) empiricaldispersion=gd3bj scf=xqc
 -----------------------------------------------------------

 ----------------------------
 CID_638566_JID_4899_neutraal
 ----------------------------
 Symbolic Z-matrix:
 Charge =  0 Multiplicity = 1

 SCF Done:  E(RB3LYP) =  -1005.88074464     A.U. after   16 cycles
 SCF Done:  E(RB3LYP) =  -1005.88471310     A.U. after   13 cycles
 SCF Done:  E(RB3LYP) =  -1005.88496904     A.U. after   13 cycles
 SCF Done:  E(RB3LYP) =  -1005.87749787     A.U. after   15 cycles
 SCF Done:  E(RB3LYP) =  -1005.88521118     A.U. after   12 cycles
 SCF Done:  E(RB3LYP) =  -1005.88523006     A.U. after   11 cycles
 SCF Done:  E(RB3LYP) =  -1005.88525266     A.U. after   12 cycles
 SCF Done:  E(RB3LYP) =  -1005.88527338     A.U. after   11 cycles
 SCF Done:  E(RB3LYP) =  -1005.88531062     A.U. after   12 cycles
 SCF Done:  E(RB3LYP) =  -1005.88532682     A.U. after   12 cycles
 SCF Done:  E(RB3LYP) =  -1005.88541414     A.U. after   12 cycles
 SCF Done:  E(RB3LYP) =  -1005.88542591     A.U. after   11 cycles
 SCF Done:  E(RB3LYP) =  -1005.88542716     A.U. after    9 cycles
 SCF Done:  E(RB3LYP) =  -1005.88542731     A.U. after    8 cycles
 SCF Done:  E(RB3LYP) =  -1005.88542742     A.U. after    9 cycles
 Optimization completed.
    -- Stationary point found.
 Normal termination of Gaussian 16 at Thu Dec 10 10:49:46 2020.

 --------------------------------------------------------------------
 #N Geom=AllCheck Guess=TCheck SCRF=Check GenChk RB3LYP/6-31G(d) Freq
 --------------------------------------------------------------------

 Structure from the checkpoint file:  "JID_4899.chk"
 ----------------------------
 CID_638566_JID_4899_neutraal
 ----------------------------
 Charge =  0 Multiplicity = 1

 SCF Done:  E(RB3LYP) =  -1005.88542742     A.U. after    1 cycles

  Exact polarizability: 214.157  -6.801 131.426  -5.112   1.863  60.490
 Approx polarizability: 319.296 -15.606 274.610 -14.462   5.507  94.151

                      1                      2                      3
                      A                      A                      A
 Frequencies --     18.1695                57.3649                61.9778
 Red. masses --      2.7432                11.4757                 5.4718
 Frc consts  --      0.0005                 0.0222                 0.0124
 IR Inten    --      0.0229                 0.0405                 0.2268

                      4                      5                      6
                      A                      A                      A
 Frequencies --    141.2762               165.2906               202.9744
 Red. masses --      5.1934                 2.9823                 5.7612
 Frc consts  --      0.0611                 0.0480                 0.1398
 IR Inten    --      2.8759                 1.0774                 0.7022

                      7                      8                      9
                      A                      A                      A
 Frequencies --    221.0345               248.1677               294.2297
 Red. masses --      1.6135                 4.8172                 2.5983
 Frc consts  --      0.0464                 0.1748                 0.1325
 IR Inten    --      0.8286                 2.6193                 2.0090

                     10                     11                     12
                      A                      A                      A
 Frequencies --    330.8852               384.1915               415.1406
 Red. masses --      8.2284                 6.0698                 5.0679
 Frc consts  --      0.5308                 0.5279                 0.5146
 IR Inten    --      1.5659                 0.3797                 0.8881

                     13                     14                     15
                      A                      A                      A
 Frequencies --    445.2922               519.2107               537.2977
 Red. masses --      3.6945                11.0443                 5.4434
 Frc consts  --      0.4316                 1.7542                 0.9259
 IR Inten    --      1.3855                 0.4349                 1.6682

                     16                     17                     18
                      A                      A                      A
 Frequencies --    558.2622               569.7562               626.1638
 Red. masses --      6.0592                 4.2534                 4.6816
 Frc consts  --      1.1126                 0.8135                 1.0815
 IR Inten    --      0.9704                 1.5680                12.7451

                     19                     20                     21
                      A                      A                      A
 Frequencies --    647.6214               687.7672               732.7596
 Red. masses --      6.4733                 6.2527                 4.8212
 Frc consts  --      1.5996                 1.7426                 1.5252
 IR Inten    --      7.4047                 3.9277                11.1096

                     22                     23                     24
                      A                      A                      A
 Frequencies --    761.1105               764.3605               809.2830
 Red. masses --      9.5563                 5.8437                 1.3022
 Frc consts  --      3.2616                 2.0116                 0.5025
 IR Inten    --     29.1858                15.8132                 2.1529

                     25                     26                     27
                      A                      A                      A
 Frequencies --    853.7918               857.2401               919.4143
 Red. masses --      5.8116                 1.5169                 1.4581
 Frc consts  --      2.4960                 0.6568                 0.7262
 IR Inten    --      7.4664                15.7696                16.0688

                     28                     29                     30
                      A                      A                      A
 Frequencies --    919.9531               963.2252               983.9489
 Red. masses --      6.5403                 2.3009                 1.3029
 Frc consts  --      3.2612                 1.2578                 0.7432
 IR Inten    --     10.1591                23.8666                 0.3803

                     31                     32                     33
                      A                      A                      A
 Frequencies --   1064.8116              1066.6228              1099.5884
 Red. masses --      2.1900                 2.4992                 1.6214
 Frc consts  --      1.4630                 1.6752                 1.1551
 IR Inten    --     13.9286                19.9727                14.0960

                     34                     35                     36
                      A                      A                      A
 Frequencies --   1145.3049              1151.3272              1196.3308
 Red. masses --      3.8526                 1.3111                 2.7038
 Frc consts  --      2.9775                 1.0240                 2.2800
 IR Inten    --     45.6356                39.0975                27.3190

                     37                     38                     39
                      A                      A                      A
 Frequencies --   1271.0608              1298.7616              1317.1976
 Red. masses --      1.7084                 1.6192                 1.7475
 Frc consts  --      1.6262                 1.6091                 1.7864
 IR Inten    --      3.7489                 9.7023                31.1346

                     40                     41                     42
                      A                      A                      A
 Frequencies --   1363.2812              1386.3181              1394.8015
 Red. masses --      1.5678                 6.5054                12.4555
 Frc consts  --      1.7168                 7.3663                14.2770
 IR Inten    --     22.8709                37.9566               458.4940

                     43                     44                     45
                      A                      A                      A
 Frequencies --   1437.6819              1457.2531              1491.2756
 Red. masses --      1.2160                 3.9456                 3.1803
 Frc consts  --      1.4808                 4.9366                 4.1672
 IR Inten    --      1.9688                 9.7869                27.9020

                     46                     47                     48
                      A                      A                      A
 Frequencies --   1506.0434              1526.3350              1533.5514
 Red. masses --      1.0816                 1.0401                 1.0730
 Frc consts  --      1.4454                 1.4277                 1.4867
 IR Inten    --      5.9508                 8.3924                 5.0074

                     49                     50                     51
                      A                      A                      A
 Frequencies --   1586.6097              1603.7082              1645.7345
 Red. masses --      8.1614                 8.1562                 9.0761
 Frc consts  --     12.1047                12.3592                14.4833
 IR Inten    --     64.5808                57.9755               123.9344

                     52                     53                     54
                      A                      A                      A
 Frequencies --   1667.0014              3060.4889              3062.5562
 Red. masses --      8.7323                 1.0419                 1.0567
 Frc consts  --     14.2972                 5.7497                 5.8392
 IR Inten    --     39.0314                19.9248                18.2232

                     55                     56                     57
                      A                      A                      A
 Frequencies --   3116.2945              3135.7054              3140.9041
 Red. masses --      1.1001                 1.1023                 1.1042
 Frc consts  --      6.2943                 6.3859                 6.4180
 IR Inten    --      0.7387                32.7931                21.5704

                     58                     59                     60
                      A                      A                      A
 Frequencies --   3228.2413              3257.3830              3260.1596
 Red. masses --      1.0909                 1.0918                 1.0928
 Frc consts  --      6.6986                 6.8257                 6.8431
 IR Inten    --      2.1653                 3.6636                 1.8114

 - Thermochemistry -
 -------------------
 Temperature   298.150 Kelvin.  Pressure   1.00000 Atm.
 Atom     1 has atomic number  6 and mass  12.00000

 Molecular mass:   208.03065 amu.
 Principal axes and moments of inertia in atomic units:
                           1         2         3
     Eigenvalues --   948.184445882.897166648.00655
           X            0.99997  -0.00373   0.00649
           Y            0.00376   0.99999  -0.00373
           Z           -0.00648   0.00375   0.99997
 This molecule is an asymmetric top.
 Rotational symmetry number  1.
 Warning -- assumption of classical behavior for rotation
           may cause significant error
 Rotational temperatures (Kelvin)      0.09135     0.01472     0.01303
 Rotational constants (GHZ):           1.90337     0.30678     0.27147
 Zero-point vibrational energy     425688.1 (Joules/Mol)
                                  101.74190 (Kcal/Mol)
 Warning -- explicit consideration of  17 degrees of freedom as
           vibrations may cause significant error
 Vibrational temperatures:     26.14    82.54    89.17   203.27   237.82
          (Kelvin)            292.03   318.02   357.06   423.33   476.07
                              552.77   597.29   640.68   747.03   773.05
                              803.21   819.75   900.91   931.78   989.54
                             1054.28  1095.07  1099.74  1164.38  1228.42
                             1233.38  1322.83  1323.61  1385.87  1415.68
                             1532.03  1534.63  1582.06  1647.84  1656.50
                             1721.25  1828.77  1868.63  1895.15  1961.46
                             1994.60  2006.81  2068.50  2096.66  2145.61
                             2166.86  2196.06  2206.44  2282.78  2307.38
                             2367.84  2398.44  4403.36  4406.34  4483.65
                             4511.58  4519.06  4644.72  4686.65  4690.64

 Zero-point correction=                           0.162136 (Hartree/Particle)
 Thermal correction to Energy=                    0.174125
 Thermal correction to Enthalpy=                  0.175069
 Thermal correction to Gibbs Free Energy=         0.121935
 Sum of electronic and zero-point Energies=          -1005.723291
 Sum of electronic and thermal Energies=             -1005.711303
 Sum of electronic and thermal Enthalpies=           -1005.710358
 Sum of electronic and thermal Free Energies=        -1005.763493

                     E (Thermal)             CV                S
                      KCal/Mol        Cal/Mol-Kelvin    Cal/Mol-Kelvin
 Total                  109.265             44.829            111.830
 Electronic               0.000              0.000              0.000
 Translational            0.889              2.981             41.901
 Rotational               0.889              2.981             31.984
 Vibrational            107.488             38.868             37.945
 Vibration     1          0.593              1.986              6.825
 Vibration     2          0.596              1.975              4.546
 Vibration     3          0.597              1.972              4.393
 Vibration     4          0.615              1.912              2.787
 Vibration     5          0.624              1.885              2.488
 Vibration     6          0.639              1.836              2.106
 Vibration     7          0.648              1.809              1.951
 Vibration     8          0.662              1.766              1.744
 Vibration     9          0.689              1.684              1.450
 Vibration    10          0.713              1.614              1.256
 Vibration    11          0.753              1.504              1.023
 Vibration    12          0.779              1.437              0.909
 Vibration    13          0.805              1.371              0.810
 Vibration    14          0.874              1.207              0.612
 Vibration    15          0.892              1.168              0.571
 Vibration    16          0.914              1.122              0.527
 Vibration    17          0.926              1.097              0.505

 Optimization completed.
    -- Stationary point found.
 Normal termination of Gaussian 16 at Thu Dec 10 10:55:03 2020.

 ----------------------------------------------------------------------
 # B3LYP/6-311++G(d,p) empiricaldispersion=gd3bj scf=xqc pop=npa geom=c
 heck
 ----------------------------------------------------------------------

 ------------------------------------
 CID_638566_JID_4899_Energie_neutraal
 ------------------------------------
 Structure from the checkpoint file:  "JID_4899.chk"
 Charge =  0 Multiplicity = 1

 SCF Done:  E(RB3LYP) =  -1006.07615644     A.U. after   16 cycles
 Normal termination of Gaussian 16 at Thu Dec 10 10:58:59 2020.

 ----------------------------------------------------------------------
 # B3LYP/6-311++G(d,p) empiricaldispersion=gd3bj scf=xqc pop=npa geom=c
 heck
 ----------------------------------------------------------------------

 ----------------------------------
 CID_638566_JID_4899_Energie_kation
 ----------------------------------
 Structure from the checkpoint file:  "JID_4899.chk"
 Charge =  1 Multiplicity = 2

 SCF Done:  E(UB3LYP) =  -1005.74173727     A.U. after   33 cycles
 SCF Done:  E(UB3LYP) =  -1005.74173727     a.u. after    2 cycles
 Normal termination of Gaussian 16 at Thu Dec 10 11:11:15 2020.
 Gaussian 16:  ES64L-G16RevA.03 25-Dec-2016

 ----------------------------------------------------------------------
 # B3LYP/6-311++G(d,p) empiricaldispersion=gd3bj scf=xqc pop=npa geom=c
 heck
 ----------------------------------------------------------------------

 ---------------------------------
 CID_638566_JID_4899_Energie_anion
 ---------------------------------
 Structure from the checkpoint file:  "JID_4899.chk"
 Charge = -1 Multiplicity = 2

                         Standard orientation:
 ---------------------------------------------------------------------
 Center     Atomic      Atomic             Coordinates (Angstroms)
 Number     Number       Type             X           Y           Z
 ---------------------------------------------------------------------
      1          6           0        4.640831   -0.219783    0.969097
      2          6           0        3.995434    0.212394   -0.359161
      3          6           0        2.499001    0.212779   -0.295207
      4          7           0        1.770744    1.281583   -0.216349
      5          6           0        0.424907    0.974189   -0.127732
      6          6           0        0.118900   -0.412589   -0.138886
      7         16           0        1.603130   -1.331010   -0.267514
      8          6           0       -1.191302   -0.870466   -0.058397
      9          6           0       -2.188177    0.095447    0.035352
     10          6           0       -1.922677    1.472416    0.050113
     11          6           0       -0.611672    1.914138   -0.032058
     12          7           0       -3.582769   -0.354442    0.122975
     13          8           0       -3.795661   -1.567412    0.108407
     14          8           0       -4.457739    0.507317    0.205989
     15          1           0        4.329520    0.443347    1.782124
     16          1           0        5.731716   -0.180252    0.889271
     17          1           0        4.355421   -1.242629    1.235874
     18          1           0        4.301159    1.230532   -0.616892
     19          1           0        4.328613   -0.450331   -1.167017
     20          1           0       -1.454106   -1.920167   -0.065416
     21          1           0       -2.751510    2.163900    0.125516
     22          1           0       -0.370988    2.971378   -0.023512
 ---------------------------------------------------------------------

 SCF Done:  E(UB3LYP) =  -1006.12202477     A.U. after   22 cycles

 The electronic state is 2-A.
 Alpha  occ. eigenvalues --  -88.75564 -18.95789 -18.95770 -14.33858 -14.19586
 Alpha  occ. eigenvalues --  -10.11484 -10.08925 -10.08504 -10.08118 -10.07675
 Alpha  occ. eigenvalues --  -10.07018 -10.05194 -10.04833 -10.04765  -7.84245
 Alpha  occ. eigenvalues --   -5.80529  -5.80211  -5.79803  -1.03792  -0.86650
 Alpha  occ. eigenvalues --   -0.84560  -0.73566  -0.69541  -0.67681  -0.63905
 Alpha  occ. eigenvalues --   -0.60653  -0.56522  -0.52871  -0.48011  -0.44356
 Alpha  occ. eigenvalues --   -0.44226  -0.38035  -0.37954  -0.37156  -0.35924
 Alpha  occ. eigenvalues --   -0.35161  -0.33006  -0.32274  -0.31709  -0.30749
 Alpha  occ. eigenvalues --   -0.28581  -0.28331  -0.27784  -0.26715  -0.25568
 Alpha  occ. eigenvalues --   -0.21969  -0.21635  -0.18631  -0.16247  -0.14736
 Alpha  occ. eigenvalues --   -0.13427  -0.12165  -0.11812  -0.11392   0.01586
 Alpha virt. eigenvalues --    0.06298   0.08633   0.09246   0.09394   0.09921
 Alpha virt. eigenvalues --    0.10692   0.10923   0.11016   0.12554   0.13142
 Alpha virt. eigenvalues --    0.13678   0.14243   0.15118   0.15490   0.15620

  Beta  occ. eigenvalues --  -88.75546 -18.95388 -18.95321 -14.33354 -14.19681
  Beta  occ. eigenvalues --  -10.11160 -10.08949 -10.08563 -10.08085 -10.07473
  Beta  occ. eigenvalues --  -10.06901 -10.05209 -10.04713 -10.04651  -7.84229
  Beta  occ. eigenvalues --   -5.80523  -5.80206  -5.79739  -1.02903  -0.85851
  Beta  occ. eigenvalues --   -0.84379  -0.73312  -0.69386  -0.67584  -0.63460
  Beta  occ. eigenvalues --   -0.60375  -0.56113  -0.52379  -0.47913  -0.44024
  Beta  occ. eigenvalues --   -0.43912  -0.37845  -0.37514  -0.36987  -0.34950
  Beta  occ. eigenvalues --   -0.33360  -0.32629  -0.31872  -0.31552  -0.30467
  Beta  occ. eigenvalues --   -0.28336  -0.28161  -0.27612  -0.26609  -0.25486
  Beta  occ. eigenvalues --   -0.21885  -0.20871  -0.18306  -0.16293  -0.12999
  Beta  occ. eigenvalues --   -0.12052  -0.11011  -0.10969  -0.10781
  Beta virt. eigenvalues --    0.06094   0.07774   0.08756   0.09237   0.09797
  Beta virt. eigenvalues --    0.10804   0.10956   0.11008   0.11703   0.12527
  Beta virt. eigenvalues --    0.13140   0.13654   0.14261   0.15150   0.15593

 Mulliken charges and spin densities:
               1          2
     1  C   -0.384581  -0.026419
     2  C   -0.242031   0.043809
     3  C   -0.063664   0.134207
     4  N    0.110646  -0.052946
     5  C   -1.349477   0.101528
     6  C    1.643614  -0.024282
     7  S   -0.666727   0.023011
     8  C    0.287226   0.164425
     9  C   -0.015917   0.000925
    10  C   -0.421203   0.077392
    11  C   -0.528094   0.012462
    12  N   -0.250943   0.170304
    13  O   -0.176329   0.154532
    14  O   -0.167817   0.168888
    15  H    0.143008   0.001918
    16  H    0.090140   0.034154
    17  H    0.131821  -0.002977
    18  H    0.156289   0.003702
    19  H    0.110033   0.029633
    20  H    0.222012  -0.010888
    21  H    0.222978  -0.003832
    22  H    0.149015   0.000452
 Sum of Mulliken charges =  -1.00000   1.00000

 Dipole moment (field-independent basis, Debye):
    X=             10.5390    Y=              0.5714    Z=             -0.2062  Tot=             10.5565
 Quadrupole moment (field-independent basis, Debye-Ang):
   XX=           -158.0917   YY=           -101.8251   ZZ=            -95.2049
   XY=             -8.6984   XZ=              2.1667   YZ=              0.5105

 Summary of Natural Population Analysis:

                                       Natural Population
                Natural  -----------------------------------------------
    Atom  No    Charge         Core      Valence    Rydberg      Total
 -----------------------------------------------------------------------
      C    1   -0.27735      0.99967     2.27358    0.00410     3.27735
      C    2   -0.21693      0.99958     2.20801    0.00934     3.21693
      C    3    0.11315      0.99961     1.86978    0.01746     2.88685
      N    4   -0.26168      0.99963     2.75091    0.01114     3.76168
      C    5    0.08885      0.99943     1.89940    0.01232     2.91115
      C    6   -0.11398      0.99941     2.10516    0.00940     3.11398
      S    7    0.15261      4.99944     2.82867    0.01928     7.84739
      C    8   -0.07130      0.99947     2.06072    0.01111     3.07130
      C    9    0.06160      0.99941     1.92719    0.01180     2.93840
      C   10   -0.09132      0.99954     2.08195    0.00982     3.09132
      C   11   -0.10978      0.99953     2.10121    0.00903     3.10978
      N   12    0.29183      0.99972     2.18098    0.02747     3.20817
      O   13   -0.19940      0.99990     3.19154    0.00796     4.19940
      O   14   -0.19148      0.99990     3.18364    0.00794     4.19148
      H   15    0.09984      0.00000     0.39925    0.00091     0.40016
      H   16    0.09184      0.00000     0.40661    0.00154     0.40816
      H   17    0.09785      0.00000     0.40105    0.00110     0.40215
      H   18    0.10610      0.00000     0.39150    0.00240     0.39390
      H   19    0.10013      0.00000     0.39840    0.00147     0.39987
      H   20    0.11622      0.00000     0.38234    0.00144     0.38378
      H   21    0.11386      0.00000     0.38482    0.00132     0.38614
      H   22    0.09931      0.00000     0.39910    0.00158     0.40069
 =======================================================================
   * Total *    0.00000     17.99424    35.82582    0.17994    54.00000

 Normal termination of Gaussian 16 at Thu Dec 10 11:14:48 2020.
