 Gaussian 16, Revision A.03,

 -----------------------------------------------------------
 # opt freq B3LYP/6-31G(d) empiricaldispersion=gd3bj scf=xqc
 -----------------------------------------------------------

 ------------------------------
 CID_79397398_JID_4687_neutraal
 ------------------------------
 Symbolic Z-matrix:
 Charge =  0 Multiplicity = 1

 SCF Done:  E(RB3LYP) =  -638.293892921     A.U. after   14 cycles
 SCF Done:  E(RB3LYP) =  -638.297429066     A.U. after   12 cycles
 SCF Done:  E(RB3LYP) =  -638.297508173     A.U. after   13 cycles
 SCF Done:  E(RB3LYP) =  -638.298649665     A.U. after   11 cycles
 SCF Done:  E(RB3LYP) =  -638.298999279     A.U. after   12 cycles
 SCF Done:  E(RB3LYP) =  -638.298727380     A.U. after   12 cycles
 SCF Done:  E(RB3LYP) =  -638.299281965     A.U. after   12 cycles
 SCF Done:  E(RB3LYP) =  -638.299334729     A.U. after   11 cycles
 SCF Done:  E(RB3LYP) =  -638.299389469     A.U. after   11 cycles
 SCF Done:  E(RB3LYP) =  -638.299409931     A.U. after    9 cycles
 SCF Done:  E(RB3LYP) =  -638.299417920     A.U. after   10 cycles
 SCF Done:  E(RB3LYP) =  -638.299418323     A.U. after    9 cycles
 SCF Done:  E(RB3LYP) =  -638.299419003     A.U. after    8 cycles
 SCF Done:  E(RB3LYP) =  -638.299419013     A.U. after    7 cycles
 SCF Done:  E(RB3LYP) =  -638.299419040     A.U. after    7 cycles
 Optimization completed.
    -- Stationary point found.
 Normal termination of Gaussian 16 at Thu Dec 10 10:27:46 2020.

 --------------------------------------------------------------------
 #N Geom=AllCheck Guess=TCheck SCRF=Check GenChk RB3LYP/6-31G(d) Freq
 --------------------------------------------------------------------

 Structure from the checkpoint file:  "JID_4687.chk"
 ------------------------------
 CID_79397398_JID_4687_neutraal
 ------------------------------
 Charge =  0 Multiplicity = 1

 SCF Done:  E(RB3LYP) =  -638.299419040     A.U. after    1 cycles

  Exact polarizability: 154.631   2.835 121.443   2.237  -2.767 111.311
 Approx polarizability: 181.561   5.885 175.941   0.305  -9.716 170.942

                      1                      2                      3
                      A                      A                      A
 Frequencies --     23.4527                33.6742                46.5881
 Red. masses --      3.3366                 4.8158                 4.8888
 Frc consts  --      0.0011                 0.0032                 0.0063
 IR Inten    --      0.1882                 0.3676                 0.6101

                      4                      5                      6
                      A                      A                      A
 Frequencies --     55.0185                59.0362               108.2557
 Red. masses --      3.2040                 3.3962                 3.0163
 Frc consts  --      0.0057                 0.0070                 0.0208
 IR Inten    --      0.0524                 0.3148                 0.3494

                      7                      8                      9
                      A                      A                      A
 Frequencies --    139.7706               162.1722               201.4453
 Red. masses --      2.5612                 4.1687                 1.4424
 Frc consts  --      0.0295                 0.0646                 0.0345
 IR Inten    --      1.5827                 0.0670                 0.2905

                     10                     11                     12
                      A                      A                      A
 Frequencies --    216.5189               222.0532               230.0766
 Red. masses --      1.1547                 1.1354                 1.2588
 Frc consts  --      0.0319                 0.0330                 0.0393
 IR Inten    --      0.0219                 0.2993                 0.5382

                     13                     14                     15
                      A                      A                      A
 Frequencies --    246.4910               257.4244               276.6601
 Red. masses --      1.4500                 2.7859                 2.0418
 Frc consts  --      0.0519                 0.1088                 0.0921
 IR Inten    --      0.0421                 0.3093                 0.3591

                     16                     17                     18
                      A                      A                      A
 Frequencies --    290.2796               310.3167               337.4367
 Red. masses --      1.6469                 2.4537                 2.0252
 Frc consts  --      0.0818                 0.1392                 0.1359
 IR Inten    --      0.2922                 2.2629                 0.1021

                     19                     20                     21
                      A                      A                      A
 Frequencies --    378.7420               395.7689               413.1721
 Red. masses --      2.0828                 2.4869                 2.5499
 Frc consts  --      0.1760                 0.2295                 0.2565
 IR Inten    --      0.1550                 0.2436                 0.4333

                     22                     23                     24
                      A                      A                      A
 Frequencies --    427.0001               462.2855               488.4883
 Red. masses --      2.3326                 2.5900                 3.1332
 Frc consts  --      0.2506                 0.3261                 0.4405
 IR Inten    --      0.6822                 3.4969                 1.1476

                     25                     26                     27
                      A                      A                      A
 Frequencies --    515.4674               566.7310               626.6741
 Red. masses --      2.8008                 3.0327                 1.2464
 Frc consts  --      0.4385                 0.5739                 0.2884
 IR Inten    --      7.2010                 3.9021                89.6452

                     28                     29                     30
                      A                      A                      A
 Frequencies --    627.0316               764.2857               780.7584
 Red. masses --      3.1258                 2.4145                 1.7538
 Frc consts  --      0.7241                 0.8310                 0.6299
 IR Inten    --     39.4667                 8.9376                24.7350

                     31                     32                     33
                      A                      A                      A
 Frequencies --    794.8592               823.5179               873.8775
 Red. masses --      2.4724                 2.7214                 1.9748
 Frc consts  --      0.9203                 1.0874                 0.8885
 IR Inten    --     57.2883                 4.2729                 8.0229

                     34                     35                     36
                      A                      A                      A
 Frequencies --    906.2249               937.2042               940.4200
 Red. masses --      1.9827                 1.7013                 1.1820
 Frc consts  --      0.9594                 0.8804                 0.6159
 IR Inten    --      0.7720                 2.6239                 1.9795

                     37                     38                     39
                      A                      A                      A
 Frequencies --    951.5789               970.2853               983.2460
 Red. masses --      1.7481                 1.5431                 1.4255
 Frc consts  --      0.9326                 0.8559                 0.8120
 IR Inten    --      1.0517                 2.5805                 1.1315

                     40                     41                     42
                      A                      A                      A
 Frequencies --    999.2593              1012.0662              1031.5037
 Red. masses --      1.4080                 1.2376                 1.9033
 Frc consts  --      0.8284                 0.7469                 1.1932
 IR Inten    --     14.0050                 6.9578                26.6836

                     43                     44                     45
                      A                      A                      A
 Frequencies --   1062.3953              1078.1094              1112.1939
 Red. masses --      2.7159                 2.5502                 2.4600
 Frc consts  --      1.8061                 1.7464                 1.7928
 IR Inten    --     41.0242                22.7483                 5.2063

                     46                     47                     48
                      A                      A                      A
 Frequencies --   1131.2281              1147.4306              1172.1495
 Red. masses --      2.3458                 2.7076                 2.0665
 Frc consts  --      1.7687                 2.1003                 1.6729
 IR Inten    --     10.4040                65.8938                16.0718

                     49                     50                     51
                      A                      A                      A
 Frequencies --   1189.5315              1201.2981              1201.6776
 Red. masses --      2.1689                 1.9877                 1.9066
 Frc consts  --      1.8082                 1.6901                 1.6221
 IR Inten    --     24.9755                17.5339                20.9677

                     52                     53                     54
                      A                      A                      A
 Frequencies --   1210.1090              1226.7402              1273.1518
 Red. masses --      1.7713                 2.0310                 1.2917
 Frc consts  --      1.5282                 1.8008                 1.2336
 IR Inten    --     63.3111                69.8868                 2.1776

                     55                     56                     57
                      A                      A                      A
 Frequencies --   1301.0011              1335.7961              1343.3916
 Red. masses --      1.3350                 1.3108                 1.3217
 Frc consts  --      1.3314                 1.3781                 1.4053
 IR Inten    --     11.3695                 1.9836                 6.8920

                     58                     59                     60
                      A                      A                      A
 Frequencies --   1349.8241              1365.8939              1368.9132
 Red. masses --      1.3442                 1.4347                 1.9277
 Frc consts  --      1.4430                 1.5771                 2.1284
 IR Inten    --      2.6175                12.7818                19.8852

                     61                     62                     63
                      A                      A                      A
 Frequencies --   1377.0283              1390.6323              1402.0467
 Red. masses --      1.4140                 1.3645                 1.4387
 Frc consts  --      1.5797                 1.5547                 1.6663
 IR Inten    --     12.6038                 7.6798                 1.0636

                     64                     65                     66
                      A                      A                      A
 Frequencies --   1424.5105              1428.3864              1436.2012
 Red. masses --      1.2733                 1.2689                 1.2848
 Frc consts  --      1.5224                 1.5254                 1.5614
 IR Inten    --     10.0534                 1.6991                 8.3648

                     67                     68                     69
                      A                      A                      A
 Frequencies --   1437.2698              1442.3298              1450.8288
 Red. masses --      1.2462                 1.2663                 1.2186
 Frc consts  --      1.5168                 1.5520                 1.5113
 IR Inten    --      5.7128                 4.0092                 3.3648

                     70                     71                     72
                      A                      A                      A
 Frequencies --   1510.5320              1519.1939              1522.7436
 Red. masses --      1.1406                 1.0574                 1.0705
 Frc consts  --      1.5334                 1.4379                 1.4625
 IR Inten    --     27.7140                 0.4350                 5.6627

                     73                     74                     75
                      A                      A                      A
 Frequencies --   1523.1258              1524.6443              1531.0103
 Red. masses --      1.0559                 1.0488                 1.0520
 Frc consts  --      1.4433                 1.4364                 1.4528
 IR Inten    --      1.0881                 8.0844                 2.7874

                     76                     77                     78
                      A                      A                      A
 Frequencies --   1535.0207              1536.5937              1537.8689
 Red. masses --      1.0616                 1.0527                 1.0538
 Frc consts  --      1.4738                 1.4645                 1.4685
 IR Inten    --      8.4151                 5.6179                 9.3860

                     79                     80                     81
                      A                      A                      A
 Frequencies --   1545.9587              1551.4307              1555.5465
 Red. masses --      1.0674                 1.0590                 1.0623
 Frc consts  --      1.5031                 1.5018                 1.5145
 IR Inten    --     13.4987                13.3017                 7.9409

                     82                     83                     84
                      A                      A                      A
 Frequencies --   1846.8085              2936.1976              3000.8245
 Red. masses --      9.4293                 1.0733                 1.0818
 Frc consts  --     18.9485                 5.4517                 5.7397
 IR Inten    --    280.9780                53.9667                11.5491

                     85                     86                     87
                      A                      A                      A
 Frequencies --   3025.6849              3036.6688              3043.9479
 Red. masses --      1.0816                 1.0399                 1.0423
 Frc consts  --      5.8341                 5.6498                 5.6901
 IR Inten    --     15.8929                23.8647                38.4714

                     88                     89                     90
                      A                      A                      A
 Frequencies --   3045.6508              3046.5648              3053.6791
 Red. masses --      1.0410                 1.0401                 1.0819
 Frc consts  --      5.6896                 5.6876                 5.9442
 IR Inten    --     23.3222                14.1232                 1.6029

                     91                     92                     93
                      A                      A                      A
 Frequencies --   3059.2186              3063.5249              3073.2950
 Red. masses --      1.0837                 1.0374                 1.0843
 Frc consts  --      5.9754                 5.7361                 6.0339
 IR Inten    --     29.7504                23.3353                28.3946

                     94                     95                     96
                      A                      A                      A
 Frequencies --   3099.1419              3106.6481              3107.7587
 Red. masses --      1.0992                 1.0992                 1.0988
 Frc consts  --      6.2202                 6.2505                 6.2528
 IR Inten    --      4.0279                21.9306                83.6547

                     97                     98                     99
                      A                      A                      A
 Frequencies --   3115.1634              3120.3160              3125.1734
 Red. masses --      1.0994                 1.1009                 1.1011
 Frc consts  --      6.2859                 6.3151                 6.3360
 IR Inten    --     32.8045                31.2311                49.7478

                    100                    101                    102
                      A                      A                      A
 Frequencies --   3125.6452              3130.7900              3139.5307
 Red. masses --      1.1019                 1.1025                 1.0974
 Frc consts  --      6.3427                 6.3668                 6.3731
 IR Inten    --     31.2566                29.4556                39.0950

                    103                    104                    105
                      A                      A                      A
 Frequencies --   3159.4044              3510.9373              3686.4709
 Red. masses --      1.1015                 1.0726                 1.0640
 Frc consts  --      6.4780                 7.7903                 8.5199
 IR Inten    --      9.4489                 1.4358                50.5067

 - Thermochemistry -
 -------------------
 Temperature   298.150 Kelvin.  Pressure   1.00000 Atm.
 Atom     1 has atomic number  6 and mass  12.00000

 Molecular mass:   201.17288 amu.
 Principal axes and moments of inertia in atomic units:
                           1         2         3
     Eigenvalues --  1258.748986865.318997257.94891
           X            0.99998  -0.00505   0.00228
           Y            0.00500   0.99973   0.02289
           Z           -0.00240  -0.02288   0.99974
 This molecule is an asymmetric top.
 Rotational symmetry number  1.
 Warning -- assumption of classical behavior for rotation
           may cause significant error
 Rotational temperatures (Kelvin)      0.06881     0.01262     0.01193
 Rotational constants (GHZ):           1.43376     0.26288     0.24866
 Zero-point vibrational energy     884039.7 (Joules/Mol)
                                  211.29057 (Kcal/Mol)
 Warning -- explicit consideration of  26 degrees of freedom as
           vibrations may cause significant error
 Vibrational temperatures:     33.74    48.45    67.03    79.16    84.94
          (Kelvin)            155.76   201.10   233.33   289.83   311.52
                              319.49   331.03   354.65   370.38   398.05
                              417.65   446.48   485.50   544.93   569.42
                              594.46   614.36   665.13   702.83   741.64
                              815.40   901.64   902.16  1099.64  1123.34
                             1143.63  1184.86  1257.31  1303.86  1348.43
                             1353.05  1369.11  1396.02  1414.67  1437.71
                             1456.14  1484.10  1528.55  1551.16  1600.20
                             1627.58  1650.90  1686.46  1711.47  1728.40
                             1728.95  1741.08  1765.01  1831.78  1871.85
                             1921.91  1932.84  1942.10  1965.22  1969.56
                             1981.24  2000.81  2017.23  2049.55  2055.13
                             2066.37  2067.91  2075.19  2087.42  2173.32
                             2185.78  2190.89  2191.44  2193.62  2202.78
                             2208.55  2210.82  2212.65  2224.29  2232.16
                             2238.08  2657.15  4224.53  4317.52  4353.29
                             4369.09  4379.56  4382.01  4383.33  4393.56
                             4401.53  4407.73  4421.79  4458.97  4469.77
                             4471.37  4482.03  4489.44  4496.43  4497.11
                             4504.51  4517.08  4545.68  5051.46  5304.01

 Zero-point correction=                           0.336713 (Hartree/Particle)
 Thermal correction to Energy=                    0.354123
 Thermal correction to Enthalpy=                  0.355067
 Thermal correction to Gibbs Free Energy=         0.290412
 Sum of electronic and zero-point Energies=           -637.962706
 Sum of electronic and thermal Energies=              -637.945297
 Sum of electronic and thermal Enthalpies=            -637.944352
 Sum of electronic and thermal Free Energies=         -638.009007

                     E (Thermal)             CV                S
                      KCal/Mol        Cal/Mol-Kelvin    Cal/Mol-Kelvin
 Total                  222.215             63.942            136.076
 Electronic               0.000              0.000              0.000
 Translational            0.889              2.981             41.802
 Rotational               0.889              2.981             32.506
 Vibrational            220.438             57.980             61.769
 Vibration     1          0.593              1.985              6.318
 Vibration     2          0.594              1.983              5.600
 Vibration     3          0.595              1.979              4.957
 Vibration     4          0.596              1.976              4.628
 Vibration     5          0.596              1.974              4.489
 Vibration     6          0.606              1.943              3.300
 Vibration     7          0.615              1.914              2.807
 Vibration     8          0.622              1.889              2.524
 Vibration     9          0.638              1.838              2.120
 Vibration    10          0.645              1.816              1.988
 Vibration    11          0.648              1.807              1.942
 Vibration    12          0.652              1.795              1.878
 Vibration    13          0.661              1.769              1.756
 Vibration    14          0.667              1.750              1.679
 Vibration    15          0.678              1.717              1.554
 Vibration    16          0.686              1.692              1.472
 Vibration    17          0.699              1.654              1.361
 Vibration    18          0.718              1.601              1.224
 Vibration    19          0.749              1.515              1.044
 Vibration    20          0.763              1.479              0.978
 Vibration    21          0.777              1.442              0.915
 Vibration    22          0.789              1.411              0.869
 Vibration    23          0.820              1.334              0.759
 Vibration    24          0.844              1.276              0.688
 Vibration    25          0.871              1.216              0.621
 Vibration    26          0.923              1.103              0.511

 Optimization completed.
    -- Stationary point found.
 Normal termination of Gaussian 16 at Thu Dec 10 10:39:06 2020.

 ----------------------------------------------------------------------
 # B3LYP/6-311++G(d,p) empiricaldispersion=gd3bj scf=xqc pop=npa geom=c
 heck
 ----------------------------------------------------------------------

 --------------------------------------
 CID_79397398_JID_4687_Energie_neutraal
 --------------------------------------
 Structure from the checkpoint file:  "JID_4687.chk"
 Charge =  0 Multiplicity = 1

 SCF Done:  E(RB3LYP) =  -638.495888998     A.U. after   15 cycles
 Normal termination of Gaussian 16 at Thu Dec 10 10:44:03 2020.

 ----------------------------------------------------------------------
 # B3LYP/6-311++G(d,p) empiricaldispersion=gd3bj scf=xqc pop=npa geom=c
 heck
 ----------------------------------------------------------------------

 ------------------------------------
 CID_79397398_JID_4687_Energie_kation
 ------------------------------------
 Structure from the checkpoint file:  "JID_4687.chk"
 Charge =  1 Multiplicity = 2

 SCF Done:  E(UB3LYP) =  -638.188585445     A.U. after   21 cycles
 Normal termination of Gaussian 16 at Thu Dec 10 10:54:45 2020.
 Gaussian 16:  ES64L-G16RevA.03 25-Dec-2016

 ----------------------------------------------------------------------
 # B3LYP/6-311++G(d,p) empiricaldispersion=gd3bj scf=xqc pop=npa geom=c
 heck
 ----------------------------------------------------------------------

 -----------------------------------
 CID_79397398_JID_4687_Energie_anion
 -----------------------------------
 Structure from the checkpoint file:  "JID_4687.chk"
 Charge = -1 Multiplicity = 2

                         Standard orientation:
 ---------------------------------------------------------------------
 Center     Atomic      Atomic             Coordinates (Angstroms)
 Number     Number       Type             X           Y           Z
 ---------------------------------------------------------------------
      1          6           0        4.690540   -0.496868    0.753850
      2          6           0        3.405206   -0.606069   -0.079816
      3          6           0        2.619665   -1.847493    0.369277
      4          6           0        2.568558    0.699382   -0.030104
      5          6           0        3.338650    1.883480   -0.634742
      6          6           0        1.201581    0.565767   -0.735936
      7          7           0        0.136676    0.186694    0.191850
      8          6           0       -1.180335    0.001610   -0.421838
      9          6           0       -1.306456   -1.303987   -1.223438
     10          6           0       -2.251355    0.096797    0.695456
     11          6           0       -2.226708    1.465666    1.392906
     12          6           0       -3.635127   -0.203999    0.160690
     13          8           0       -4.362269   -1.102147    0.523260
     14          8           0       -4.007497    0.674266   -0.811174
     15          1           0        4.452731   -0.282432    1.803885
     16          1           0        5.357754    0.291196    0.393825
     17          1           0        5.250234   -1.438751    0.727044
     18          1           0        3.693666   -0.762241   -1.131264
     19          1           0        2.279094   -1.743238    1.408309
     20          1           0        1.747114   -2.040415   -0.262991
     21          1           0        3.254682   -2.739433    0.325082
     22          1           0        2.355902    0.930481    1.024003
     23          1           0        3.547054    1.709587   -1.698681
     24          1           0        2.751546    2.804951   -0.556700
     25          1           0        4.294125    2.058622   -0.132969
     26          1           0        0.912605    1.535747   -1.158629
     27          1           0        1.307861   -0.121753   -1.596760
     28          1           0        0.393003   -0.663875    0.688070
     29          1           0       -1.335041    0.849137   -1.101173
     30          1           0       -1.243305   -2.173321   -0.556809
     31          1           0       -2.259743   -1.361908   -1.759238
     32          1           0       -0.505493   -1.383713   -1.965443
     33          1           0       -2.049438   -0.691259    1.430430
     34          1           0       -2.497132    2.260394    0.690503
     35          1           0       -2.929817    1.494137    2.231991
     36          1           0       -1.216751    1.655297    1.762137
     37          1           0       -4.904569    0.403251   -1.082089
 ---------------------------------------------------------------------

 SCF Done:  E(UB3LYP) =  -638.482358194     A.U. after   33 cycles
 SCF Done:  E(UB3LYP) =  -638.482358194     a.u. after    1 cycles

 The electronic state is 2-A.
 Alpha  occ. eigenvalues --  -19.07363 -19.02322 -14.20521 -10.21170 -10.11442
 Alpha  occ. eigenvalues --  -10.09882 -10.09770 -10.08339 -10.08206 -10.07253
 Alpha  occ. eigenvalues --  -10.06924 -10.06867 -10.06803 -10.06525  -1.01508
 Alpha  occ. eigenvalues --   -0.92639  -0.82324  -0.73334  -0.70778  -0.65912
 Alpha  occ. eigenvalues --   -0.63798  -0.59679  -0.57479  -0.57061  -0.52804
 Alpha  occ. eigenvalues --   -0.51599  -0.49606  -0.46464  -0.40706  -0.39871
 Alpha  occ. eigenvalues --   -0.38595  -0.38168  -0.36530  -0.35848  -0.35500
 Alpha  occ. eigenvalues --   -0.34218  -0.33221  -0.32718  -0.32086  -0.31561
 Alpha  occ. eigenvalues --   -0.30996  -0.29851  -0.29254  -0.28451  -0.27658
 Alpha  occ. eigenvalues --   -0.27590  -0.27210  -0.25977  -0.25545  -0.24486
 Alpha  occ. eigenvalues --   -0.23425  -0.23278  -0.22623  -0.22114  -0.18678
 Alpha  occ. eigenvalues --   -0.13717   0.04166
 Alpha virt. eigenvalues --    0.05553   0.06720   0.07007   0.07540   0.08372
 Alpha virt. eigenvalues --    0.08644   0.08955   0.09501   0.09916   0.10161
 Alpha virt. eigenvalues --    0.11059   0.11184   0.11896   0.11952   0.12855

  Beta  occ. eigenvalues --  -19.07309 -19.02306 -14.20515 -10.21167 -10.11436
  Beta  occ. eigenvalues --  -10.09872 -10.09760 -10.08327 -10.08202 -10.07241
  Beta  occ. eigenvalues --  -10.06904 -10.06843 -10.06781 -10.06496  -1.01442
  Beta  occ. eigenvalues --   -0.92579  -0.82310  -0.73312  -0.70752  -0.65882
  Beta  occ. eigenvalues --   -0.63769  -0.59627  -0.57429  -0.57009  -0.52744
  Beta  occ. eigenvalues --   -0.51551  -0.49535  -0.46416  -0.40673  -0.39842
  Beta  occ. eigenvalues --   -0.38568  -0.38137  -0.36498  -0.35806  -0.35464
  Beta  occ. eigenvalues --   -0.34190  -0.33191  -0.32687  -0.32055  -0.31530
  Beta  occ. eigenvalues --   -0.30969  -0.29824  -0.29226  -0.28422  -0.27636
  Beta  occ. eigenvalues --   -0.27567  -0.27182  -0.25938  -0.25516  -0.24461
  Beta  occ. eigenvalues --   -0.23374  -0.23236  -0.22596  -0.22092  -0.18621
  Beta  occ. eigenvalues --   -0.13704
  Beta virt. eigenvalues --    0.06161   0.06880   0.07106   0.07363   0.08248
  Beta virt. eigenvalues --    0.08666   0.08727   0.09188   0.09834   0.10149
  Beta virt. eigenvalues --    0.10472   0.11344   0.11375   0.12023   0.12188

 Mulliken charges and spin densities:
               1          2
     1  C    1.047713  -1.734379
     2  C   -0.993181   1.503259
     3  C    0.035774  -0.746729
     4  C    0.797157  -0.264991
     5  C    0.469928  -1.318316
     6  C   -0.925806   0.039355
     7  N    0.231482  -0.024627
     8  C   -0.829771   0.399763
     9  C    0.512497  -1.174656
    10  C    0.201162   0.251239
    11  C   -0.046767  -0.509108
    12  C   -0.076086  -0.339244
    13  O   -0.273532   0.045234
    14  O   -0.199499   0.079249
    15  H   -0.084420   0.223516
    16  H   -0.229817   0.357736
    17  H   -0.185089   0.324107
    18  H   -0.148089   0.317808
    19  H   -0.058279   0.202815
    20  H   -0.008680   0.156760
    21  H   -0.333768   0.489908
    22  H    0.129691   0.067359
    23  H   -0.110489   0.264628
    24  H    0.046217   0.083160
    25  H   -0.011476   0.146060
    26  H   -0.059675   0.238689
    27  H    0.256648  -0.107168
    28  H    0.388647  -0.144023
    29  H    0.098344   0.053788
    30  H    0.144138   0.011614
    31  H   -0.144620   0.331940
    32  H   -0.344067   0.490506
    33  H   -0.002684   0.220293
    34  H    0.074510   0.089996
    35  H    0.042620   0.105555
    36  H    0.021399   0.137303
    37  H   -0.432133   0.731602
 Sum of Mulliken charges =  -1.00000   1.00000

 Dipole moment (field-independent basis, Debye):
    X=              0.7941    Y=              1.7695    Z=              2.0240  Tot=              2.8033
 Quadrupole moment (field-independent basis, Debye-Ang):
   XX=           -211.2007   YY=           -129.3370   ZZ=           -124.7603
   XY=              3.7135   XZ=             -8.6833   YZ=              1.3672

 Summary of Natural Population Analysis:

                                       Natural Population
                Natural  -----------------------------------------------
    Atom  No    Charge         Core      Valence    Rydberg      Total
 -----------------------------------------------------------------------
      C    1   -0.28479      0.99965     2.27883    0.00631     3.28479
      C    2   -0.11001      0.99960     2.10011    0.01030     3.11001
      C    3   -0.28941      0.99965     2.28329    0.00647     3.28941
      C    4   -0.11566      0.99958     2.10497    0.01110     3.11566
      C    5   -0.28120      0.99965     2.27675    0.00479     3.28120
      C    6   -0.08216      0.99960     2.07203    0.01053     3.08216
      N    7   -0.34433      0.99973     2.83480    0.00979     3.84433
      C    8   -0.00532      0.99959     1.99310    0.01264     3.00532
      C    9   -0.29724      0.99964     2.29178    0.00582     3.29724
      C   10   -0.15407      0.99953     2.14228    0.01226     3.15407
      C   11   -0.28313      0.99964     2.27861    0.00487     3.28313
      C   12    0.41314      0.99967     1.56050    0.02668     2.58686
      O   13   -0.30551      0.99987     3.29936    0.00629     4.30551
      O   14   -0.34982      0.99988     3.34250    0.00744     4.34982
      H   15    0.09549      0.00000     0.40346    0.00106     0.40451
      H   16    0.10003      0.00000     0.39887    0.00110     0.39997
      H   17    0.10044      0.00000     0.39850    0.00107     0.39956
      H   18    0.09246      0.00000     0.40573    0.00181     0.40754
      H   19    0.09471      0.00000     0.40425    0.00104     0.40529
      H   20    0.10004      0.00000     0.39877    0.00119     0.39996
      H   21    0.10284      0.00000     0.39625    0.00091     0.39716
      H   22    0.09620      0.00000     0.40189    0.00191     0.40380
      H   23    0.09701      0.00000     0.40193    0.00106     0.40299
      H   24    0.09833      0.00000     0.40082    0.00085     0.40167
      H   25    0.10029      0.00000     0.39880    0.00091     0.39971
      H   26    0.09217      0.00000     0.40627    0.00156     0.40783
      H   27    0.08064      0.00000     0.41783    0.00152     0.41936
      H   28    0.17402      0.00000     0.32269    0.00328     0.32598
      H   29    0.09663      0.00000     0.40132    0.00205     0.40337
      H   30    0.09747      0.00000     0.40137    0.00116     0.40253
      H   31    0.10533      0.00000     0.39355    0.00112     0.39467
      H   32    0.10257      0.00000     0.39651    0.00092     0.39743
      H   33    0.10575      0.00000     0.39276    0.00149     0.39425
      H   34    0.10290      0.00000     0.39597    0.00113     0.39710
      H   35    0.09798      0.00000     0.40116    0.00086     0.40202
      H   36    0.11186      0.00000     0.38700    0.00114     0.38814
      H   37    0.24437      0.00000     0.23743    0.01820     0.25563
 =======================================================================
   * Total *    0.00000     13.99528    41.82207    0.18265    56.00000

 Normal termination of Gaussian 16 at Thu Dec 10 11:12:17 2020.
