 Gaussian 16, Revision A.03,

 -----------------------------------------------------------
 # opt freq B3LYP/6-31G(d) empiricaldispersion=gd3bj scf=xqc
 -----------------------------------------------------------

 ------------------------------
 CID_64339647_JID_7720_neutraal
 ------------------------------
 Symbolic Z-matrix:
 Charge =  0 Multiplicity = 1

 SCF Done:  E(RB3LYP) =  -1142.58650189     A.U. after   15 cycles
 SCF Done:  E(RB3LYP) =  -1142.59049378     A.U. after   13 cycles
 SCF Done:  E(RB3LYP) =  -1142.59107003     A.U. after   14 cycles
 SCF Done:  E(RB3LYP) =  -1142.59213991     A.U. after   12 cycles
 SCF Done:  E(RB3LYP) =  -1142.59302259     A.U. after   12 cycles
 SCF Done:  E(RB3LYP) =  -1142.59347071     A.U. after   12 cycles
 SCF Done:  E(RB3LYP) =  -1142.59365714     A.U. after   13 cycles
 SCF Done:  E(RB3LYP) =  -1142.59394945     A.U. after   11 cycles
 SCF Done:  E(RB3LYP) =  -1142.59409478     A.U. after   12 cycles
 SCF Done:  E(RB3LYP) =  -1142.59413328     A.U. after   11 cycles
 SCF Done:  E(RB3LYP) =  -1142.59419002     A.U. after   10 cycles
 SCF Done:  E(RB3LYP) =  -1142.59421512     A.U. after   11 cycles
 SCF Done:  E(RB3LYP) =  -1142.59421892     A.U. after   10 cycles
 SCF Done:  E(RB3LYP) =  -1142.59421975     A.U. after    8 cycles
 SCF Done:  E(RB3LYP) =  -1142.59421996     A.U. after    8 cycles
 Optimization completed.
    -- Stationary point found.
 Normal termination of Gaussian 16 at Mon Dec 14 16:43:35 2020.

 --------------------------------------------------------------------
 #N Geom=AllCheck Guess=TCheck SCRF=Check GenChk RB3LYP/6-31G(d) Freq
 --------------------------------------------------------------------

 Structure from the checkpoint file:  "JID_7720.chk"
 ------------------------------
 CID_64339647_JID_7720_neutraal
 ------------------------------
 Charge =  0 Multiplicity = 1

 SCF Done:  E(RB3LYP) =  -1142.59421996     A.U. after    1 cycles

  Exact polarizability: 186.087  -9.965 130.324  -8.767   1.450 122.513
 Approx polarizability: 279.019 -29.660 208.838 -20.130   9.120 212.850

                      1                      2                      3
                      A                      A                      A
 Frequencies --     22.9129                26.2885                27.2755
 Red. masses --      4.0232                 6.3288                 6.9146
 Frc consts  --      0.0012                 0.0026                 0.0030
 IR Inten    --      0.1311                 1.7713                 0.8195

                      4                      5                      6
                      A                      A                      A
 Frequencies --     50.5793                62.4997                74.1251
 Red. masses --      6.9358                 6.5392                 7.9248
 Frc consts  --      0.0105                 0.0150                 0.0257
 IR Inten    --      0.4458                 0.7494                 0.7957

                      7                      8                      9
                      A                      A                      A
 Frequencies --    123.9178               199.2353               229.5813
 Red. masses --      6.2446                 4.6135                 6.2849
 Frc consts  --      0.0565                 0.1079                 0.1952
 IR Inten    --      0.5774                 0.6246                 1.3524

                     10                     11                     12
                      A                      A                      A
 Frequencies --    239.9288               305.7979               325.9598
 Red. masses --      4.3991                 7.2476                 4.1069
 Frc consts  --      0.1492                 0.3993                 0.2571
 IR Inten    --      1.5993                 0.7829                 5.2280

                     13                     14                     15
                      A                      A                      A
 Frequencies --    342.6420               381.8894               416.3370
 Red. masses --      2.1200                 5.9340                 2.9690
 Frc consts  --      0.1466                 0.5099                 0.3032
 IR Inten    --      1.0907                 8.6353                 0.0092

                     16                     17                     18
                      A                      A                      A
 Frequencies --    440.0530               480.8869               512.4368
 Red. masses --      8.1270                 4.1378                 2.0271
 Frc consts  --      0.9272                 0.5638                 0.3136
 IR Inten    --      0.8672                 3.5640                16.6556

                     19                     20                     21
                      A                      A                      A
 Frequencies --    551.5046               565.0919               588.2612
 Red. masses --      5.4181                 6.2327                 4.1904
 Frc consts  --      0.9709                 1.1726                 0.8544
 IR Inten    --      5.8243                10.4798                25.0180

                     22                     23                     24
                      A                      A                      A
 Frequencies --    594.9472               629.2561               638.3715
 Red. masses --      5.5560                 5.6376                 6.3338
 Frc consts  --      1.1587                 1.3152                 1.5208
 IR Inten    --     11.2003                14.0156                 0.5389

                     25                     26                     27
                      A                      A                      A
 Frequencies --    663.2229               695.4109               713.5542
 Red. masses --      4.4516                 1.4820                 2.0467
 Frc consts  --      1.1537                 0.4222                 0.6140
 IR Inten    --     39.3169                97.7134                20.5539

                     28                     29                     30
                      A                      A                      A
 Frequencies --    728.4216               737.5179               783.3463
 Red. masses --      1.4281                 2.6076                 2.4617
 Frc consts  --      0.4464                 0.8357                 0.8900
 IR Inten    --     19.1757                45.3395                13.5408

                     31                     32                     33
                      A                      A                      A
 Frequencies --    835.4960               855.4289               860.0732
 Red. masses --      4.8605                 4.6523                 1.2516
 Frc consts  --      1.9990                 2.0058                 0.5455
 IR Inten    --     10.7711                 7.2799                 0.0152

                     34                     35                     36
                      A                      A                      A
 Frequencies --    864.4428               913.2831               935.1406
 Red. masses --      3.5665                 2.5879                 1.6016
 Frc consts  --      1.5702                 1.2718                 0.8252
 IR Inten    --      5.5646                 6.5482                 1.0869

                     37                     38                     39
                      A                      A                      A
 Frequencies --    963.4522               967.3693               997.7620
 Red. masses --      1.7581                 1.3936                 1.2661
 Frc consts  --      0.9615                 0.7683                 0.7427
 IR Inten    --      0.4835                 0.0324                 0.1877

                     40                     41                     42
                      A                      A                      A
 Frequencies --   1001.2934              1023.5584              1060.7665
 Red. masses --      3.5099                 6.2799                 2.2487
 Frc consts  --      2.0733                 3.8764                 1.4908
 IR Inten    --     33.3468                 0.8911                 1.9947

                     43                     44                     45
                      A                      A                      A
 Frequencies --   1087.4378              1114.8319              1194.4380
 Red. masses --      3.4037                 1.5627                 2.1697
 Frc consts  --      2.3714                 1.1443                 1.8238
 IR Inten    --     13.1441                 4.7980               149.3813

                     46                     47                     48
                      A                      A                      A
 Frequencies --   1194.8132              1201.7310              1215.3245
 Red. masses --      1.1010                 1.6022                 1.1440
 Frc consts  --      0.9260                 1.3632                 0.9956
 IR Inten    --      0.1791                29.0615                 0.7779

                     49                     50                     51
                      A                      A                      A
 Frequencies --   1223.8791              1235.4082              1242.8196
 Red. masses --      1.1726                 1.9211                 2.5292
 Frc consts  --      1.0348                 1.7275                 2.3017
 IR Inten    --      0.2638                39.6579                 4.3880

                     52                     53                     54
                      A                      A                      A
 Frequencies --   1329.3880              1357.5440              1365.9740
 Red. masses --      2.4625                 1.5606                 5.1473
 Frc consts  --      2.5641                 1.6945                 5.6586
 IR Inten    --     52.0330                21.0233                 0.2313

                     55                     56                     57
                      A                      A                      A
 Frequencies --   1371.4221              1380.9933              1398.7202
 Red. masses --      1.2768                 1.6198                 2.3788
 Frc consts  --      1.4148                 1.8201                 2.7420
 IR Inten    --      0.4988                36.9464                37.5494

                     58                     59                     60
                      A                      A                      A
 Frequencies --   1435.4399              1474.6973              1505.1293
 Red. masses --      2.8668                 1.1030                 2.2023
 Frc consts  --      3.4803                 1.4132                 2.9395
 IR Inten    --     67.6925                43.4652                 5.5051

                     61                     62                     63
                      A                      A                      A
 Frequencies --   1511.5316              1550.3087              1649.6400
 Red. masses --      1.1126                 2.2741                 5.5824
 Frc consts  --      1.4978                 3.2203                 8.9506
 IR Inten    --      1.2001                 9.9311                 0.9629

                     64                     65                     66
                      A                      A                      A
 Frequencies --   1667.9327              1672.9593              1799.7693
 Red. masses --      6.1607                 6.6905                12.1794
 Frc consts  --     10.0980                11.0326                23.2439
 IR Inten    --     10.5882                 8.1308               504.4087

                     67                     68                     69
                      A                      A                      A
 Frequencies --   1857.5595              3031.3734              3065.8348
 Red. masses --     10.2548                 1.0601                 1.1007
 Frc consts  --     20.8478                 5.7393                 6.0959
 IR Inten    --    317.0843                24.4581                10.3261

                     70                     71                     72
                      A                      A                      A
 Frequencies --   3095.9338              3142.9049              3180.8114
 Red. masses --      1.0595                 1.1043                 1.0861
 Frc consts  --      5.9832                 6.4268                 6.4744
 IR Inten    --     19.8058                 3.1053                 7.0888

                     73                     74                     75
                      A                      A                      A
 Frequencies --   3182.8566              3193.6485              3202.9140
 Red. masses --      1.0878                 1.0902                 1.0940
 Frc consts  --      6.4931                 6.5513                 6.6124
 IR Inten    --      3.2006                 8.8577                33.2968

                     76                     77                     78
                      A                      A                      A
 Frequencies --   3213.7918              3297.9626              3686.5020
 Red. masses --      1.0980                 1.0946                 1.0641
 Frc consts  --      6.6819                 7.0148                 8.5206
 IR Inten    --     18.8351                 4.3460                63.4403

 - Thermochemistry -
 -------------------
 Temperature   298.150 Kelvin.  Pressure   1.00000 Atm.
 Atom     1 has atomic number  6 and mass  12.00000

 Molecular mass:   249.04597 amu.
 Principal axes and moments of inertia in atomic units:
                           1         2         3
     Eigenvalues --  2714.980916717.584178354.00293
           X            0.99997  -0.00790  -0.00259
           Y            0.00788   0.99994  -0.00812
           Z            0.00265   0.00810   0.99996
 This molecule is an asymmetric top.
 Rotational symmetry number  1.
 Warning -- assumption of classical behavior for rotation
           may cause significant error
 Rotational temperatures (Kelvin)      0.03190     0.01289     0.01037
 Rotational constants (GHZ):           0.66473     0.26866     0.21603
 Zero-point vibrational energy     560830.6 (Joules/Mol)
                                  134.04172 (Kcal/Mol)
 Warning -- explicit consideration of  22 degrees of freedom as
           vibrations may cause significant error
 Vibrational temperatures:     32.97    37.82    39.24    72.77    89.92
          (Kelvin)            106.65   178.29   286.66   330.32   345.20
                              439.97   468.98   492.99   549.45   599.02
                              633.14   691.89   737.28   793.49   813.04
                              846.38   856.00   905.36   918.47   954.23
                             1000.54  1026.65  1048.04  1061.12  1127.06
                             1202.09  1230.77  1237.45  1243.74  1314.01
                             1345.46  1386.19  1391.83  1435.56  1440.64
                             1472.67  1526.21  1564.58  1603.99  1718.53
                             1719.07  1729.02  1748.58  1760.89  1777.48
                             1788.14  1912.69  1953.20  1965.33  1973.17
                             1986.94  2012.45  2065.28  2121.76  2165.55
                             2174.76  2230.55  2373.46  2399.78  2407.02
                             2589.47  2672.61  4361.47  4411.05  4454.36
                             4521.94  4576.48  4579.42  4594.95  4608.28
                             4623.93  4745.03  5304.05

 Zero-point correction=                           0.213609 (Hartree/Particle)
 Thermal correction to Energy=                    0.228758
 Thermal correction to Enthalpy=                  0.229702
 Thermal correction to Gibbs Free Energy=         0.167499
 Sum of electronic and zero-point Energies=          -1142.380611
 Sum of electronic and thermal Energies=             -1142.365462
 Sum of electronic and thermal Enthalpies=           -1142.364518
 Sum of electronic and thermal Free Energies=        -1142.426721

                     E (Thermal)             CV                S
                      KCal/Mol        Cal/Mol-Kelvin    Cal/Mol-Kelvin
 Total                  143.548             56.565            130.918
 Electronic               0.000              0.000              0.000
 Translational            0.889              2.981             42.438
 Rotational               0.889              2.981             33.388
 Vibrational            141.770             50.603             55.092
 Vibration     1          0.593              1.985              6.364
 Vibration     2          0.593              1.985              6.091
 Vibration     3          0.593              1.984              6.018
 Vibration     4          0.595              1.977              4.795
 Vibration     5          0.597              1.972              4.377
 Vibration     6          0.599              1.966              4.041
 Vibration     7          0.610              1.929              3.038
 Vibration     8          0.637              1.841              2.140
 Vibration     9          0.652              1.796              1.882
 Vibration    10          0.657              1.779              1.803
 Vibration    11          0.696              1.663              1.385
 Vibration    12          0.710              1.624              1.280
 Vibration    13          0.722              1.590              1.200
 Vibration    14          0.751              1.509              1.032
 Vibration    15          0.780              1.435              0.905
 Vibration    16          0.800              1.383              0.826
 Vibration    17          0.837              1.292              0.708
 Vibration    18          0.868              1.222              0.628
 Vibration    19          0.907              1.136              0.541
 Vibration    20          0.921              1.107              0.514
 Vibration    21          0.945              1.057              0.470
 Vibration    22          0.953              1.043              0.458

                           ! Non-Optimized Parameters !
 Normal termination of Gaussian 16 at Mon Dec 14 16:54:22 2020.

 ----------------------------------------------------------------------
 # B3LYP/6-311++G(d,p) empiricaldispersion=gd3bj scf=xqc pop=npa geom=c
 heck
 ----------------------------------------------------------------------

 --------------------------------------
 CID_64339647_JID_7720_Energie_neutraal
 --------------------------------------
 Structure from the checkpoint file:  "JID_7720.chk"
 Charge =  0 Multiplicity = 1

 SCF Done:  E(RB3LYP) =  -1142.83635013     A.U. after   16 cycles
 Normal termination of Gaussian 16 at Mon Dec 14 16:59:44 2020.

 ----------------------------------------------------------------------
 # B3LYP/6-311++G(d,p) empiricaldispersion=gd3bj scf=xqc pop=npa geom=c
 heck
 ----------------------------------------------------------------------

 ------------------------------------
 CID_64339647_JID_7720_Energie_kation
 ------------------------------------
 Structure from the checkpoint file:  "JID_7720.chk"
 Charge =  1 Multiplicity = 2

 SCF Done:  E(UB3LYP) =  -1142.54457795     A.U. after   27 cycles
 Normal termination of Gaussian 16 at Mon Dec 14 17:12:25 2020.
 Gaussian 16:  ES64L-G16RevA.03 25-Dec-2016

 ----------------------------------------------------------------------
 # B3LYP/6-311++G(d,p) empiricaldispersion=gd3bj scf=xqc pop=npa geom=c
 heck
 ----------------------------------------------------------------------

 -----------------------------------
 CID_64339647_JID_7720_Energie_anion
 -----------------------------------
 Structure from the checkpoint file:  "JID_7720.chk"
 Charge = -1 Multiplicity = 2

                         Standard orientation:
 ---------------------------------------------------------------------
 Center     Atomic      Atomic             Coordinates (Angstroms)
 Number     Number       Type             X           Y           Z
 ---------------------------------------------------------------------
      1          6           0        4.785643    0.058244   -0.297742
      2          6           0        4.301722   -0.195898    0.986116
      3          6           0        2.964483    0.058534    1.291687
      4          6           0        2.098164    0.572221    0.321948
      5          6           0        2.590581    0.819933   -0.963976
      6          6           0        3.926351    0.566670   -1.273458
      7          6           0        0.639441    0.809495    0.637648
      8          6           0       -0.225263   -0.370763    0.284644
      9          6           0        0.170331   -1.552256   -0.225530
     10         16           0       -1.174305   -2.651062   -0.497219
     11          6           0       -2.342769   -1.421383    0.107100
     12          8           0       -3.548780   -1.542094    0.180261
     13          7           0       -1.611205   -0.301842    0.490501
     14          6           0       -2.330152    0.869385    0.938679
     15          6           0       -2.487139    1.980487   -0.090248
     16          8           0       -2.921786    3.074812    0.181302
     17          8           0       -2.102530    1.610310   -1.330376
     18          1           0        5.826968   -0.137545   -0.536702
     19          1           0        4.964553   -0.591158    1.750578
     20          1           0        2.587679   -0.144059    2.291196
     21          1           0        1.919211    1.209262   -1.725294
     22          1           0        4.296335    0.767148   -2.274926
     23          1           0        0.523837    1.041411    1.705305
     24          1           0        0.282818    1.691553    0.089855
     25          1           0        1.184212   -1.836379   -0.460290
     26          1           0       -3.335773    0.536919    1.212689
     27          1           0       -1.867474    1.304428    1.828152
     28          1           0       -2.278626    2.376072   -1.909274
 ---------------------------------------------------------------------

 SCF Done:  E(UB3LYP) =  -1142.83151530     A.U. after   33 cycles
 SCF Done:  E(UB3LYP) =  -1142.83151530     a.u. after    1 cycles

 The electronic state is 2-A.
 Alpha  occ. eigenvalues --  -88.78912 -19.08604 -19.03277 -19.02289 -14.28997
 Alpha  occ. eigenvalues --  -10.22573 -10.21734 -10.14664 -10.14264 -10.10973
 Alpha  occ. eigenvalues --  -10.10362 -10.09669 -10.08787 -10.08770 -10.08652
 Alpha  occ. eigenvalues --  -10.08602 -10.08478  -7.87559  -5.83869  -5.83536
 Alpha  occ. eigenvalues --   -5.83059  -1.02851  -0.97791  -0.94041  -0.89617
 Alpha  occ. eigenvalues --   -0.77595  -0.75233  -0.71121  -0.66169  -0.66001
 Alpha  occ. eigenvalues --   -0.65055  -0.59245  -0.54550  -0.53526  -0.52123
 Alpha  occ. eigenvalues --   -0.49586  -0.48436  -0.42883  -0.41998  -0.41540
 Alpha  occ. eigenvalues --   -0.40368  -0.39522  -0.38331  -0.37193  -0.36429
 Alpha  occ. eigenvalues --   -0.35948  -0.34635  -0.34247  -0.33591  -0.32323
 Alpha  occ. eigenvalues --   -0.32072  -0.31866  -0.30980  -0.28140  -0.27201
 Alpha  occ. eigenvalues --   -0.26066  -0.25986  -0.25112  -0.24263  -0.22132
 Alpha  occ. eigenvalues --   -0.19637  -0.19292  -0.17002  -0.16502  -0.12948
 Alpha  occ. eigenvalues --    0.03706
 Alpha virt. eigenvalues --    0.05750   0.06286   0.06884   0.07179   0.07337
 Alpha virt. eigenvalues --    0.07829   0.08130   0.08356   0.08655   0.09455
 Alpha virt. eigenvalues --    0.09995   0.10521   0.11013   0.11470   0.11654

  Beta  occ. eigenvalues --  -88.78910 -19.08541 -19.03257 -19.02288 -14.28996
  Beta  occ. eigenvalues --  -10.22541 -10.21732 -10.14638 -10.14263 -10.10966
  Beta  occ. eigenvalues --  -10.10334 -10.09642 -10.08775 -10.08761 -10.08623
  Beta  occ. eigenvalues --  -10.08583 -10.08456  -7.87558  -5.83867  -5.83534
  Beta  occ. eigenvalues --   -5.83058  -1.02753  -0.97787  -0.93968  -0.89608
  Beta  occ. eigenvalues --   -0.77546  -0.75213  -0.71072  -0.66113  -0.65957
  Beta  occ. eigenvalues --   -0.65006  -0.59198  -0.54430  -0.53494  -0.52075
  Beta  occ. eigenvalues --   -0.49528  -0.48386  -0.42823  -0.41956  -0.41502
  Beta  occ. eigenvalues --   -0.40305  -0.39458  -0.38289  -0.37128  -0.36381
  Beta  occ. eigenvalues --   -0.35904  -0.34620  -0.34221  -0.33552  -0.32271
  Beta  occ. eigenvalues --   -0.32027  -0.31807  -0.30929  -0.28090  -0.27161
  Beta  occ. eigenvalues --   -0.26031  -0.25936  -0.25084  -0.24191  -0.22101
  Beta  occ. eigenvalues --   -0.19632  -0.19255  -0.16952  -0.16371  -0.12939
  Beta virt. eigenvalues --    0.06006   0.06804   0.07111   0.07169   0.07413
  Beta virt. eigenvalues --    0.07578   0.08150   0.08282   0.08753   0.09129
  Beta virt. eigenvalues --    0.09461   0.10244   0.10691   0.11338   0.11643

 Mulliken charges and spin densities:
               1          2
     1  C    0.618581  -0.853953
     2  C    0.269786  -0.744571
     3  C   -1.407351   1.276147
     4  C   -0.852972   2.190262
     5  C   -1.692712   1.542244
     6  C    0.710054  -1.172729
     7  C    3.183967  -3.952905
     8  C   -0.731103  -0.564224
     9  C    0.824483  -0.399730
    10  S   -0.247616  -0.008890
    11  C    0.228853  -0.103987
    12  O   -0.354463   0.001613
    13  N    0.448427   0.038556
    14  C    0.194173  -0.570386
    15  C    0.296191  -0.241827
    16  O   -0.249552   0.036372
    17  O   -0.126458   0.000025
    18  H   -0.195517   0.359114
    19  H   -0.337794   0.512597
    20  H   -0.555722   0.739799
    21  H   -0.424890   0.619996
    22  H   -0.289691   0.465883
    23  H   -0.249622   0.451263
    24  H   -0.153393   0.352184
    25  H    0.352155  -0.043703
    26  H    0.268244  -0.029519
    27  H   -0.227075   0.470521
    28  H   -0.298984   0.629847
 Sum of Mulliken charges =  -1.00000   1.00000

 Dipole moment (field-independent basis, Debye):
    X=             -0.7736    Y=             -4.2499    Z=              0.2274  Tot=              4.3257
 Quadrupole moment (field-independent basis, Debye-Ang):
   XX=           -184.5194   YY=           -151.4332   ZZ=           -146.0957
   XY=              0.9447   XZ=             -5.6138   YZ=              4.7333

 Summary of Natural Population Analysis:

                                       Natural Population
                Natural  -----------------------------------------------
    Atom  No    Charge         Core      Valence    Rydberg      Total
 -----------------------------------------------------------------------
      C    1   -0.10016      0.99956     2.09094    0.00966     3.10016
      C    2   -0.10079      0.99956     2.09057    0.01066     3.10079
      C    3   -0.09716      0.99950     2.08758    0.01008     3.09716
      C    4   -0.01491      0.99951     2.00308    0.01232     3.01491
      C    5   -0.09632      0.99950     2.08634    0.01048     3.09632
      C    6   -0.09959      0.99956     2.09023    0.00980     3.09959
      C    7   -0.21466      0.99956     2.20509    0.01002     3.21466
      C    8    0.09617      0.99945     1.89191    0.01247     2.90383
      C    9   -0.20531      0.99941     2.19756    0.00835     3.20531
      S   10    0.13892      4.99950     2.84266    0.01892     7.86108
      C   11    0.26588      0.99968     1.70663    0.02781     2.73412
      O   12   -0.31461      0.99987     3.30768    0.00706     4.31461
      N   13   -0.24560      0.99958     2.73381    0.01221     3.74560
      C   14   -0.14079      0.99956     2.12860    0.01263     3.14079
      C   15    0.40416      0.99973     1.57135    0.02475     2.59584
      O   16   -0.30120      0.99987     3.29503    0.00631     4.30120
      O   17   -0.33848      0.99988     3.33154    0.00706     4.33848
      H   18    0.10055      0.00000     0.39839    0.00106     0.39945
      H   19    0.10150      0.00000     0.39739    0.00110     0.39850
      H   20    0.10377      0.00000     0.39466    0.00157     0.39623
      H   21    0.10631      0.00000     0.39213    0.00156     0.39369
      H   22    0.10150      0.00000     0.39747    0.00103     0.39850
      H   23    0.11497      0.00000     0.38255    0.00248     0.38503
      H   24    0.11590      0.00000     0.38100    0.00309     0.38410
      H   25    0.12123      0.00000     0.37772    0.00105     0.37877
      H   26    0.13028      0.00000     0.36848    0.00124     0.36972
      H   27    0.11969      0.00000     0.37879    0.00152     0.38031
      H   28    0.24875      0.00000     0.23663    0.01461     0.25125
 =======================================================================
   * Total *    0.00000     20.99327    43.76581    0.24091    65.00000

 Normal termination of Gaussian 16 at Mon Dec 14 17:28:19 2020.
