 Gaussian 16, Revision A.03,

 -----------------------------------------------------------
 # opt freq B3LYP/6-31G(d) empiricaldispersion=gd3bj scf=xqc
 -----------------------------------------------------------

 -------------------------------
 CID_103275688_JID_9711_neutraal
 -------------------------------
 Symbolic Z-matrix:
 Charge =  0 Multiplicity = 1

 SCF Done:  E(RB3LYP) =  -822.561262199     A.U. after   14 cycles
 SCF Done:  E(RB3LYP) =  -822.567035995     A.U. after   12 cycles
 SCF Done:  E(RB3LYP) =  -822.567963646     A.U. after   11 cycles
 SCF Done:  E(RB3LYP) =  -822.568318095     A.U. after   12 cycles
 SCF Done:  E(RB3LYP) =  -822.568531500     A.U. after   12 cycles
 SCF Done:  E(RB3LYP) =  -822.568780167     A.U. after   12 cycles
 SCF Done:  E(RB3LYP) =  -822.569091795     A.U. after   13 cycles
 SCF Done:  E(RB3LYP) =  -822.569231233     A.U. after   12 cycles
 SCF Done:  E(RB3LYP) =  -822.569439647     A.U. after   13 cycles
 SCF Done:  E(RB3LYP) =  -822.569808918     A.U. after   12 cycles
 SCF Done:  E(RB3LYP) =  -822.570533827     A.U. after    9 cycles
 SCF Done:  E(RB3LYP) =  -822.570534520     A.U. after    9 cycles
 SCF Done:  E(RB3LYP) =  -822.570534712     A.U. after    8 cycles
 SCF Done:  E(RB3LYP) =  -822.570534834     A.U. after    9 cycles
 SCF Done:  E(RB3LYP) =  -822.570534861     A.U. after    7 cycles
 Optimization completed.
    -- Stationary point found.
 Normal termination of Gaussian 16 at Sun Dec 13 13:04:47 2020.

 --------------------------------------------------------------------
 #N Geom=AllCheck Guess=TCheck SCRF=Check GenChk RB3LYP/6-31G(d) Freq
 --------------------------------------------------------------------

 Structure from the checkpoint file:  "JID_9711.chk"
 -------------------------------
 CID_103275688_JID_9711_neutraal
 -------------------------------
 Charge =  0 Multiplicity = 1

 SCF Done:  E(RB3LYP) =  -822.570534861     A.U. after    1 cycles

  Exact polarizability: 223.089   0.332 175.517 -11.160  12.664 133.432
 Approx polarizability: 281.609   2.003 272.496 -24.640  27.015 227.410

                      1                      2                      3
                      A                      A                      A
 Frequencies --     11.0741                24.7900                39.6504
 Red. masses --      4.7975                 3.6511                 4.7543
 Frc consts  --      0.0003                 0.0013                 0.0044
 IR Inten    --      0.3527                 0.5013                 1.3318

                      4                      5                      6
                      A                      A                      A
 Frequencies --     66.0650               109.2953               118.5348
 Red. masses --      3.9858                 3.7752                 3.5968
 Frc consts  --      0.0102                 0.0266                 0.0298
 IR Inten    --      0.1630                 2.9799                 2.0136

                      7                      8                      9
                      A                      A                      A
 Frequencies --    138.5079               147.0815               177.1783
 Red. masses --      2.1940                 1.0912                 2.3916
 Frc consts  --      0.0248                 0.0139                 0.0442
 IR Inten    --      0.6722                 0.1776                 0.3266

                     10                     11                     12
                      A                      A                      A
 Frequencies --    194.7993               210.1236               221.5925
 Red. masses --      2.7849                 1.6385                 2.1901
 Frc consts  --      0.0623                 0.0426                 0.0634
 IR Inten    --      1.4111                 0.9385                 3.0722

                     13                     14                     15
                      A                      A                      A
 Frequencies --    246.5890               269.8729               281.4482
 Red. masses --      2.9435                 2.5693                 2.7980
 Frc consts  --      0.1055                 0.1103                 0.1306
 IR Inten    --     12.8908                 2.4271                 5.5008

                     16                     17                     18
                      A                      A                      A
 Frequencies --    295.0970               320.6300               366.6795
 Red. masses --      2.9755                 2.9418                 3.8301
 Frc consts  --      0.1527                 0.1782                 0.3034
 IR Inten    --      0.9068                 1.3685                 6.2754

                     19                     20                     21
                      A                      A                      A
 Frequencies --    395.8699               431.1745               448.4539
 Red. masses --      4.0395                 2.9649                 4.0664
 Frc consts  --      0.3730                 0.3248                 0.4818
 IR Inten    --      1.8192                 1.8549                 1.8623

                     22                     23                     24
                      A                      A                      A
 Frequencies --    468.6650               557.7508               577.8503
 Red. masses --      3.4503                 3.8920                 3.7740
 Frc consts  --      0.4465                 0.7134                 0.7425
 IR Inten    --      3.0526                11.7449                 2.8920

                     25                     26                     27
                      A                      A                      A
 Frequencies --    601.0199               636.3057               638.5562
 Red. masses --      3.7984                 4.0616                 3.7386
 Frc consts  --      0.8084                 0.9689                 0.8982
 IR Inten    --      4.2059                 0.6091                 3.7190

                     28                     29                     30
                      A                      A                      A
 Frequencies --    670.3512               686.7191               699.5773
 Red. masses --      4.5041                 4.3767                 2.3648
 Frc consts  --      1.1925                 1.2161                 0.6819
 IR Inten    --     12.4221                 3.9330                61.8920

                     31                     32                     33
                      A                      A                      A
 Frequencies --    740.9493               757.6163               782.8904
 Red. masses --      3.9222                 3.4126                 5.0359
 Frc consts  --      1.2687                 1.1541                 1.8186
 IR Inten    --      2.4453                18.0458                 8.9382

                     34                     35                     36
                      A                      A                      A
 Frequencies --    801.9486               827.7983               838.7923
 Red. masses --      2.0430                 1.5562                 1.3045
 Frc consts  --      0.7741                 0.6283                 0.5408
 IR Inten    --     85.5021                25.2264                14.5472

                     37                     38                     39
                      A                      A                      A
 Frequencies --    854.1672               899.4774               931.8811
 Red. masses --      1.6971                 1.3408                 3.3241
 Frc consts  --      0.7295                 0.6391                 1.7008
 IR Inten    --      7.6390                 0.7072                13.2754

                     40                     41                     42
                      A                      A                      A
 Frequencies --    942.1518               968.6726               974.2422
 Red. masses --      1.5013                 2.0057                 2.0620
 Frc consts  --      0.7852                 1.1088                 1.1531
 IR Inten    --      2.4299                17.8350                 2.1299

                     43                     44                     45
                      A                      A                      A
 Frequencies --    980.1172               996.1272              1014.8775
 Red. masses --      2.4282                 4.0608                 2.8259
 Frc consts  --      1.3743                 2.3741                 1.7149
 IR Inten    --      5.5573                 9.0784                13.3421

                     46                     47                     48
                      A                      A                      A
 Frequencies --   1028.2100              1047.1554              1083.3666
 Red. masses --      1.8825                 2.5417                 1.4569
 Frc consts  --      1.1726                 1.6421                 1.0075
 IR Inten    --      2.1446                11.2436                 2.1232

                     49                     50                     51
                      A                      A                      A
 Frequencies --   1086.7694              1102.1528              1118.4797
 Red. masses --      1.6372                 2.8074                 2.5451
 Frc consts  --      1.1393                 2.0093                 1.8759
 IR Inten    --      3.2963                36.3212                 2.7714

                     52                     53                     54
                      A                      A                      A
 Frequencies --   1154.0440              1160.1613              1164.4605
 Red. masses --      1.2867                 2.0613                 2.2954
 Frc consts  --      1.0097                 1.6346                 1.8338
 IR Inten    --     23.0265                35.2763                33.0551

                     55                     56                     57
                      A                      A                      A
 Frequencies --   1175.1332              1184.1489              1211.6031
 Red. masses --      2.2803                 2.0320                 1.3106
 Frc consts  --      1.8553                 1.6788                 1.1335
 IR Inten    --     27.8366                27.1272                13.6551

                     58                     59                     60
                      A                      A                      A
 Frequencies --   1219.3290              1225.2326              1253.3908
 Red. masses --      1.3790                 2.5956                 2.6413
 Frc consts  --      1.2080                 2.2957                 2.4448
 IR Inten    --     12.6806                11.1135                21.0157

                     61                     62                     63
                      A                      A                      A
 Frequencies --   1257.0010              1261.6398              1266.8856
 Red. masses --      2.9715                 1.9261                 1.3808
 Frc consts  --      2.7663                 1.8064                 1.3057
 IR Inten    --      8.3259                15.7297                13.5664

                     64                     65                     66
                      A                      A                      A
 Frequencies --   1291.8580              1315.7982              1321.5139
 Red. masses --      1.3877                 1.6536                 2.0222
 Frc consts  --      1.3645                 1.6867                 2.0808
 IR Inten    --      2.3409                 7.7881                96.8950

                     67                     68                     69
                      A                      A                      A
 Frequencies --   1337.0549              1349.0761              1356.8084
 Red. masses --      1.5633                 1.9168                 2.0198
 Frc consts  --      1.6466                 2.0554                 2.1908
 IR Inten    --     12.4616                27.8268                60.1372

                     70                     71                     72
                      A                      A                      A
 Frequencies --   1396.6315              1425.3884              1435.0825
 Red. masses --      1.6758                 1.8774                 1.9876
 Frc consts  --      1.9259                 2.2473                 2.4117
 IR Inten    --     29.4740                25.9234                12.7194

                     73                     74                     75
                      A                      A                      A
 Frequencies --   1448.2181              1483.6393              1490.3924
 Red. masses --      1.3122                 1.2627                 3.0102
 Frc consts  --      1.6216                 1.6376                 3.9396
 IR Inten    --      3.7309                 3.0032                 6.8440

                     76                     77                     78
                      A                      A                      A
 Frequencies --   1502.3050              1508.2972              1510.2670
 Red. masses --      1.0423                 1.1064                 1.1213
 Frc consts  --      1.3859                 1.4829                 1.5069
 IR Inten    --      7.0261                 4.9433                 3.3939

                     79                     80                     81
                      A                      A                      A
 Frequencies --   1520.5136              1521.0025              1529.7860
 Red. masses --      1.0899                 1.0875                 1.1093
 Frc consts  --      1.4846                 1.4824                 1.5296
 IR Inten    --     10.7944                36.3177                 1.2312

                     82                     83                     84
                      A                      A                      A
 Frequencies --   1531.8379              1538.0269              1548.4975
 Red. masses --      1.0922                 1.4090                 1.2368
 Frc consts  --      1.5099                 1.9638                 1.7473
 IR Inten    --      2.6625                61.6441                49.5975

                     85                     86                     87
                      A                      A                      A
 Frequencies --   1558.8232              1622.3122              1646.5944
 Red. masses --      1.5874                 8.2665                 6.2128
 Frc consts  --      2.2727                12.8187                 9.9246
 IR Inten    --     46.3424                34.0265                10.8710

                     88                     89                     90
                      A                      A                      A
 Frequencies --   1666.9670              1679.1537              2959.5132
 Red. masses --      6.4900                 6.3250                 1.0728
 Frc consts  --     10.6254                10.5073                 5.5363
 IR Inten    --     15.6660                50.7360                57.8453

                     91                     92                     93
                      A                      A                      A
 Frequencies --   2969.8997              2978.3079              3029.4156
 Red. masses --      1.0601                 1.0708                 1.0606
 Frc consts  --      5.5092                 5.5965                 5.7350
 IR Inten    --    141.8571                21.0739                51.6665

                     94                     95                     96
                      A                      A                      A
 Frequencies --   3034.8383              3036.0614              3048.4512
 Red. masses --      1.0874                 1.0696                 1.0376
 Frc consts  --      5.9009                 5.8086                 5.6812
 IR Inten    --     39.2137                39.5004                31.7988

                     97                     98                     99
                      A                      A                      A
 Frequencies --   3061.6956              3091.9063              3096.1641
 Red. masses --      1.1047                 1.0752                 1.0884
 Frc consts  --      6.1012                 6.0559                 6.1471
 IR Inten    --     25.1901                29.2102                64.7184

                    100                    101                    102
                      A                      A                      A
 Frequencies --   3100.2860              3107.0393              3133.0486
 Red. masses --      1.1018                 1.0962                 1.1038
 Frc consts  --      6.2398                 6.2348                 6.3836
 IR Inten    --     14.4942                25.7173                20.1267

                    103                    104                    105
                      A                      A                      A
 Frequencies --   3142.2353              3163.6184              3188.4316
 Red. masses --      1.0998                 1.0897                 1.0874
 Frc consts  --      6.3981                 6.4259                 6.5132
 IR Inten    --     10.1663                22.6983                 4.0547

                    106                    107                    108
                      A                      A                      A
 Frequencies --   3205.9799              3277.3260              3526.1855
 Red. masses --      1.0930                 1.0982                 1.0745
 Frc consts  --      6.6192                 6.9495                 7.8713
 IR Inten    --     14.0581                 9.7486                16.0510

 - Thermochemistry -
 -------------------
 Temperature   298.150 Kelvin.  Pressure   1.00000 Atm.
 Atom     1 has atomic number  6 and mass  12.00000

 Molecular mass:   257.15281 amu.
 Principal axes and moments of inertia in atomic units:
                           1         2         3
     Eigenvalues --  2460.94813********************
           X            1.00000  -0.00132   0.00227
           Y            0.00129   0.99990   0.01435
           Z           -0.00229  -0.01434   0.99989
 This molecule is an asymmetric top.
 Rotational symmetry number  1.
 Warning -- assumption of classical behavior for rotation
           may cause significant error
 Rotational temperatures (Kelvin)      0.03520     0.00799     0.00709
 Rotational constants (GHZ):           0.73335     0.16642     0.14766
 Zero-point vibrational energy     849638.3 (Joules/Mol)
                                  203.06842 (Kcal/Mol)
 Warning -- explicit consideration of  25 degrees of freedom as
           vibrations may cause significant error
 Vibrational temperatures:     15.93    35.67    57.05    95.05   157.25
          (Kelvin)            170.55   199.28   211.62   254.92   280.27
                              302.32   318.82   354.79   388.29   404.94
                              424.58   461.32   527.57   569.57   620.36
                              645.23   674.30   802.48   831.40   864.73
                              915.50   918.74   964.49   988.04  1006.54
                             1066.06  1090.04  1126.40  1153.83  1191.02
                             1206.84  1228.96  1294.15  1340.77  1355.55
                             1393.70  1401.72  1410.17  1433.20  1460.18
                             1479.36  1506.62  1558.72  1563.62  1585.75
                             1609.24  1660.41  1669.21  1675.40  1690.75
                             1703.73  1743.23  1754.34  1762.84  1803.35
                             1808.54  1815.22  1822.77  1858.70  1893.14
                             1901.36  1923.72  1941.02  1952.14  2009.44
                             2050.82  2064.76  2083.66  2134.63  2144.34
                             2161.48  2170.10  2172.94  2187.68  2188.38
                             2201.02  2203.97  2212.88  2227.94  2242.80
                             2334.15  2369.08  2398.39  2415.93  4258.08
                             4273.02  4285.12  4358.65  4366.46  4368.22
                             4386.04  4405.10  4448.56  4454.69  4460.62
                             4470.34  4507.76  4520.98  4551.74  4587.44
                             4612.69  4715.34  5073.39

 Zero-point correction=                           0.323610 (Hartree/Particle)
 Thermal correction to Energy=                    0.341103
 Thermal correction to Enthalpy=                  0.342047
 Thermal correction to Gibbs Free Energy=         0.275710
 Sum of electronic and zero-point Energies=           -822.246925
 Sum of electronic and thermal Energies=              -822.229432
 Sum of electronic and thermal Enthalpies=            -822.228488
 Sum of electronic and thermal Free Energies=         -822.294825

                     E (Thermal)             CV                S
                      KCal/Mol        Cal/Mol-Kelvin    Cal/Mol-Kelvin
 Total                  214.045             66.607            139.617
 Electronic               0.000              0.000              0.000
 Translational            0.889              2.981             42.533
 Rotational               0.889              2.981             34.144
 Vibrational            212.268             60.646             62.939
 Vibration     1          0.593              1.987              7.808
 Vibration     2          0.593              1.985              6.208
 Vibration     3          0.594              1.981              5.276
 Vibration     4          0.597              1.970              4.267
 Vibration     5          0.606              1.942              3.281
 Vibration     6          0.609              1.934              3.124
 Vibration     7          0.614              1.915              2.824
 Vibration     8          0.617              1.906              2.710
 Vibration     9          0.628              1.870              2.358
 Vibration    10          0.635              1.847              2.182
 Vibration    11          0.642              1.825              2.043
 Vibration    12          0.648              1.808              1.946
 Vibration    13          0.661              1.768              1.755
 Vibration    14          0.674              1.729              1.597
 Vibration    15          0.681              1.708              1.525
 Vibration    16          0.689              1.683              1.445
 Vibration    17          0.706              1.634              1.307
 Vibration    18          0.740              1.541              1.094
 Vibration    19          0.763              1.479              0.978
 Vibration    20          0.792              1.402              0.855
 Vibration    21          0.807              1.364              0.800
 Vibration    22          0.826              1.320              0.741
 Vibration    23          0.913              1.123              0.528
 Vibration    24          0.934              1.079              0.489
 Vibration    25          0.959              1.030              0.448

 Optimization completed.
    -- Stationary point found.
 Normal termination of Gaussian 16 at Sun Dec 13 13:23:12 2020.

 ----------------------------------------------------------------------
 # B3LYP/6-311++G(d,p) empiricaldispersion=gd3bj scf=xqc pop=npa geom=c
 heck
 ----------------------------------------------------------------------

 ---------------------------------------
 CID_103275688_JID_9711_Energie_neutraal
 ---------------------------------------
 Structure from the checkpoint file:  "JID_9711.chk"
 Charge =  0 Multiplicity = 1

 SCF Done:  E(RB3LYP) =  -822.789174912     A.U. after   15 cycles
 Normal termination of Gaussian 16 at Sun Dec 13 13:31:51 2020.

 ----------------------------------------------------------------------
 # B3LYP/6-311++G(d,p) empiricaldispersion=gd3bj scf=xqc pop=npa geom=c
 heck
 ----------------------------------------------------------------------

 -------------------------------------
 CID_103275688_JID_9711_Energie_kation
 -------------------------------------
 Structure from the checkpoint file:  "JID_9711.chk"
 Charge =  1 Multiplicity = 2

 SCF Done:  E(UB3LYP) =  -822.535862970     A.U. after   26 cycles
 Normal termination of Gaussian 16 at Sun Dec 13 13:53:00 2020.
 Gaussian 16:  ES64L-G16RevA.03 25-Dec-2016

 ----------------------------------------------------------------------
 # B3LYP/6-311++G(d,p) empiricaldispersion=gd3bj scf=xqc pop=npa geom=c
 heck
 ----------------------------------------------------------------------

 ------------------------------------
 CID_103275688_JID_9711_Energie_anion
 ------------------------------------
 Structure from the checkpoint file:  "JID_9711.chk"
 Charge = -1 Multiplicity = 2

                         Standard orientation:
 ---------------------------------------------------------------------
 Center     Atomic      Atomic             Coordinates (Angstroms)
 Number     Number       Type             X           Y           Z
 ---------------------------------------------------------------------
      1          6           0       -5.569983    1.893558   -1.068469
      2          6           0       -4.539611    1.132218   -0.319344
      3          6           0       -4.055552    1.147997    0.948195
      4          7           0       -3.066901    0.174928    1.085883
      5          6           0       -2.992437   -0.383730   -0.083454
      6          8           0       -3.857097    0.137989   -0.995930
      7          6           0       -2.064662   -1.468963   -0.518786
      8          7           0       -1.573104   -2.210734    0.637969
      9          6           0       -0.164031   -2.580384    0.563382
     10          6           0        0.839735   -1.448022    0.369376
     11          6           0        2.035922   -1.684443   -0.331819
     12          6           0        2.977962   -0.679409   -0.459981
     13          6           0        2.738541    0.595275    0.083860
     14          6           0        1.557876    0.854599    0.778215
     15          6           0        0.620787   -0.176746    0.910567
     16          7           0        3.799291    1.463482   -0.206488
     17          6           0        4.952439    0.628398   -0.577416
     18          6           0        4.313557   -0.645599   -1.171499
     19          6           0        4.060335    2.596370    0.653829
     20          1           0       -5.136897    2.414575   -1.930798
     21          1           0       -6.362839    1.235005   -1.443041
     22          1           0       -6.025856    2.639107   -0.411287
     23          1           0       -4.345696    1.783603    1.772475
     24          1           0       -2.593059   -2.131659   -1.218653
     25          1           0       -1.241506   -1.001531   -1.086222
     26          1           0       -1.759196   -1.670172    1.478378
     27          1           0        0.064637   -3.126954    1.488124
     28          1           0       -0.038764   -3.306894   -0.250857
     29          1           0        2.221331   -2.667107   -0.762810
     30          1           0        1.358832    1.829330    1.212502
     31          1           0       -0.306560    0.028354    1.438764
     32          1           0        5.603715    1.160075   -1.278215
     33          1           0        5.546450    0.374633    0.319245
     34          1           0        4.172432   -0.535710   -2.255609
     35          1           0        4.928222   -1.535488   -1.006267
     36          1           0        3.167358    3.223589    0.729195
     37          1           0        4.364541    2.299020    1.673607
     38          1           0        4.859337    3.203858    0.217445
 ---------------------------------------------------------------------

 SCF Done:  E(UB3LYP) =  -822.776960153     A.U. after   33 cycles
 SCF Done:  E(UB3LYP) =  -822.776960153     a.u. after    1 cycles

 The electronic state is 2-A.
 Alpha  occ. eigenvalues --  -19.11322 -14.23887 -14.22715 -14.21821 -10.17836
 Alpha  occ. eigenvalues --  -10.14971 -10.12825 -10.11712 -10.11618 -10.11581
 Alpha  occ. eigenvalues --  -10.10965 -10.10927 -10.09496 -10.09307 -10.08800
 Alpha  occ. eigenvalues --  -10.08626 -10.08468 -10.08179 -10.08108  -1.04826
 Alpha  occ. eigenvalues --   -0.87217  -0.84660  -0.82524  -0.76068  -0.71868
 Alpha  occ. eigenvalues --   -0.70566  -0.67479  -0.64779  -0.63698  -0.60595
 Alpha  occ. eigenvalues --   -0.59280  -0.56750  -0.53629  -0.52521  -0.50037
 Alpha  occ. eigenvalues --   -0.49180  -0.47909  -0.44545  -0.42403  -0.41289
 Alpha  occ. eigenvalues --   -0.40468  -0.39060  -0.38717  -0.38125  -0.36541
 Alpha  occ. eigenvalues --   -0.35828  -0.35317  -0.34661  -0.33803  -0.33039
 Alpha  occ. eigenvalues --   -0.32447  -0.32136  -0.31929  -0.30944  -0.30378
 Alpha  occ. eigenvalues --   -0.29671  -0.29404  -0.28935  -0.28297  -0.27151
 Alpha  occ. eigenvalues --   -0.26423  -0.24936  -0.23865  -0.21391  -0.19754
 Alpha  occ. eigenvalues --   -0.16389  -0.15919  -0.14557  -0.10836   0.03792
 Alpha virt. eigenvalues --    0.04850   0.06235   0.06515   0.06955   0.07198
 Alpha virt. eigenvalues --    0.07557   0.07846   0.08050   0.08604   0.08703
 Alpha virt. eigenvalues --    0.09276   0.09818   0.09928   0.10451   0.10713

  Beta  occ. eigenvalues --  -19.11314 -14.23888 -14.22714 -14.21819 -10.17835
  Beta  occ. eigenvalues --  -10.14970 -10.12823 -10.11710 -10.11587 -10.11578
  Beta  occ. eigenvalues --  -10.10952 -10.10894 -10.09483 -10.09249 -10.08802
  Beta  occ. eigenvalues --  -10.08612 -10.08464 -10.08173 -10.08090  -1.04815
  Beta  occ. eigenvalues --   -0.87206  -0.84655  -0.82519  -0.76050  -0.71847
  Beta  occ. eigenvalues --   -0.70542  -0.67453  -0.64742  -0.63666  -0.60552
  Beta  occ. eigenvalues --   -0.59240  -0.56729  -0.53579  -0.52495  -0.49998
  Beta  occ. eigenvalues --   -0.49165  -0.47895  -0.44523  -0.42371  -0.41272
  Beta  occ. eigenvalues --   -0.40445  -0.39036  -0.38693  -0.38107  -0.36517
  Beta  occ. eigenvalues --   -0.35801  -0.35288  -0.34636  -0.33775  -0.32988
  Beta  occ. eigenvalues --   -0.32412  -0.32111  -0.31901  -0.30922  -0.30350
  Beta  occ. eigenvalues --   -0.29653  -0.29378  -0.28912  -0.28267  -0.27117
  Beta  occ. eigenvalues --   -0.26397  -0.24921  -0.23859  -0.21384  -0.19721
  Beta  occ. eigenvalues --   -0.16320  -0.15905  -0.14548  -0.10805
  Beta virt. eigenvalues --    0.05705   0.06136   0.06488   0.06630   0.07132
  Beta virt. eigenvalues --    0.07337   0.07861   0.08161   0.08499   0.08779
  Beta virt. eigenvalues --    0.09077   0.09582   0.09966   0.10207   0.10657

 Mulliken charges and spin densities:
               1          2
     1  C    2.532714  -2.986020
     2  C   -0.899655   1.485141
     3  C   -0.428331   0.125055
     4  N   -0.060540   0.048413
     5  C   -0.442197   0.076125
     6  O   -0.048325   0.039576
     7  C    0.093053  -0.699589
     8  N   -0.049713   0.001725
     9  C   -0.602626  -0.139770
    10  C    0.972862  -0.168980
    11  C   -0.809951   0.787895
    12  C   -0.045502   0.431948
    13  C    0.191377  -0.922833
    14  C   -0.257384  -0.128785
    15  C   -0.125434  -0.209357
    16  N   -0.098254   0.255026
    17  C    0.435093  -0.795713
    18  C   -0.158387  -0.177780
    19  C    0.383373  -0.753429
    20  H   -0.290052   0.454956
    21  H   -0.304701   0.465184
    22  H   -0.602736   0.781290
    23  H   -0.443297   0.603429
    24  H    0.120317   0.074011
    25  H    0.145746   0.023957
    26  H    0.254196   0.002847
    27  H    0.153714   0.011191
    28  H    0.145583   0.017659
    29  H    0.059610   0.088128
    30  H    0.046579   0.123604
    31  H    0.154482  -0.004620
    32  H   -0.354017   0.551613
    33  H   -0.110721   0.241778
    34  H    0.048888   0.117720
    35  H   -0.015303   0.160242
    36  H   -0.211251   0.348295
    37  H   -0.002484   0.143167
    38  H   -0.376725   0.526905
 Sum of Mulliken charges =  -1.00000   1.00000

 Dipole moment (field-independent basis, Debye):
    X=              2.4605    Y=             -7.1421    Z=              1.0863  Tot=              7.6317
 Quadrupole moment (field-independent basis, Debye-Ang):
   XX=           -265.0064   YY=           -164.0508   ZZ=           -146.0358
   XY=              4.5918   XZ=             -0.4367   YZ=              5.9355

 Summary of Natural Population Analysis:

                                       Natural Population
                Natural  -----------------------------------------------
    Atom  No    Charge         Core      Valence    Rydberg      Total
 -----------------------------------------------------------------------
      C    1   -0.30785      0.99963     2.30232    0.00591     3.30785
      C    2    0.13764      0.99947     1.84913    0.01376     2.86236
      C    3   -0.04625      0.99948     2.03305    0.01372     3.04625
      N    4   -0.26690      0.99967     2.75734    0.00989     3.76690
      C    5    0.26802      0.99959     1.71268    0.01971     2.73198
      O    6   -0.24066      0.99985     3.23345    0.00736     4.24066
      C    7   -0.11714      0.99958     2.10747    0.01009     3.11714
      N    8   -0.33957      0.99975     2.82880    0.01102     3.83957
      C    9   -0.08874      0.99960     2.07859    0.01056     3.08874
      C   10   -0.04550      0.99951     2.03776    0.00822     3.04550
      C   11   -0.09440      0.99947     2.08704    0.00789     3.09440
      C   12   -0.02727      0.99948     2.01754    0.01025     3.02727
      C   13    0.09378      0.99943     1.89548    0.01130     2.90622
      C   14   -0.11938      0.99952     2.11106    0.00880     3.11938
      C   15   -0.09931      0.99952     2.09156    0.00822     3.09931
      N   16   -0.25517      0.99966     2.74357    0.01195     3.75517
      C   17   -0.07376      0.99963     2.06320    0.01092     3.07376
      C   18   -0.19960      0.99961     2.19133    0.00866     3.19960
      C   19   -0.17628      0.99965     2.16765    0.00899     3.17628
      H   20    0.11055      0.00000     0.38783    0.00162     0.38945
      H   21    0.10957      0.00000     0.38877    0.00166     0.39043
      H   22    0.11454      0.00000     0.38283    0.00263     0.38546
      H   23    0.10395      0.00000     0.39492    0.00113     0.39605
      H   24    0.09961      0.00000     0.39880    0.00159     0.40039
      H   25    0.10500      0.00000     0.39347    0.00154     0.39500
      H   26    0.18577      0.00000     0.31114    0.00309     0.31423
      H   27    0.09830      0.00000     0.40065    0.00105     0.40170
      H   28    0.09090      0.00000     0.40797    0.00113     0.40910
      H   29    0.09598      0.00000     0.40251    0.00151     0.40402
      H   30    0.10413      0.00000     0.39486    0.00101     0.39587
      H   31    0.10603      0.00000     0.39180    0.00216     0.39397
      H   32    0.09927      0.00000     0.39863    0.00210     0.40073
      H   33    0.08275      0.00000     0.41560    0.00165     0.41725
      H   34    0.10321      0.00000     0.39552    0.00127     0.39679
      H   35    0.10419      0.00000     0.39494    0.00087     0.39581
      H   36    0.09881      0.00000     0.39987    0.00132     0.40119
      H   37    0.08515      0.00000     0.41331    0.00153     0.41485
      H   38    0.10062      0.00000     0.39790    0.00148     0.39938
 =======================================================================
   * Total *   -0.00000     18.99212    49.78032    0.22757    69.00000

 Normal termination of Gaussian 16 at Sun Dec 13 14:19:06 2020.
