 Gaussian 16, Revision A.03,

 -----------------------------------------------------------
 # opt freq B3LYP/6-31G(d) empiricaldispersion=gd3bj scf=xqc
 -----------------------------------------------------------

 ------------------------------
 CID_64668287_JID_4299_neutraal
 ------------------------------
 Symbolic Z-matrix:
 Charge =  0 Multiplicity = 1

 SCF Done:  E(RB3LYP) =  -629.511208775     A.U. after   15 cycles
 SCF Done:  E(RB3LYP) =  -629.519936606     A.U. after   12 cycles
 SCF Done:  E(RB3LYP) =  -629.520746262     A.U. after   12 cycles
 SCF Done:  E(RB3LYP) =  -629.521431584     A.U. after   12 cycles
 SCF Done:  E(RB3LYP) =  -629.521878439     A.U. after   12 cycles
 SCF Done:  E(RB3LYP) =  -629.522402037     A.U. after   14 cycles
 SCF Done:  E(RB3LYP) =  -629.523023001     A.U. after   14 cycles
 SCF Done:  E(RB3LYP) =  -629.523650605     A.U. after   12 cycles
 SCF Done:  E(RB3LYP) =  -629.523891976     A.U. after   12 cycles
 SCF Done:  E(RB3LYP) =  -629.524312754     A.U. after   13 cycles
 SCF Done:  E(RB3LYP) =  -629.524451538     A.U. after    9 cycles
 SCF Done:  E(RB3LYP) =  -629.524458918     A.U. after   11 cycles
 SCF Done:  E(RB3LYP) =  -629.524460468     A.U. after    8 cycles
 SCF Done:  E(RB3LYP) =  -629.524461874     A.U. after    9 cycles
 SCF Done:  E(RB3LYP) =  -629.524461925     A.U. after    7 cycles
 Optimization completed.
    -- Stationary point found.
 Normal termination of Gaussian 16 at Thu Dec 10 09:27:09 2020.

 --------------------------------------------------------------------
 #N Geom=AllCheck Guess=TCheck SCRF=Check GenChk RB3LYP/6-31G(d) Freq
 --------------------------------------------------------------------

 Structure from the checkpoint file:  "JID_4299.chk"
 ------------------------------
 CID_64668287_JID_4299_neutraal
 ------------------------------
 Charge =  0 Multiplicity = 1

 SCF Done:  E(RB3LYP) =  -629.524461925     A.U. after    1 cycles

  Exact polarizability: 145.653  -5.002 103.905  -0.069   4.546 104.531
 Approx polarizability: 191.221 -11.234 154.308  -1.624  19.744 170.694

                      1                      2                      3
                      A                      A                      A
 Frequencies --     28.2861                74.1504                83.2400
 Red. masses --      4.0958                 2.7363                 3.2077
 Frc consts  --      0.0019                 0.0089                 0.0131
 IR Inten    --      0.3933                 0.2600                 0.3950

                      4                      5                      6
                      A                      A                      A
 Frequencies --     93.4485               112.2324               161.7206
 Red. masses --      4.5360                 3.8925                 3.4025
 Frc consts  --      0.0233                 0.0289                 0.0524
 IR Inten    --      0.2112                 0.7143                 1.2984

                      7                      8                      9
                      A                      A                      A
 Frequencies --    212.8569               220.5525               250.7402
 Red. masses --      2.2638                 2.0740                 1.3997
 Frc consts  --      0.0604                 0.0594                 0.0518
 IR Inten    --      7.8583                 1.1453                 3.5223

                     10                     11                     12
                      A                      A                      A
 Frequencies --    265.6746               279.9474               335.1467
 Red. masses --      1.8235                 1.5682                 3.6377
 Frc consts  --      0.0758                 0.0724                 0.2407
 IR Inten    --     30.1159                15.5519                 1.0326

                     13                     14                     15
                      A                      A                      A
 Frequencies --    355.6014               388.2157               419.9206
 Red. masses --      3.0358                 3.8150                 3.6948
 Frc consts  --      0.2262                 0.3388                 0.3839
 IR Inten    --      9.8369                 4.1376                 1.6761

                     16                     17                     18
                      A                      A                      A
 Frequencies --    446.8489               483.0402               535.9707
 Red. masses --      5.0119                 3.9544                 3.5334
 Frc consts  --      0.5896                 0.5436                 0.5980
 IR Inten    --      7.2948                 1.3553                 3.4966

                     19                     20                     21
                      A                      A                      A
 Frequencies --    566.0221               682.3414               726.0632
 Red. masses --      3.4254                 2.7603                 6.0742
 Frc consts  --      0.6466                 0.7572                 1.8866
 IR Inten    --      2.4547                 5.1950                 0.5014

                     22                     23                     24
                      A                      A                      A
 Frequencies --    780.3218               797.6897               804.9863
 Red. masses --      1.4973                 3.0620                 1.0922
 Frc consts  --      0.5372                 1.1480                 0.4170
 IR Inten    --      3.8673                16.3695                 0.8865

                     25                     26                     27
                      A                      A                      A
 Frequencies --    833.6612               839.7699               841.7559
 Red. masses --      1.5284                 1.7656                 1.2393
 Frc consts  --      0.6258                 0.7336                 0.5174
 IR Inten    --     21.7516                16.4817                 9.8282

                     28                     29                     30
                      A                      A                      A
 Frequencies --    896.6890               921.4391               924.4374
 Red. masses --      7.8661                 2.6685                 2.7821
 Frc consts  --      3.7264                 1.3349                 1.4008
 IR Inten    --     16.4560                25.4271                 0.1413

                     31                     32                     33
                      A                      A                      A
 Frequencies --    928.7932               938.3493               956.4341
 Red. masses --      3.8433                 2.0403                 3.4881
 Frc consts  --      1.9534                 1.0585                 1.8800
 IR Inten    --     37.3833                81.7818                20.1728

                     34                     35                     36
                      A                      A                      A
 Frequencies --    983.6208              1027.7522              1039.4394
 Red. masses --      2.1248                 7.9273                 2.9619
 Frc consts  --      1.2112                 4.9335                 1.8855
 IR Inten    --      4.2034                 3.1709                14.3017

                     37                     38                     39
                      A                      A                      A
 Frequencies --   1068.0782              1069.0180              1074.6843
 Red. masses --      1.6268                 1.3586                 1.3718
 Frc consts  --      1.0934                 0.9148                 0.9335
 IR Inten    --      6.4637                 3.3152                18.7416

                     40                     41                     42
                      A                      A                      A
 Frequencies --   1092.0730              1094.0034              1096.6520
 Red. masses --      1.3733                 1.4521                 1.3467
 Frc consts  --      0.9650                 1.0239                 0.9542
 IR Inten    --      1.4069                18.7704                 2.2419

                     43                     44                     45
                      A                      A                      A
 Frequencies --   1110.6130              1136.7815              1146.5835
 Red. masses --      1.6028                 1.1027                 1.1092
 Frc consts  --      1.1648                 0.8395                 0.8591
 IR Inten    --     29.3626                 2.0355                 0.6217

                     46                     47                     48
                      A                      A                      A
 Frequencies --   1200.9152              1206.4882              1215.6551
 Red. masses --      2.6087                 2.0560                 1.7152
 Frc consts  --      2.2167                 1.7633                 1.4934
 IR Inten    --     18.7873                24.3229                 6.5461

                     49                     50                     51
                      A                      A                      A
 Frequencies --   1217.5758              1231.5277              1250.2765
 Red. masses --      1.3749                 2.1745                 1.9870
 Frc consts  --      1.2009                 1.9431                 1.8301
 IR Inten    --      0.3984                 2.7591                 5.9007

                     52                     53                     54
                      A                      A                      A
 Frequencies --   1304.2133              1352.3555              1364.9883
 Red. masses --      3.2030                 2.2901                 1.7653
 Frc consts  --      3.2100                 2.4676                 1.9378
 IR Inten    --      5.5776                26.1170                30.7935

                     55                     56                     57
                      A                      A                      A
 Frequencies --   1402.4804              1429.7150              1439.8935
 Red. masses --      2.3591                 2.5351                 1.4245
 Frc consts  --      2.7340                 3.0531                 1.7401
 IR Inten    --     71.7267                15.8747                14.5691

                     58                     59                     60
                      A                      A                      A
 Frequencies --   1486.5795              1500.2239              1520.4835
 Red. masses --      1.0879                 1.0907                 1.0720
 Frc consts  --      1.4165                 1.4463                 1.4602
 IR Inten    --      2.1897                 3.7898                 3.6221

                     61                     62                     63
                      A                      A                      A
 Frequencies --   1523.1054              1524.2075              1538.7759
 Red. masses --      1.3034                 1.0693                 1.3271
 Frc consts  --      1.7815                 1.4637                 1.8514
 IR Inten    --      6.5244                 4.8207                 3.1683

                     64                     65                     66
                      A                      A                      A
 Frequencies --   1581.2949              1627.8000              1687.3660
 Red. masses --      6.9189                 7.6591                 1.1151
 Frc consts  --     10.1933                11.9572                 1.8706
 IR Inten    --     13.5068               112.5943                40.2126

                     67                     68                     69
                      A                      A                      A
 Frequencies --   3065.3535              3132.9913              3137.5360
 Red. masses --      1.0379                 1.0899                 1.0952
 Frc consts  --      5.7462                 6.3033                 6.3519
 IR Inten    --     19.4923                 7.2733                34.2559

                     70                     71                     72
                      A                      A                      A
 Frequencies --   3151.8663              3155.3173              3158.6495
 Red. masses --      1.0511                 1.0604                 1.0507
 Frc consts  --      6.1523                 6.2205                 6.1761
 IR Inten    --     14.4530                11.7923                14.7250

                     73                     74                     75
                      A                      A                      A
 Frequencies --   3160.9902              3161.4538              3203.5992
 Red. masses --      1.0579                 1.1044                 1.0905
 Frc consts  --      6.2281                 6.5034                 6.5939
 IR Inten    --      8.7943                12.9767                 2.8932

                     76                     77                     78
                      A                      A                      A
 Frequencies --   3226.5370              3239.2419              3239.9154
 Red. masses --      1.1192                 1.1158                 1.1203
 Frc consts  --      6.8647                 6.8979                 6.9289
 IR Inten    --      1.7202                17.4808                 0.4845

                     79                     80                     81
                      A                      A                      A
 Frequencies --   3253.0042              3460.6039              3550.9966
 Red. masses --      1.1166                 1.0496                 1.0922
 Frc consts  --      6.9617                 7.4056                 8.1142
 IR Inten    --     12.7207                 1.8175                 0.1704

 - Thermochemistry -
 -------------------
 Temperature   298.150 Kelvin.  Pressure   1.00000 Atm.
 Atom     1 has atomic number  6 and mass  12.00000

 Molecular mass:   193.12151 amu.
 Principal axes and moments of inertia in atomic units:
                           1         2         3
     Eigenvalues --  1483.496973975.670994178.20372
           X            0.99995  -0.00873  -0.00537
           Y            0.00830   0.99713  -0.07522
           Z            0.00601   0.07517   0.99715
 This molecule is an asymmetric top.
 Rotational symmetry number  1.
 Warning -- assumption of classical behavior for rotation
           may cause significant error
 Rotational temperatures (Kelvin)      0.05838     0.02179     0.02073
 Rotational constants (GHZ):           1.21655     0.45395     0.43194
 Zero-point vibrational energy     646160.6 (Joules/Mol)
                                  154.43610 (Kcal/Mol)
 Warning -- explicit consideration of  19 degrees of freedom as
           vibrations may cause significant error
 Vibrational temperatures:     40.70   106.69   119.76   134.45   161.48
          (Kelvin)            232.68   306.25   317.33   360.76   382.25
                              402.78   482.20   511.63   558.56   604.17
                              642.92   694.99   771.14   814.38   981.74
                             1044.64  1122.71  1147.70  1158.20  1199.45
                             1208.24  1211.10  1290.14  1325.75  1330.06
                             1336.33  1350.08  1376.10  1415.21  1478.71
                             1495.52  1536.73  1538.08  1546.23  1571.25
                             1574.03  1577.84  1597.92  1635.57  1649.68
                             1727.85  1735.87  1749.06  1751.82  1771.89
                             1798.87  1876.47  1945.74  1963.91  2017.86
                             2057.04  2071.69  2138.86  2158.49  2187.64
                             2191.41  2192.99  2213.96  2275.13  2342.04
                             2427.74  4410.36  4507.68  4514.21  4534.83
                             4539.80  4544.59  4547.96  4548.63  4609.26
                             4642.27  4660.55  4661.52  4680.35  4979.04
                             5109.09

 Zero-point correction=                           0.246110 (Hartree/Particle)
 Thermal correction to Energy=                    0.259619
 Thermal correction to Enthalpy=                  0.260563
 Thermal correction to Gibbs Free Energy=         0.205485
 Sum of electronic and zero-point Energies=           -629.278352
 Sum of electronic and thermal Energies=              -629.264843
 Sum of electronic and thermal Enthalpies=            -629.263899
 Sum of electronic and thermal Free Energies=         -629.318977

                     E (Thermal)             CV                S
                      KCal/Mol        Cal/Mol-Kelvin    Cal/Mol-Kelvin
 Total                  162.913             51.713            115.920
 Electronic               0.000              0.000              0.000
 Translational            0.889              2.981             41.680
 Rotational               0.889              2.981             31.578
 Vibrational            161.136             45.751             42.663
 Vibration     1          0.593              1.984              5.946
 Vibration     2          0.599              1.966              4.040
 Vibration     3          0.600              1.961              3.813
 Vibration     4          0.602              1.954              3.587
 Vibration     5          0.607              1.939              3.230
 Vibration     6          0.622              1.889              2.530
 Vibration     7          0.644              1.821              2.019
 Vibration     8          0.647              1.810              1.955
 Vibration     9          0.663              1.762              1.725
 Vibration    10          0.671              1.736              1.624
 Vibration    11          0.680              1.711              1.534
 Vibration    12          0.716              1.605              1.235
 Vibration    13          0.731              1.564              1.141
 Vibration    14          0.756              1.495              1.007
 Vibration    15          0.783              1.427              0.892
 Vibration    16          0.806              1.368              0.805
 Vibration    17          0.839              1.288              0.702
 Vibration    18          0.891              1.170              0.574
 Vibration    19          0.922              1.105              0.512

 Optimization completed.
    -- Stationary point found.
 Normal termination of Gaussian 16 at Thu Dec 10 09:35:50 2020.

 ----------------------------------------------------------------------
 # B3LYP/6-311++G(d,p) empiricaldispersion=gd3bj scf=xqc pop=npa geom=c
 heck
 ----------------------------------------------------------------------

 --------------------------------------
 CID_64668287_JID_4299_Energie_neutraal
 --------------------------------------
 Structure from the checkpoint file:  "JID_4299.chk"
 Charge =  0 Multiplicity = 1

 SCF Done:  E(RB3LYP) =  -629.699460603     A.U. after   14 cycles
 Normal termination of Gaussian 16 at Thu Dec 10 09:39:33 2020.

 ----------------------------------------------------------------------
 # B3LYP/6-311++G(d,p) empiricaldispersion=gd3bj scf=xqc pop=npa geom=c
 heck
 ----------------------------------------------------------------------

 ------------------------------------
 CID_64668287_JID_4299_Energie_kation
 ------------------------------------
 Structure from the checkpoint file:  "JID_4299.chk"
 Charge =  1 Multiplicity = 2

 SCF Done:  E(UB3LYP) =  -629.372584057     A.U. after   24 cycles
 Normal termination of Gaussian 16 at Thu Dec 10 09:48:33 2020.
 Gaussian 16:  ES64L-G16RevA.03 25-Dec-2016

 ----------------------------------------------------------------------
 # B3LYP/6-311++G(d,p) empiricaldispersion=gd3bj scf=xqc pop=npa geom=c
 heck
 ----------------------------------------------------------------------

 -----------------------------------
 CID_64668287_JID_4299_Energie_anion
 -----------------------------------
 Structure from the checkpoint file:  "JID_4299.chk"
 Charge = -1 Multiplicity = 2

                         Standard orientation:
 ---------------------------------------------------------------------
 Center     Atomic      Atomic             Coordinates (Angstroms)
 Number     Number       Type             X           Y           Z
 ---------------------------------------------------------------------
      1          6           0        2.661247   -1.611733    0.189674
      2          6           0        1.790988   -0.400728    0.558087
      3          6           0        2.433150    0.877794   -0.011842
      4          6           0        2.127974    1.424049   -1.383054
      5          6           0        1.676105    2.172713   -0.150440
      6          6           0        0.399023   -0.566638    0.004356
      7          7           0       -0.699909   -0.034732    0.457196
      8          6           0       -1.647292   -0.467267   -0.454010
      9          7           0       -1.168848   -1.217862   -1.417595
     10          8           0        0.213835   -1.286746   -1.111681
     11          6           0       -3.069554   -0.117642   -0.352991
     12          6           0       -3.690914    0.015703    1.025745
     13          6           0       -3.450568    1.243059    0.202036
     14          7           0        1.649152   -0.357754    2.023971
     15          1           0        2.774685   -1.699707   -0.893513
     16          1           0        2.222661   -2.531454    0.584335
     17          1           0        3.655845   -1.486199    0.631645
     18          1           0        3.470074    0.964619    0.312342
     19          1           0        2.950236    1.828606   -1.966171
     20          1           0        1.370615    0.922244   -1.978346
     21          1           0        0.615117    2.166838    0.081148
     22          1           0        2.189043    3.093096    0.113658
     23          1           0       -3.682211   -0.530486   -1.147326
     24          1           0       -4.707770   -0.345593    1.145569
     25          1           0       -3.035358   -0.160043    1.872646
     26          1           0       -2.634562    1.895553    0.495990
     27          1           0       -4.298482    1.742955   -0.256325
     28          1           0        2.552797   -0.102628    2.421875
     29          1           0        1.002910    0.392735    2.265551
 ---------------------------------------------------------------------

 SCF Done:  E(UB3LYP) =  -629.685724371     A.U. after   33 cycles
 SCF Done:  E(UB3LYP) =  -629.685724371     a.u. after    1 cycles

 The electronic state is 2-A.
 Alpha  occ. eigenvalues --  -19.12479 -14.27052 -14.22772 -14.20073 -10.18380
 Alpha  occ. eigenvalues --  -10.15288 -10.14006 -10.10650 -10.09200 -10.09086
 Alpha  occ. eigenvalues --  -10.08774 -10.07955 -10.07544 -10.07155  -1.07079
 Alpha  occ. eigenvalues --   -0.85321  -0.82313  -0.78316  -0.76540  -0.75899
 Alpha  occ. eigenvalues --   -0.65775  -0.58163  -0.57279  -0.52695  -0.51923
 Alpha  occ. eigenvalues --   -0.50876  -0.49885  -0.47385  -0.42420  -0.42293
 Alpha  occ. eigenvalues --   -0.40094  -0.39553  -0.38121  -0.37749  -0.36099
 Alpha  occ. eigenvalues --   -0.33984  -0.30993  -0.30460  -0.29284  -0.28897
 Alpha  occ. eigenvalues --   -0.28765  -0.27637  -0.26856  -0.26294  -0.24934
 Alpha  occ. eigenvalues --   -0.22508  -0.21759  -0.21458  -0.20972  -0.19924
 Alpha  occ. eigenvalues --   -0.17995  -0.15423   0.04266
 Alpha virt. eigenvalues --    0.05533   0.06213   0.07529   0.07792   0.08316
 Alpha virt. eigenvalues --    0.08733   0.09175   0.10251   0.11053   0.11221
 Alpha virt. eigenvalues --    0.11689   0.12059   0.12250   0.13082   0.13749

  Beta  occ. eigenvalues --  -19.12450 -14.27023 -14.22770 -14.20041 -10.18338
  Beta  occ. eigenvalues --  -10.15282 -10.14009 -10.10644 -10.09185 -10.09060
  Beta  occ. eigenvalues --  -10.08749 -10.07946 -10.07528 -10.07133  -1.07030
  Beta  occ. eigenvalues --   -0.85292  -0.82270  -0.78285  -0.76496  -0.75854
  Beta  occ. eigenvalues --   -0.65733  -0.58131  -0.57213  -0.52653  -0.51863
  Beta  occ. eigenvalues --   -0.50834  -0.49852  -0.47343  -0.42349  -0.42245
  Beta  occ. eigenvalues --   -0.40030  -0.39504  -0.38065  -0.37681  -0.36050
  Beta  occ. eigenvalues --   -0.33947  -0.30959  -0.30418  -0.29253  -0.28852
  Beta  occ. eigenvalues --   -0.28721  -0.27609  -0.26812  -0.26234  -0.24892
  Beta  occ. eigenvalues --   -0.22478  -0.21681  -0.21428  -0.20949  -0.19899
  Beta  occ. eigenvalues --   -0.17872  -0.15390
  Beta virt. eigenvalues --    0.06553   0.06646   0.07060   0.08042   0.08259
  Beta virt. eigenvalues --    0.08912   0.09168   0.09580   0.10617   0.11264
  Beta virt. eigenvalues --    0.11638   0.11911   0.12285   0.12601   0.13301

 Mulliken charges and spin densities:
               1          2
     1  C    0.751974  -1.303722
     2  C   -0.047734  -0.062538
     3  C   -1.015567   1.046757
     4  C    0.187172  -0.593268
     5  C    0.444190  -0.861440
     6  C   -0.506159  -0.901234
     7  N    0.000902   0.099821
     8  C    1.810214  -1.153549
     9  N   -0.385143   0.053722
    10  O    0.228215   0.021495
    11  C   -1.100651   1.611389
    12  C    0.706352  -1.169243
    13  C    0.646692  -1.092737
    14  N   -0.347797   0.129846
    15  H    0.120560   0.048976
    16  H    0.151059   0.021593
    17  H   -0.345827   0.502140
    18  H   -0.999123   1.261336
    19  H   -0.049550   0.216306
    20  H    0.043331   0.125294
    21  H    0.022591   0.078414
    22  H   -0.471572   0.648239
    23  H   -0.333140   0.614558
    24  H   -0.224758   0.383264
    25  H    0.091279   0.074562
    26  H    0.089495   0.065700
    27  H   -0.434770   0.601196
    28  H   -0.073336   0.328919
    29  H    0.041100   0.204206
 Sum of Mulliken charges =  -1.00000   1.00000

 Dipole moment (field-independent basis, Debye):
    X=             -1.4034    Y=             -2.5776    Z=             -1.7091  Tot=              3.3963
 Quadrupole moment (field-independent basis, Debye-Ang):
   XX=           -181.0723   YY=           -123.1503   ZZ=           -120.4872
   XY=             -4.6221   XZ=            -11.8142   YZ=             -2.3690

 Summary of Natural Population Analysis:

                                       Natural Population
                Natural  -----------------------------------------------
    Atom  No    Charge         Core      Valence    Rydberg      Total
 -----------------------------------------------------------------------
      C    1   -0.28095      0.99963     2.27406    0.00726     3.28095
      C    2    0.02301      0.99950     1.96268    0.01481     2.97699
      C    3   -0.11673      0.99955     2.10074    0.01644     3.11673
      C    4   -0.20021      0.99961     2.19190    0.00870     3.20021
      C    5   -0.20075      0.99962     2.19132    0.00981     3.20075
      C    6    0.31081      0.99956     1.66811    0.02153     2.68919
      N    7   -0.27680      0.99966     2.76913    0.00802     3.77680
      C    8    0.17873      0.99961     1.80275    0.01891     2.82127
      N    9   -0.09242      0.99967     2.58128    0.01146     3.59242
      O   10   -0.16998      0.99985     3.16258    0.00756     4.16998
      C   11   -0.13806      0.99955     2.12676    0.01175     3.13806
      C   12   -0.18769      0.99963     2.18043    0.00763     3.18769
      C   13   -0.18732      0.99963     2.17837    0.00933     3.18732
      N   14   -0.41634      0.99976     2.90623    0.01035     3.91634
      H   15    0.10554      0.00000     0.39327    0.00119     0.39446
      H   16    0.10518      0.00000     0.39387    0.00094     0.39482
      H   17    0.10385      0.00000     0.39498    0.00117     0.39615
      H   18    0.11090      0.00000     0.38512    0.00398     0.38910
      H   19    0.10388      0.00000     0.39525    0.00087     0.39612
      H   20    0.10407      0.00000     0.39478    0.00114     0.39593
      H   21    0.10808      0.00000     0.39041    0.00151     0.39192
      H   22    0.10562      0.00000     0.39292    0.00146     0.39438
      H   23    0.11647      0.00000     0.38225    0.00128     0.38353
      H   24    0.10486      0.00000     0.39398    0.00116     0.39514
      H   25    0.10928      0.00000     0.38959    0.00113     0.39072
      H   26    0.10912      0.00000     0.38968    0.00119     0.39088
      H   27    0.10700      0.00000     0.39097    0.00203     0.39300
      H   28    0.17832      0.00000     0.31882    0.00286     0.32168
      H   29    0.18250      0.00000     0.31524    0.00226     0.31750
 =======================================================================
   * Total *   -0.00000     13.99481    37.81745    0.18773    52.00000

 Normal termination of Gaussian 16 at Thu Dec 10 10:00:57 2020.
