 Gaussian 16, Revision A.03,

 -----------------------------------------------------------
 # opt freq B3LYP/6-31G(d) empiricaldispersion=gd3bj scf=xqc
 -----------------------------------------------------------

 ------------------------------
 CID_82474419_JID_6447_neutraal
 ------------------------------
 Symbolic Z-matrix:
 Charge =  0 Multiplicity = 1

 SCF Done:  E(RB3LYP) =  -1042.41862651     A.U. after   15 cycles
 SCF Done:  E(RB3LYP) =  -1042.42276769     A.U. after   12 cycles
 SCF Done:  E(RB3LYP) =  -1042.42338455     A.U. after   12 cycles
 SCF Done:  E(RB3LYP) =  -1042.42355405     A.U. after   11 cycles
 SCF Done:  E(RB3LYP) =  -1042.42366008     A.U. after   11 cycles
 SCF Done:  E(RB3LYP) =  -1042.42372582     A.U. after   12 cycles
 SCF Done:  E(RB3LYP) =  -1042.42374671     A.U. after   10 cycles
 SCF Done:  E(RB3LYP) =  -1042.42375514     A.U. after   10 cycles
 SCF Done:  E(RB3LYP) =  -1042.42375667     A.U. after    9 cycles
 SCF Done:  E(RB3LYP) =  -1042.42375704     A.U. after    8 cycles
 SCF Done:  E(RB3LYP) =  -1042.42375709     A.U. after    7 cycles
 SCF Done:  E(RB3LYP) =  -1042.42375712     A.U. after    7 cycles
 Optimization completed.
    -- Stationary point found.
 Normal termination of Gaussian 16 at Thu Dec 10 22:48:37 2020.

 --------------------------------------------------------------------
 #N Geom=AllCheck Guess=TCheck SCRF=Check GenChk RB3LYP/6-31G(d) Freq
 --------------------------------------------------------------------

 Structure from the checkpoint file:  "JID_6447.chk"
 ------------------------------
 CID_82474419_JID_6447_neutraal
 ------------------------------
 Charge =  0 Multiplicity = 1

 SCF Done:  E(RB3LYP) =  -1042.42375712     A.U. after    1 cycles

  Exact polarizability: 249.551 -10.052 164.789   0.260  -1.338  63.588
 Approx polarizability: 360.288 -19.989 294.765  -0.317  -1.200 102.724

                      1                      2                      3
                      A                      A                      A
 Frequencies --     19.3556                65.7113               104.2829
 Red. masses --      4.6140                 5.7066                 5.3372
 Frc consts  --      0.0010                 0.0145                 0.0342
 IR Inten    --      0.6702                 1.8008                 1.0937

                      4                      5                      6
                      A                      A                      A
 Frequencies --    152.1128               189.7241               197.0128
 Red. masses --      3.9500                 1.4228                 2.4055
 Frc consts  --      0.0538                 0.0302                 0.0550
 IR Inten    --      1.8885                 1.2874                 3.7663

                      7                      8                      9
                      A                      A                      A
 Frequencies --    217.7912               228.2768               250.4241
 Red. masses --      3.3465                 2.9119                 2.6450
 Frc consts  --      0.0935                 0.0894                 0.0977
 IR Inten    --      5.0295                 7.4301                13.9502

                     10                     11                     12
                      A                      A                      A
 Frequencies --    278.7752               289.8296               333.8877
 Red. masses --      7.0326                 2.0644                 5.2375
 Frc consts  --      0.3220                 0.1022                 0.3440
 IR Inten    --      2.0744                16.2387                 0.6169

                     13                     14                     15
                      A                      A                      A
 Frequencies --    352.5946               454.6966               466.2128
 Red. masses --      3.4794                 3.9428                 3.0993
 Frc consts  --      0.2549                 0.4803                 0.3969
 IR Inten    --      0.4336                 0.9857                 1.2420

                     16                     17                     18
                      A                      A                      A
 Frequencies --    509.1340               534.1128               548.0192
 Red. masses --      6.0939                 4.4343                 7.4563
 Frc consts  --      0.9307                 0.7453                 1.3194
 IR Inten    --      1.4410                 3.1264                26.4411

                     19                     20                     21
                      A                      A                      A
 Frequencies --    557.9813               575.7623               615.8985
 Red. masses --      2.4101                 6.6390                 1.8205
 Frc consts  --      0.4421                 1.2967                 0.4069
 IR Inten    --     40.0522                 2.2533                65.9390

                     22                     23                     24
                      A                      A                      A
 Frequencies --    636.1862               663.4709               676.5034
 Red. masses --      3.2183                 6.0455                 2.1705
 Frc consts  --      0.7674                 1.5679                 0.5853
 IR Inten    --     19.5988                 5.1586               180.8901

                     25                     26                     27
                      A                      A                      A
 Frequencies --    686.6949               724.7182               742.9838
 Red. masses --      5.7723                 4.7504                 5.9257
 Frc consts  --      1.6037                 1.4700                 1.9273
 IR Inten    --     55.0021                 0.3085                 1.5527

                     28                     29                     30
                      A                      A                      A
 Frequencies --    750.4260               796.1903               823.0913
 Red. masses --      1.7104                 2.4777                 3.8567
 Frc consts  --      0.5675                 0.9254                 1.5395
 IR Inten    --     37.2171                 8.0320                19.0125

                     31                     32                     33
                      A                      A                      A
 Frequencies --    827.7072               886.2667               957.0114
 Red. masses --      4.9207                 1.3286                 1.3590
 Frc consts  --      1.9862                 0.6149                 0.7333
 IR Inten    --      1.9008                 0.2171                 1.0971

                     34                     35                     36
                      A                      A                      A
 Frequencies --    986.1038               988.5553              1028.8317
 Red. masses --      1.9501                 2.6490                 1.5938
 Frc consts  --      1.1173                 1.5252                 0.9940
 IR Inten    --      0.1377                 0.2125                 1.3155

                     37                     38                     39
                      A                      A                      A
 Frequencies --   1074.4631              1077.2913              1084.6063
 Red. masses --      2.9418                 1.5402                 2.4440
 Frc consts  --      2.0010                 1.0532                 1.6939
 IR Inten    --      5.9814                 3.1865                15.1678

                     40                     41                     42
                      A                      A                      A
 Frequencies --   1118.7597              1147.7092              1167.9742
 Red. masses --      3.8030                 1.9087                 1.8009
 Frc consts  --      2.8044                 1.4813                 1.4475
 IR Inten    --     14.5915                 0.9274                13.4253

                     43                     44                     45
                      A                      A                      A
 Frequencies --   1199.6054              1219.9052              1235.7966
 Red. masses --      1.1033                 1.8520                 2.4865
 Frc consts  --      0.9355                 1.6238                 2.2373
 IR Inten    --      1.3343                17.8928                 0.4939

                     46                     47                     48
                      A                      A                      A
 Frequencies --   1285.1398              1301.8705              1344.7607
 Red. masses --      3.7559                 2.2892                 3.7266
 Frc consts  --      3.6548                 2.2860                 3.9706
 IR Inten    --      7.3245                16.2200                21.8562

                     49                     50                     51
                      A                      A                      A
 Frequencies --   1352.9246              1368.4387              1447.7385
 Red. masses --      4.2326                 9.5474                 1.4546
 Frc consts  --      4.5646                10.5338                 1.7963
 IR Inten    --     83.2687                19.6995                 1.8545

                     52                     53                     54
                      A                      A                      A
 Frequencies --   1453.5330              1473.7173              1507.5572
 Red. masses --      2.5995                 3.2514                 1.3938
 Frc consts  --      3.2359                 4.1605                 1.8664
 IR Inten    --     11.2208                32.1268                21.0541

                     55                     56                     57
                      A                      A                      A
 Frequencies --   1509.2325              1518.0607              1519.4237
 Red. masses --      1.7085                 1.8707                 2.5570
 Frc consts  --      2.2929                 2.5400                 3.4781
 IR Inten    --     35.2120                55.4936               192.5438

                     58                     59                     60
                      A                      A                      A
 Frequencies --   1553.9043              1633.1541              1656.8284
 Red. masses --      3.1144                 6.0744                 1.5246
 Frc consts  --      4.4307                 9.5457                 2.4658
 IR Inten    --     20.3901                 2.5550                23.5966

                     61                     62                     63
                      A                      A                      A
 Frequencies --   1667.0398              1698.3300              3062.7828
 Red. masses --      5.3959                 2.8980                 1.0364
 Frc consts  --      8.8349                 4.9248                 5.7283
 IR Inten    --      4.4132               177.3148                24.8178

                     64                     65                     66
                      A                      A                      A
 Frequencies --   3129.6053              3134.8372              3179.2405
 Red. masses --      1.1010                 1.1018                 1.0860
 Frc consts  --      6.3534                 6.3792                 6.4674
 IR Inten    --     16.8916                19.2691                 6.1543

                     67                     68                     69
                      A                      A                      A
 Frequencies --   3191.7155              3205.8501              3225.1455
 Red. masses --      1.0896                 1.0951                 1.0933
 Frc consts  --      6.5396                 6.6311                 6.6999
 IR Inten    --     19.9049                38.0129                 7.4438

                     70                     71                     72
                      A                      A                      A
 Frequencies --   3295.0173              3545.6142              3657.9972
 Red. masses --      1.0946                 1.0491                 1.0976
 Frc consts  --      7.0022                 7.7706                 8.6534
 IR Inten    --      7.4922                30.8113                31.0826

 - Thermochemistry -
 -------------------
 Temperature   298.150 Kelvin.  Pressure   1.00000 Atm.
 Atom     1 has atomic number  6 and mass  12.00000

 Molecular mass:   230.06262 amu.
 Principal axes and moments of inertia in atomic units:
                           1         2         3
     Eigenvalues --  1536.765386521.626317988.01184
           X            0.99986   0.01639   0.00150
           Y           -0.01638   0.99986  -0.00451
           Z           -0.00157   0.00448   0.99999
 This molecule is an asymmetric top.
 Rotational symmetry number  1.
 Warning -- assumption of classical behavior for rotation
           may cause significant error
 Rotational temperatures (Kelvin)      0.05636     0.01328     0.01084
 Rotational constants (GHZ):           1.17438     0.27673     0.22593
 Zero-point vibrational energy     522540.2 (Joules/Mol)
                                  124.89012 (Kcal/Mol)
 Warning -- explicit consideration of  21 degrees of freedom as
           vibrations may cause significant error
 Vibrational temperatures:     27.85    94.54   150.04   218.86   272.97
          (Kelvin)            283.46   313.35   328.44   360.30   401.10
                              417.00   480.39   507.30   654.21   670.78
                              732.53   768.47   788.48   802.81   828.39
                              886.14   915.33   954.59   973.34   988.00
                             1042.71  1068.99  1079.70  1145.54  1184.24
                             1190.89  1275.14  1376.93  1418.78  1422.31
                             1480.26  1545.91  1549.98  1560.51  1609.65
                             1651.30  1680.45  1725.96  1755.17  1778.04
                             1849.03  1873.10  1934.81  1946.56  1968.88
                             2082.97  2091.31  2120.35  2169.04  2171.45
                             2184.15  2186.11  2235.72  2349.74  2383.81
                             2398.50  2443.52  4406.66  4502.80  4510.33
                             4574.22  4592.17  4612.50  4640.27  4740.79
                             5101.35  5263.04

 Zero-point correction=                           0.199025 (Hartree/Particle)
 Thermal correction to Energy=                    0.212380
 Thermal correction to Enthalpy=                  0.213324
 Thermal correction to Gibbs Free Energy=         0.158156
 Sum of electronic and zero-point Energies=          -1042.224732
 Sum of electronic and thermal Energies=             -1042.211377
 Sum of electronic and thermal Enthalpies=           -1042.210433
 Sum of electronic and thermal Free Energies=        -1042.265602

                     E (Thermal)             CV                S
                      KCal/Mol        Cal/Mol-Kelvin    Cal/Mol-Kelvin
 Total                  133.271             52.310            116.113
 Electronic               0.000              0.000              0.000
 Translational            0.889              2.981             42.202
 Rotational               0.889              2.981             32.748
 Vibrational            131.493             46.349             41.163
 Vibration     1          0.593              1.986              6.699
 Vibration     2          0.597              1.971              4.278
 Vibration     3          0.605              1.946              3.373
 Vibration     4          0.619              1.900              2.646
 Vibration     5          0.633              1.854              2.231
 Vibration     6          0.636              1.844              2.161
 Vibration     7          0.646              1.814              1.977
 Vibration     8          0.651              1.798              1.892
 Vibration     9          0.663              1.762              1.728
 Vibration    10          0.679              1.713              1.541
 Vibration    11          0.686              1.693              1.475
 Vibration    12          0.715              1.608              1.241
 Vibration    13          0.729              1.570              1.155
 Vibration    14          0.813              1.351              0.782
 Vibration    15          0.824              1.325              0.748
 Vibration    16          0.864              1.230              0.636
 Vibration    17          0.889              1.175              0.578
 Vibration    18          0.903              1.144              0.548
 Vibration    19          0.914              1.122              0.528
 Vibration    20          0.932              1.084              0.493
 Vibration    21          0.975              0.998              0.423

 Optimization completed.
    -- Stationary point found.
 Normal termination of Gaussian 16 at Thu Dec 10 22:57:28 2020.

 ----------------------------------------------------------------------
 # B3LYP/6-311++G(d,p) empiricaldispersion=gd3bj scf=xqc pop=npa geom=c
 heck
 ----------------------------------------------------------------------

 --------------------------------------
 CID_82474419_JID_6447_Energie_neutraal
 --------------------------------------
 Structure from the checkpoint file:  "JID_6447.chk"
 Charge =  0 Multiplicity = 1

 SCF Done:  E(RB3LYP) =  -1042.61971515     A.U. after   15 cycles
 Normal termination of Gaussian 16 at Thu Dec 10 23:01:36 2020.

 ----------------------------------------------------------------------
 # B3LYP/6-311++G(d,p) empiricaldispersion=gd3bj scf=xqc pop=npa geom=c
 heck
 ----------------------------------------------------------------------

 ------------------------------------
 CID_82474419_JID_6447_Energie_kation
 ------------------------------------
 Structure from the checkpoint file:  "JID_6447.chk"
 Charge =  1 Multiplicity = 2

 SCF Done:  E(UB3LYP) =  -1042.34004126     A.U. after   27 cycles
 Normal termination of Gaussian 16 at Thu Dec 10 23:12:04 2020.
 Gaussian 16:  ES64L-G16RevA.03 25-Dec-2016

 ----------------------------------------------------------------------
 # B3LYP/6-311++G(d,p) empiricaldispersion=gd3bj scf=xqc pop=npa geom=c
 heck
 ----------------------------------------------------------------------

 -----------------------------------
 CID_82474419_JID_6447_Energie_anion
 -----------------------------------
 Structure from the checkpoint file:  "JID_6447.chk"
 Charge = -1 Multiplicity = 2

                         Standard orientation:
 ---------------------------------------------------------------------
 Center     Atomic      Atomic             Coordinates (Angstroms)
 Number     Number       Type             X           Y           Z
 ---------------------------------------------------------------------
      1          6           0       -2.239104   -2.331683    0.362778
      2          6           0       -2.685948   -0.907559    0.139359
      3          6           0       -4.059482   -0.632048    0.119631
      4          6           0       -4.556757    0.654978   -0.068069
      5          6           0       -3.669312    1.716817   -0.241214
      6          6           0       -2.302158    1.471714   -0.227853
      7          6           0       -1.792834    0.174697   -0.040867
      8          6           0       -0.330004    0.020821   -0.034774
      9          7           0        0.474201    1.092160    0.105620
     10          7           0        1.701441    0.525542    0.019377
     11          6           0        2.982138    1.051079    0.124161
     12          6           0        3.907098    0.057374    0.028333
     13         16           0        3.177002   -1.549327   -0.205008
     14          6           0        1.597783   -0.821074   -0.148690
     15          7           0        0.327897   -1.180053   -0.190264
     16          7           0        3.101968    2.422632    0.233872
     17          1           0       -3.104113   -2.964783    0.584204
     18          1           0       -1.722329   -2.734184   -0.512825
     19          1           0       -1.527743   -2.408587    1.190419
     20          1           0       -4.752832   -1.457322    0.260115
     21          1           0       -5.629686    0.825977   -0.078610
     22          1           0       -4.038360    2.727312   -0.391278
     23          1           0       -1.599143    2.285324   -0.368100
     24          1           0        4.980933    0.160159    0.046005
     25          1           0        2.266209    2.862694    0.604719
     26          1           0        3.947960    2.739982    0.688485
 ---------------------------------------------------------------------

 SCF Done:  E(UB3LYP) =  -1042.61888117     A.U. after   30 cycles

 The electronic state is 2-A.
 Alpha  occ. eigenvalues --  -88.77547 -14.28894 -14.22149 -14.20926 -14.19014
 Alpha  occ. eigenvalues --  -10.14868 -10.14672 -10.10576 -10.08057 -10.06744
 Alpha  occ. eigenvalues --  -10.05976 -10.05743 -10.05576 -10.05303 -10.05167
 Alpha  occ. eigenvalues --  -10.05008  -7.86107  -5.82459  -5.82109  -5.81574
 Alpha  occ. eigenvalues --   -0.97531  -0.84162  -0.78138  -0.77351  -0.74238
 Alpha  occ. eigenvalues --   -0.67228  -0.65888  -0.63735  -0.61045  -0.57408
 Alpha  occ. eigenvalues --   -0.52664  -0.51629  -0.48776  -0.46035  -0.45581
 Alpha  occ. eigenvalues --   -0.41303  -0.39851  -0.39441  -0.37642  -0.35476
 Alpha  occ. eigenvalues --   -0.34938  -0.33417  -0.32035  -0.30655  -0.29859
 Alpha  occ. eigenvalues --   -0.29072  -0.27863  -0.27403  -0.26773  -0.24471
 Alpha  occ. eigenvalues --   -0.23122  -0.23019  -0.22573  -0.20852  -0.19005
 Alpha  occ. eigenvalues --   -0.16840  -0.16079  -0.13535  -0.11505  -0.09785
 Alpha  occ. eigenvalues --    0.04193
 Alpha virt. eigenvalues --    0.06219   0.07602   0.08488   0.08786   0.09638
 Alpha virt. eigenvalues --    0.10091   0.10434   0.10582   0.11229   0.11893
 Alpha virt. eigenvalues --    0.12515   0.12774   0.13195   0.13876   0.14326

  Beta  occ. eigenvalues --  -88.77533 -14.28849 -14.22086 -14.20692 -14.19036
  Beta  occ. eigenvalues --  -10.14835 -10.14639 -10.10480 -10.07936 -10.06685
  Beta  occ. eigenvalues --  -10.05878 -10.05781 -10.05585 -10.05172 -10.05129
  Beta  occ. eigenvalues --  -10.04918  -7.86095  -5.82448  -5.82102  -5.81534
  Beta  occ. eigenvalues --   -0.97369  -0.84044  -0.78037  -0.77155  -0.74064
  Beta  occ. eigenvalues --   -0.67001  -0.65746  -0.63505  -0.60883  -0.57345
  Beta  occ. eigenvalues --   -0.52379  -0.51510  -0.48669  -0.45895  -0.45433
  Beta  occ. eigenvalues --   -0.41187  -0.39701  -0.39359  -0.37279  -0.35370
  Beta  occ. eigenvalues --   -0.34780  -0.33316  -0.31949  -0.30487  -0.29812
  Beta  occ. eigenvalues --   -0.28991  -0.27766  -0.27268  -0.26481  -0.24087
  Beta  occ. eigenvalues --   -0.23028  -0.22944  -0.22162  -0.20652  -0.18651
  Beta  occ. eigenvalues --   -0.16734  -0.15440  -0.13159  -0.10610  -0.09334
  Beta virt. eigenvalues --    0.07513   0.07624   0.07994   0.08701   0.09137
  Beta virt. eigenvalues --    0.09646   0.10237   0.10636   0.11204   0.11494
  Beta virt. eigenvalues --    0.11944   0.12616   0.12760   0.13518   0.13837

 Mulliken charges and spin densities:
               1          2
     1  C   -0.669558  -0.009226
     2  C    0.542125   0.051244
     3  C   -0.480140   0.009956
     4  C   -0.226241   0.139302
     5  C   -0.535140  -0.039613
     6  C   -0.415745   0.120554
     7  C    0.635415   0.025512
     8  C   -0.443555   0.062741
     9  N    0.116379   0.144796
    10  N    0.159237  -0.124492
    11  C    0.420758  -0.588181
    12  C   -0.020988  -0.239127
    13  S   -0.220506   0.019506
    14  C    0.424289  -0.153687
    15  N   -0.004715  -0.018349
    16  N   -0.474079   0.107527
    17  H    0.111422  -0.000700
    18  H    0.165116   0.004295
    19  H    0.162498   0.003622
    20  H    0.081618   0.000622
    21  H    0.117743  -0.011789
    22  H    0.121798   0.003198
    23  H    0.161483   0.003462
    24  H   -0.306464   0.528329
    25  H    0.101173   0.164033
    26  H   -0.523921   0.796467
 Sum of Mulliken charges =  -1.00000   1.00000

 Dipole moment (field-independent basis, Debye):
    X=             -4.5819    Y=             -3.8232    Z=             -1.2006  Tot=              6.0871
 Quadrupole moment (field-independent basis, Debye-Ang):
   XX=           -170.6815   YY=           -129.9739   ZZ=           -117.7460
   XY=            -16.3576   XZ=             -7.6704   YZ=             -5.0743

 Summary of Natural Population Analysis:

                                       Natural Population
                Natural  -----------------------------------------------
    Atom  No    Charge         Core      Valence    Rydberg      Total
 -----------------------------------------------------------------------
      C    1   -0.29369      0.99964     2.28928    0.00477     3.29369
      C    2    0.01068      0.99950     1.98216    0.00766     2.98932
      C    3   -0.11295      0.99953     2.10455    0.00887     3.11295
      C    4   -0.07481      0.99957     2.06561    0.00963     3.07481
      C    5   -0.12088      0.99957     2.11225    0.00907     3.12088
      C    6   -0.06616      0.99955     2.05867    0.00794     3.06616
      C    7   -0.03092      0.99944     2.02289    0.00858     3.03092
      C    8    0.18866      0.99961     1.79342    0.01831     2.81134
      N    9   -0.14419      0.99970     2.63370    0.01079     3.64419
      N   10   -0.11578      0.99953     2.60413    0.01212     3.61578
      C   11    0.17365      0.99947     1.81265    0.01424     2.82635
      C   12   -0.22073      0.99947     2.20984    0.01142     3.22073
      S   13    0.17621      4.99948     2.80191    0.02241     7.82379
      C   14    0.11217      0.99954     1.86766    0.02063     2.88783
      N   15   -0.28173      0.99966     2.77219    0.00989     3.78173
      N   16   -0.39713      0.99971     2.88701    0.01041     3.89713
      H   17    0.08969      0.00000     0.40934    0.00096     0.41031
      H   18    0.11161      0.00000     0.38744    0.00095     0.38839
      H   19    0.10867      0.00000     0.39040    0.00093     0.39133
      H   20    0.09069      0.00000     0.40786    0.00145     0.40931
      H   21    0.08999      0.00000     0.40896    0.00105     0.41001
      H   22    0.09361      0.00000     0.40540    0.00100     0.40639
      H   23    0.10709      0.00000     0.39182    0.00108     0.39291
      H   24    0.11200      0.00000     0.38677    0.00124     0.38800
      H   25    0.19765      0.00000     0.30014    0.00221     0.30235
      H   26    0.19661      0.00000     0.28894    0.01445     0.30339
 =======================================================================
   * Total *    0.00000     19.99297    39.79496    0.21206    60.00000

 Normal termination of Gaussian 16 at Thu Dec 10 23:23:17 2020.
