 Gaussian 16, Revision A.03,

 -----------------------------------------------------------
 # opt freq B3LYP/6-31G(d) empiricaldispersion=gd3bj scf=xqc
 -----------------------------------------------------------

 ------------------------------
 CID_64247057_JID_9523_neutraal
 ------------------------------
 Symbolic Z-matrix:
 Charge =  0 Multiplicity = 1

 SCF Done:  E(RB3LYP) =  -895.526557743     A.U. after   17 cycles
 SCF Done:  E(RB3LYP) =  -895.531198158     A.U. after   13 cycles
 SCF Done:  E(RB3LYP) =  -895.527195547     A.U. after   15 cycles
 SCF Done:  E(RB3LYP) =  -895.532539279     A.U. after   14 cycles
 SCF Done:  E(RB3LYP) =  -895.533173875     A.U. after   14 cycles
 SCF Done:  E(RB3LYP) =  -895.534055074     A.U. after   16 cycles
 SCF Done:  E(RB3LYP) =  -895.535401758     A.U. after   17 cycles
 SCF Done:  E(RB3LYP) =  -895.535967088     A.U. after   13 cycles
 SCF Done:  E(RB3LYP) =  -895.536286067     A.U. after   13 cycles
 SCF Done:  E(RB3LYP) =  -895.533140603     A.U. after   15 cycles
 SCF Done:  E(RB3LYP) =  -895.536570661     A.U. after   13 cycles
 SCF Done:  E(RB3LYP) =  -895.536586331     A.U. after   10 cycles
 SCF Done:  E(RB3LYP) =  -895.536593007     A.U. after   10 cycles
 SCF Done:  E(RB3LYP) =  -895.536593778     A.U. after    8 cycles
 SCF Done:  E(RB3LYP) =  -895.536593943     A.U. after    7 cycles
 SCF Done:  E(RB3LYP) =  -895.536594019     A.U. after    8 cycles
 Optimization completed.
    -- Stationary point found.
 Normal termination of Gaussian 16 at Sun Dec 13 12:49:09 2020.

 --------------------------------------------------------------------
 #N Geom=AllCheck Guess=TCheck SCRF=Check GenChk RB3LYP/6-31G(d) Freq
 --------------------------------------------------------------------

 Structure from the checkpoint file:  "JID_9523.chk"
 ------------------------------
 CID_64247057_JID_9523_neutraal
 ------------------------------
 Charge =  0 Multiplicity = 1

 SCF Done:  E(RB3LYP) =  -895.536594019     A.U. after    1 cycles

  Exact polarizability: 185.470  15.311 160.729 -24.398  15.039 128.090
 Approx polarizability: 258.134  28.292 263.690 -59.793  42.665 230.543

                      1                      2                      3
                      A                      A                      A
 Frequencies --     23.3347                36.6644                42.0612
 Red. masses --      6.1073                 4.1111                 8.1896
 Frc consts  --      0.0020                 0.0033                 0.0085
 IR Inten    --      0.6520                 2.3035                 0.0172

                      4                      5                      6
                      A                      A                      A
 Frequencies --     64.4072                75.2908                93.4105
 Red. masses --      4.3550                 4.8045                 4.2526
 Frc consts  --      0.0106                 0.0160                 0.0219
 IR Inten    --      0.5612                 0.1406                 1.1741

                      7                      8                      9
                      A                      A                      A
 Frequencies --     98.3971               109.3644               150.2303
 Red. masses --      2.7653                 2.8872                 3.3014
 Frc consts  --      0.0158                 0.0203                 0.0439
 IR Inten    --      4.6553                 2.8536                 0.5637

                     10                     11                     12
                      A                      A                      A
 Frequencies --    192.2920               214.1697               237.2757
 Red. masses --      2.2235                 3.0499                 4.5705
 Frc consts  --      0.0484                 0.0824                 0.1516
 IR Inten    --     10.0224                 2.1264                 0.4049

                     13                     14                     15
                      A                      A                      A
 Frequencies --    276.5753               279.7695               299.7117
 Red. masses --      1.7689                 2.6362                 3.5682
 Frc consts  --      0.0797                 0.1216                 0.1888
 IR Inten    --      3.1106                 7.3908                12.1526

                     16                     17                     18
                      A                      A                      A
 Frequencies --    317.1501               358.3062               373.6372
 Red. masses --      4.5891                 5.6156                 2.7085
 Frc consts  --      0.2720                 0.4248                 0.2228
 IR Inten    --      4.1552                 2.3999                 1.1120

                     19                     20                     21
                      A                      A                      A
 Frequencies --    426.2042               429.8957               495.7388
 Red. masses --      3.0954                 3.9404                 3.1992
 Frc consts  --      0.3313                 0.4291                 0.4632
 IR Inten    --      0.2367                 1.7846                 8.3904

                     22                     23                     24
                      A                      A                      A
 Frequencies --    519.6858               535.9039               537.8266
 Red. masses --      3.6412                 5.0520                 4.6948
 Frc consts  --      0.5794                 0.8548                 0.8001
 IR Inten    --      3.4807                 7.2224                 7.6116

                     25                     26                     27
                      A                      A                      A
 Frequencies --    568.0238               610.8910               640.2591
 Red. masses --      3.6676                 3.8102                 3.4145
 Frc consts  --      0.6972                 0.8378                 0.8247
 IR Inten    --      6.1717                 7.7077                 2.6045

                     28                     29                     30
                      A                      A                      A
 Frequencies --    649.6155               716.2138               734.1811
 Red. masses --      6.8316                 3.8597                 5.7678
 Frc consts  --      1.6986                 1.1665                 1.8317
 IR Inten    --      0.5337                21.0551                 9.3752

                     31                     32                     33
                      A                      A                      A
 Frequencies --    763.2039               773.9319               784.7376
 Red. masses --      4.1776                 1.7395                 3.9240
 Frc consts  --      1.4337                 0.6139                 1.4237
 IR Inten    --     11.2763                63.9223                 4.9502

                     34                     35                     36
                      A                      A                      A
 Frequencies --    810.3163               859.2349               867.5889
 Red. masses --      1.9409                 1.4267                 2.0577
 Frc consts  --      0.7509                 0.6206                 0.9126
 IR Inten    --     71.9158                10.0044                23.1504

                     37                     38                     39
                      A                      A                      A
 Frequencies --    873.5445               883.0945               920.2286
 Red. masses --      3.0886                 1.8912                 2.1621
 Frc consts  --      1.3886                 0.8690                 1.0788
 IR Inten    --     31.2913                 0.6532                14.7084

                     40                     41                     42
                      A                      A                      A
 Frequencies --    951.4675               971.0858               980.4412
 Red. masses --      2.4790                 2.3570                 2.4272
 Frc consts  --      1.3223                 1.3095                 1.3746
 IR Inten    --      0.1285                 1.4401                 4.1400

                     43                     44                     45
                      A                      A                      A
 Frequencies --    986.2868              1006.0070              1016.7690
 Red. masses --      1.3487                 1.4242                 2.0752
 Frc consts  --      0.7730                 0.8492                 1.2640
 IR Inten    --      0.5919                 1.2173                 2.6367

                     46                     47                     48
                      A                      A                      A
 Frequencies --   1030.6621              1040.7193              1072.4944
 Red. masses --      2.1887                 2.8334                 2.2394
 Frc consts  --      1.3698                 1.8081                 1.5177
 IR Inten    --      8.1841                 4.2958                 7.6952

                     49                     50                     51
                      A                      A                      A
 Frequencies --   1095.3859              1137.4880              1140.8568
 Red. masses --      1.5670                 2.9445                 1.3548
 Frc consts  --      1.1078                 2.2447                 1.0389
 IR Inten    --      0.8325                40.4722                 4.6620

                     52                     53                     54
                      A                      A                      A
 Frequencies --   1171.7606              1181.5669              1189.9353
 Red. masses --      1.4733                 2.2271                 1.5665
 Frc consts  --      1.1919                 1.8319                 1.3068
 IR Inten    --      5.1633                33.8661                17.7680

                     55                     56                     57
                      A                      A                      A
 Frequencies --   1209.2892              1215.9615              1230.0268
 Red. masses --      1.7368                 1.2882                 1.6837
 Frc consts  --      1.4965                 1.1222                 1.5009
 IR Inten    --     18.1133                 5.5348                 6.4046

                     58                     59                     60
                      A                      A                      A
 Frequencies --   1239.2679              1240.4192              1250.6065
 Red. masses --      1.4997                 2.4538                 1.3599
 Frc consts  --      1.3570                 2.2245                 1.2531
 IR Inten    --      9.7118                 9.1315                 0.4060

                     61                     62                     63
                      A                      A                      A
 Frequencies --   1306.3753              1331.7503              1333.1404
 Red. masses --      1.4345                 1.7017                 1.5453
 Frc consts  --      1.4424                 1.7782                 1.6181
 IR Inten    --     26.0249                46.2914                19.5547

                     64                     65                     66
                      A                      A                      A
 Frequencies --   1342.3091              1349.4388              1378.2601
 Red. masses --      1.3031                 1.5184                 2.2724
 Frc consts  --      1.3834                 1.6291                 2.5433
 IR Inten    --      0.2414                 2.6930                24.6087

                     67                     68                     69
                      A                      A                      A
 Frequencies --   1387.4588              1398.0850              1404.9626
 Red. masses --      2.1015                 5.2294                 1.6250
 Frc consts  --      2.3835                 6.0224                 1.8899
 IR Inten    --      7.9957               337.8808                34.2800

                     70                     71                     72
                      A                      A                      A
 Frequencies --   1406.5234              1465.5942              1469.9891
 Red. masses --      1.6473                 2.6266                 2.1793
 Frc consts  --      1.9200                 3.3241                 2.7745
 IR Inten    --     41.5265                 0.3968                52.0578

                     73                     74                     75
                      A                      A                      A
 Frequencies --   1482.8646              1510.7178              1517.9972
 Red. masses --      1.1901                 1.1399                 1.1109
 Frc consts  --      1.5418                 1.5329                 1.5082
 IR Inten    --      0.4120                12.2953                 2.7499

                     76                     77                     78
                      A                      A                      A
 Frequencies --   1524.5497              1526.5095              1530.2828
 Red. masses --      1.1706                 1.1571                 1.0707
 Frc consts  --      1.6030                 1.5886                 1.4773
 IR Inten    --      1.0926                 8.5721                14.0552

                     79                     80                     81
                      A                      A                      A
 Frequencies --   1544.7219              1551.4337              1560.4426
 Red. masses --      2.3365                 1.0636                 1.1103
 Frc consts  --      3.2848                 1.5083                 1.5929
 IR Inten    --      8.1309                 8.1736                 3.2839

                     82                     83                     84
                      A                      A                      A
 Frequencies --   1618.3859              1660.6492              1671.6129
 Red. masses --      9.8729                 5.7359                 9.0227
 Frc consts  --     15.2355                 9.3198                14.8545
 IR Inten    --    118.1703                27.3674                85.5501

                     85                     86                     87
                      A                      A                      A
 Frequencies --   1787.6110              3005.8152              3027.5834
 Red. masses --     10.9410                 1.0516                 1.0831
 Frc consts  --     20.5992                 5.5979                 5.8494
 IR Inten    --    246.6920                47.5977                18.0400

                     88                     89                     90
                      A                      A                      A
 Frequencies --   3036.9122              3065.6060              3073.1447
 Red. masses --      1.0645                 1.0635                 1.0617
 Frc consts  --      5.7845                 5.8886                 5.9077
 IR Inten    --     36.5849                 8.3099                46.8042

                     91                     92                     93
                      A                      A                      A
 Frequencies --   3083.7353              3091.9840              3100.1285
 Red. masses --      1.0869                 1.0868                 1.0717
 Frc consts  --      6.0898                 6.1217                 6.0683
 IR Inten    --     15.3821                12.2772                67.4217

                     94                     95                     96
                      A                      A                      A
 Frequencies --   3115.8676              3130.1579              3140.8480
 Red. masses --      1.1063                 1.1017                 1.0998
 Frc consts  --      6.3280                 6.3599                 6.3923
 IR Inten    --     10.8855                32.7288                 7.7640

                     97                     98                     99
                      A                      A                      A
 Frequencies --   3145.4446              3191.5020              3207.4766
 Red. masses --      1.1052                 1.0902                 1.0908
 Frc consts  --      6.4425                 6.5425                 6.6119
 IR Inten    --     18.3494                10.3822                 2.1224

                    100                    101                    102
                      A                      A                      A
 Frequencies --   3251.7883              3253.0206              3501.7740
 Red. masses --      1.0925                 1.0924                 1.0738
 Frc consts  --      6.8066                 6.8109                 7.7577
 IR Inten    --      1.1031                 0.9944                 0.6476

 - Thermochemistry -
 -------------------
 Temperature   298.150 Kelvin.  Pressure   1.00000 Atm.
 Atom     1 has atomic number  6 and mass  12.00000

 Molecular mass:   263.12699 amu.
 Principal axes and moments of inertia in atomic units:
                           1         2         3
     Eigenvalues --  2726.470378271.980529524.50617
           X            0.99979  -0.02039   0.00331
           Y            0.02036   0.99976   0.00806
           Z           -0.00348  -0.00799   0.99996
 This molecule is an asymmetric top.
 Rotational symmetry number  1.
 Warning -- assumption of classical behavior for rotation
           may cause significant error
 Rotational temperatures (Kelvin)      0.03177     0.01047     0.00909
 Rotational constants (GHZ):           0.66193     0.21818     0.18948
 Zero-point vibrational energy     786456.9 (Joules/Mol)
                                  187.96770 (Kcal/Mol)
 Warning -- explicit consideration of  26 degrees of freedom as
           vibrations may cause significant error
 Vibrational temperatures:     33.57    52.75    60.52    92.67   108.33
          (Kelvin)            134.40   141.57   157.35   216.15   276.67
                              308.14   341.39   397.93   402.53   431.22
                              456.31   515.52   537.58   613.21   618.52
                              713.26   747.71   771.05   773.81   817.26
                              878.94   921.19   934.65  1030.47  1056.32
                             1098.08  1113.52  1129.06  1165.86  1236.25
                             1248.27  1256.84  1270.58  1324.00  1368.95
                             1397.18  1410.64  1419.05  1447.42  1462.90
                             1482.89  1497.36  1543.08  1576.02  1636.59
                             1641.44  1685.90  1700.01  1712.05  1739.90
                             1749.50  1769.73  1783.03  1784.69  1799.34
                             1879.58  1916.09  1918.09  1931.28  1941.54
                             1983.01  1996.24  2011.53  2021.43  2023.67
                             2108.66  2114.99  2133.51  2173.59  2184.06
                             2193.49  2196.31  2201.74  2222.51  2232.17
                             2245.13  2328.50  2389.30  2405.08  2571.97
                             4324.70  4356.02  4369.44  4410.72  4421.57
                             4436.81  4448.68  4460.39  4483.04  4503.60
                             4518.98  4525.59  4591.86  4614.84  4678.60
                             4680.37  5038.27

 Zero-point correction=                           0.299546 (Hartree/Particle)
 Thermal correction to Energy=                    0.316961
 Thermal correction to Enthalpy=                  0.317905
 Thermal correction to Gibbs Free Energy=         0.252137
 Sum of electronic and zero-point Energies=           -895.237048
 Sum of electronic and thermal Energies=              -895.219633
 Sum of electronic and thermal Enthalpies=            -895.218689
 Sum of electronic and thermal Free Energies=         -895.284457

                     E (Thermal)             CV                S
                      KCal/Mol        Cal/Mol-Kelvin    Cal/Mol-Kelvin
 Total                  198.896             65.442            138.421
 Electronic               0.000              0.000              0.000
 Translational            0.889              2.981             42.602
 Rotational               0.889              2.981             33.729
 Vibrational            197.119             59.481             62.090
 Vibration     1          0.593              1.985              6.328
 Vibration     2          0.594              1.982              5.432
 Vibration     3          0.595              1.980              5.160
 Vibration     4          0.597              1.971              4.317
 Vibration     5          0.599              1.965              4.010
 Vibration     6          0.602              1.954              3.587
 Vibration     7          0.604              1.950              3.486
 Vibration     8          0.606              1.942              3.280
 Vibration     9          0.618              1.902              2.669
 Vibration    10          0.634              1.851              2.206
 Vibration    11          0.644              1.819              2.008
 Vibration    12          0.656              1.784              1.823
 Vibration    13          0.678              1.717              1.555
 Vibration    14          0.680              1.711              1.535
 Vibration    15          0.692              1.674              1.419
 Vibration    16          0.704              1.641              1.325
 Vibration    17          0.733              1.558              1.129
 Vibration    18          0.745              1.526              1.065
 Vibration    19          0.788              1.413              0.871
 Vibration    20          0.791              1.405              0.859
 Vibration    21          0.851              1.259              0.669
 Vibration    22          0.875              1.206              0.611
 Vibration    23          0.891              1.171              0.574
 Vibration    24          0.893              1.166              0.570
 Vibration    25          0.924              1.100              0.508
 Vibration    26          0.970              1.009              0.431

                           ! Non-Optimized Parameters !
 Normal termination of Gaussian 16 at Sun Dec 13 13:09:19 2020.

 ----------------------------------------------------------------------
 # B3LYP/6-311++G(d,p) empiricaldispersion=gd3bj scf=xqc pop=npa geom=c
 heck
 ----------------------------------------------------------------------

 --------------------------------------
 CID_64247057_JID_9523_Energie_neutraal
 --------------------------------------
 Structure from the checkpoint file:  "JID_9523.chk"
 Charge =  0 Multiplicity = 1

 SCF Done:  E(RB3LYP) =  -895.789649542     A.U. after   19 cycles
 Normal termination of Gaussian 16 at Sun Dec 13 13:20:32 2020.

 ----------------------------------------------------------------------
 # B3LYP/6-311++G(d,p) empiricaldispersion=gd3bj scf=xqc pop=npa geom=c
 heck
 ----------------------------------------------------------------------

 ------------------------------------
 CID_64247057_JID_9523_Energie_kation
 ------------------------------------
 Structure from the checkpoint file:  "JID_9523.chk"
 Charge =  1 Multiplicity = 2

 SCF Done:  E(UB3LYP) =  -895.484295043     A.U. after   30 cycles
 Normal termination of Gaussian 16 at Sun Dec 13 13:45:00 2020.
 Gaussian 16:  ES64L-G16RevA.03 25-Dec-2016

 ----------------------------------------------------------------------
 # B3LYP/6-311++G(d,p) empiricaldispersion=gd3bj scf=xqc pop=npa geom=c
 heck
 ----------------------------------------------------------------------

 -----------------------------------
 CID_64247057_JID_9523_Energie_anion
 -----------------------------------
 Structure from the checkpoint file:  "JID_9523.chk"
 Charge = -1 Multiplicity = 2

                         Standard orientation:
 ---------------------------------------------------------------------
 Center     Atomic      Atomic             Coordinates (Angstroms)
 Number     Number       Type             X           Y           Z
 ---------------------------------------------------------------------
      1          6           0        4.768116   -1.442612    0.013202
      2          7           0        3.491147   -2.006381   -0.431156
      3          6           0        2.315313   -1.264806   -0.007672
      4          6           0        2.038234   -1.241673    1.503333
      5          6           0        1.227793    0.052125    1.702964
      6          7           0        1.717144    0.919554    0.630155
      7          6           0        2.296059    0.227669   -0.391957
      8          8           0        2.693423    0.706811   -1.449146
      9          6           0        1.347616    2.319204    0.507043
     10          6           0        0.299891    2.579922   -0.602360
     11          6           0       -0.865185    1.631463   -0.498819
     12          6           0       -1.921479    1.876095    0.390072
     13          6           0       -2.947443    0.952067    0.557667
     14          6           0       -2.905264   -0.230934   -0.177211
     15          6           0       -1.877222   -0.502751   -1.077384
     16          6           0       -0.863066    0.436322   -1.233897
     17          7           0       -3.976992   -1.218199    0.001060
     18          8           0       -4.875201   -0.949958    0.799365
     19          8           0       -3.912499   -2.257517   -0.655493
     20          1           0        4.886694   -1.581893    1.092595
     21          1           0        4.892472   -0.372316   -0.216318
     22          1           0        5.576871   -1.994966   -0.473985
     23          1           0        3.487557   -2.011170   -1.449233
     24          1           0        1.451410   -1.713254   -0.519600
     25          1           0        1.506344   -2.129321    1.851774
     26          1           0        2.979887   -1.171939    2.055422
     27          1           0        0.148413   -0.123332    1.597778
     28          1           0        1.401198    0.518315    2.678662
     29          1           0        0.961928    2.642203    1.478659
     30          1           0        2.246042    2.905092    0.286027
     31          1           0       -0.033939    3.620859   -0.520196
     32          1           0        0.795714    2.458561   -1.567985
     33          1           0       -1.938109    2.801034    0.960526
     34          1           0       -3.769709    1.126553    1.239934
     35          1           0       -1.887821   -1.430970   -1.634706
     36          1           0       -0.050001    0.244486   -1.927478
 ---------------------------------------------------------------------

 SCF Done:  E(UB3LYP) =  -895.830065935     A.U. after   22 cycles

 The electronic state is 2-A.
 Alpha  occ. eigenvalues --  -19.00076 -18.94227 -18.94218 -14.31941 -14.25381
 Alpha  occ. eigenvalues --  -14.22566 -10.17399 -10.12405 -10.12291 -10.11695
 Alpha  occ. eigenvalues --  -10.11324 -10.09649 -10.06855 -10.05952 -10.04795
 Alpha  occ. eigenvalues --  -10.04523 -10.04459 -10.03902 -10.03757  -1.02285
 Alpha  occ. eigenvalues --   -0.95033  -0.86247  -0.85159  -0.83024  -0.73831
 Alpha  occ. eigenvalues --   -0.71378  -0.66861  -0.63281  -0.62563  -0.62043
 Alpha  occ. eigenvalues --   -0.58854  -0.56174  -0.51423  -0.50502  -0.48312
 Alpha  occ. eigenvalues --   -0.44923  -0.43525  -0.43403  -0.41263  -0.39421
 Alpha  occ. eigenvalues --   -0.38696  -0.37326  -0.36102  -0.35646  -0.34674
 Alpha  occ. eigenvalues --   -0.34320  -0.33498  -0.33157  -0.32011  -0.31500
 Alpha  occ. eigenvalues --   -0.31079  -0.30637  -0.30309  -0.29645  -0.29154
 Alpha  occ. eigenvalues --   -0.28608  -0.27672  -0.26336  -0.25044  -0.23406
 Alpha  occ. eigenvalues --   -0.22791  -0.21528  -0.18506  -0.16033  -0.14485
 Alpha  occ. eigenvalues --   -0.13987  -0.12842  -0.12545  -0.12072  -0.10026
 Alpha  occ. eigenvalues --    0.02555
 Alpha virt. eigenvalues --    0.05834   0.07035   0.07492   0.08257   0.09276
 Alpha virt. eigenvalues --    0.09469   0.10372   0.10680   0.11107   0.11145
 Alpha virt. eigenvalues --    0.11311   0.12148   0.12656   0.13155   0.13455

  Beta  occ. eigenvalues --  -19.00076 -18.93749 -18.93737 -14.31335 -14.25382
  Beta  occ. eigenvalues --  -14.22566 -10.17399 -10.12405 -10.12290 -10.11658
  Beta  occ. eigenvalues --  -10.11324 -10.09649 -10.06878 -10.05841 -10.04860
  Beta  occ. eigenvalues --  -10.04544 -10.04204 -10.03767 -10.03610  -1.01250
  Beta  occ. eigenvalues --   -0.95031  -0.86242  -0.84252  -0.83023  -0.73555
  Beta  occ. eigenvalues --   -0.71305  -0.66578  -0.63277  -0.62237  -0.61829
  Beta  occ. eigenvalues --   -0.58809  -0.55814  -0.51303  -0.49975  -0.48209
  Beta  occ. eigenvalues --   -0.44792  -0.43497  -0.43155  -0.41258  -0.39371
  Beta  occ. eigenvalues --   -0.38545  -0.36863  -0.36034  -0.35620  -0.34252
  Beta  occ. eigenvalues --   -0.33298  -0.32888  -0.31905  -0.31680  -0.31424
  Beta  occ. eigenvalues --   -0.30950  -0.30400  -0.30143  -0.29510  -0.29088
  Beta  occ. eigenvalues --   -0.28538  -0.27618  -0.26270  -0.25010  -0.22855
  Beta  occ. eigenvalues --   -0.22443  -0.21435  -0.18504  -0.15984  -0.14471
  Beta  occ. eigenvalues --   -0.12869  -0.11592  -0.11172  -0.10014  -0.09548
  Beta virt. eigenvalues --    0.05792   0.06947   0.07425   0.08110   0.09142
  Beta virt. eigenvalues --    0.09398   0.09661   0.10435   0.10655   0.11111
  Beta virt. eigenvalues --    0.11163   0.11446   0.12108   0.12647   0.13127

 Mulliken charges and spin densities:
               1          2
     1  C   -0.359493   0.000965
     2  N   -0.003077   0.002445
     3  C   -0.647126  -0.021202
     4  C   -0.209438  -0.009713
     5  C   -0.430688  -0.005779
     6  N    0.294127  -0.003110
     7  C   -0.217240  -0.001481
     8  O   -0.299503   0.000832
     9  C   -0.089313  -0.070244
    10  C   -0.542890   0.002953
    11  C    0.649309   0.191417
    12  C   -0.504998  -0.030463
    13  C   -0.146367   0.149155
    14  C   -0.237152  -0.019480
    15  C   -0.300684   0.165524
    16  C   -0.131994  -0.038439
    17  N   -0.289954   0.197468
    18  O   -0.181417   0.186888
    19  O   -0.180982   0.186766
    20  H    0.111521  -0.000060
    21  H    0.164796   0.000304
    22  H    0.139026   0.000135
    23  H    0.259349   0.000065
    24  H    0.217583   0.033395
    25  H    0.194009   0.003712
    26  H    0.120878  -0.000119
    27  H    0.185323   0.011519
    28  H    0.139385   0.000525
    29  H    0.134797  -0.005385
    30  H    0.101984   0.038750
    31  H    0.125094   0.031851
    32  H    0.212799   0.004546
    33  H    0.110989   0.008065
    34  H    0.227521  -0.008321
    35  H    0.224953  -0.009771
    36  H    0.158875   0.006288
 Sum of Mulliken charges =  -1.00000   1.00000

 Dipole moment (field-independent basis, Debye):
    X=             13.6130    Y=              4.3679    Z=              2.8579  Tot=             14.5795
 Quadrupole moment (field-independent basis, Debye-Ang):
   XX=           -202.1371   YY=           -136.8418   ZZ=           -122.0446
   XY=            -24.1444   XZ=              7.5242   YZ=              3.9113

 Summary of Natural Population Analysis:

                                       Natural Population
                Natural  -----------------------------------------------
    Atom  No    Charge         Core      Valence    Rydberg      Total
 -----------------------------------------------------------------------
      C    1   -0.18508      0.99967     2.17816    0.00725     3.18508
      N    2   -0.33299      0.99974     2.82125    0.01200     3.83299
      C    3   -0.04895      0.99955     2.03714    0.01226     3.04895
      C    4   -0.19482      0.99963     2.18785    0.00734     3.19482
      C    5   -0.07749      0.99964     2.07043    0.00743     3.07749
      N    6   -0.25383      0.99962     2.74276    0.01145     3.75383
      C    7    0.34114      0.99961     1.63338    0.02588     2.65886
      O    8   -0.33412      0.99988     3.32744    0.00680     4.33412
      C    9   -0.07383      0.99962     2.06452    0.00969     3.07383
      C   10   -0.20316      0.99960     2.19611    0.00745     3.20316
      C   11    0.02335      0.99951     1.96511    0.01203     2.97665
      C   12   -0.12775      0.99952     2.12014    0.00809     3.12775
      C   13   -0.07022      0.99953     2.06111    0.00957     3.07022
      C   14    0.05205      0.99940     1.93267    0.01587     2.94795
      C   15   -0.06826      0.99953     2.05915    0.00959     3.06826
      C   16   -0.13094      0.99952     2.12326    0.00815     3.13094
      N   17    0.30377      0.99972     2.17028    0.02623     3.19623
      O   18   -0.19512      0.99990     3.18758    0.00764     4.19512
      O   19   -0.19437      0.99990     3.18683    0.00764     4.19437
      H   20    0.08718      0.00000     0.41173    0.00109     0.41282
      H   21    0.08738      0.00000     0.41126    0.00136     0.41262
      H   22    0.09269      0.00000     0.40648    0.00083     0.40731
      H   23    0.17732      0.00000     0.32036    0.00232     0.32268
      H   24    0.11273      0.00000     0.38555    0.00172     0.38727
      H   25    0.10625      0.00000     0.39277    0.00098     0.39375
      H   26    0.09534      0.00000     0.40350    0.00116     0.40466
      H   27    0.10681      0.00000     0.39178    0.00141     0.39319
      H   28    0.09086      0.00000     0.40817    0.00098     0.40914
      H   29    0.09471      0.00000     0.40446    0.00082     0.40529
      H   30    0.09712      0.00000     0.40097    0.00190     0.40288
      H   31    0.09784      0.00000     0.40067    0.00148     0.40216
      H   32    0.10929      0.00000     0.38929    0.00142     0.39071
      H   33    0.09100      0.00000     0.40804    0.00096     0.40900
      H   34    0.11276      0.00000     0.38612    0.00112     0.38724
      H   35    0.11289      0.00000     0.38598    0.00113     0.38711
      H   36    0.09843      0.00000     0.40026    0.00131     0.40157
 =======================================================================
   * Total *    0.00000     18.99307    50.77256    0.23436    70.00000

 Normal termination of Gaussian 16 at Sun Dec 13 14:03:18 2020.
