 Gaussian 16, Revision A.03,

 -----------------------------------------------------------
 # opt freq B3LYP/6-31G(d) empiricaldispersion=gd3bj scf=xqc
 -----------------------------------------------------------

 ------------------------------
 CID_83968640_JID_4182_neutraal
 ------------------------------
 Symbolic Z-matrix:
 Charge =  0 Multiplicity = 1

 SCF Done:  E(RB3LYP) =  -632.219086755     A.U. after   14 cycles
 SCF Done:  E(RB3LYP) =  -632.223179974     A.U. after   12 cycles
 SCF Done:  E(RB3LYP) =  -632.223992747     A.U. after   12 cycles
 SCF Done:  E(RB3LYP) =  -632.224189542     A.U. after   11 cycles
 SCF Done:  E(RB3LYP) =  -632.224259755     A.U. after   10 cycles
 SCF Done:  E(RB3LYP) =  -632.224292786     A.U. after   10 cycles
 SCF Done:  E(RB3LYP) =  -632.224313946     A.U. after   10 cycles
 SCF Done:  E(RB3LYP) =  -632.224319782     A.U. after    9 cycles
 SCF Done:  E(RB3LYP) =  -632.224321567     A.U. after    8 cycles
 SCF Done:  E(RB3LYP) =  -632.224321747     A.U. after    7 cycles
 Optimization completed.
    -- Stationary point found.
 Normal termination of Gaussian 16 at Thu Dec 10 09:17:01 2020.

 --------------------------------------------------------------------
 #N Geom=AllCheck Guess=TCheck SCRF=Check GenChk RB3LYP/6-31G(d) Freq
 --------------------------------------------------------------------

 Structure from the checkpoint file:  "JID_4182.chk"
 ------------------------------
 CID_83968640_JID_4182_neutraal
 ------------------------------
 Charge =  0 Multiplicity = 1

 SCF Done:  E(RB3LYP) =  -632.224321747     A.U. after    1 cycles

  Exact polarizability: 155.685  -1.282 150.309 -18.999  -4.536  68.691
 Approx polarizability: 246.759  -2.624 236.053 -39.090 -11.509 106.717

                      1                      2                      3
                      A                      A                      A
 Frequencies --     45.5454                53.2627                83.1434
 Red. masses --      5.2227                 4.3947                 3.5604
 Frc consts  --      0.0064                 0.0073                 0.0145
 IR Inten    --      0.1560                 0.3135                 4.2861

                      4                      5                      6
                      A                      A                      A
 Frequencies --    129.1158               168.3645               204.5006
 Red. masses --      3.4046                 3.2420                 3.2311
 Frc consts  --      0.0334                 0.0541                 0.0796
 IR Inten    --      3.3159                 1.1081                 4.5364

                      7                      8                      9
                      A                      A                      A
 Frequencies --    216.9376               251.6939               280.4798
 Red. masses --      3.2731                 1.7920                 2.7487
 Frc consts  --      0.0908                 0.0669                 0.1274
 IR Inten    --      1.5121                 2.9719                 0.8408

                     10                     11                     12
                      A                      A                      A
 Frequencies --    310.8364               348.3465               376.9852
 Red. masses --      2.6593                 2.9873                 1.4812
 Frc consts  --      0.1514                 0.2136                 0.1240
 IR Inten    --      0.8048                 5.4338                76.3127

                     13                     14                     15
                      A                      A                      A
 Frequencies --    399.7840               484.4937               510.7751
 Red. masses --      1.7792                 3.9112                 4.1177
 Frc consts  --      0.1675                 0.5409                 0.6329
 IR Inten    --     60.7890                 8.8247                 1.3178

                     16                     17                     18
                      A                      A                      A
 Frequencies --    521.8603               551.4598               592.4525
 Red. masses --      3.3518                 4.2475                 4.5078
 Frc consts  --      0.5378                 0.7611                 0.9322
 IR Inten    --      4.0845                 0.2869                 5.1712

                     19                     20                     21
                      A                      A                      A
 Frequencies --    610.8601               632.2036               698.2949
 Red. masses --      3.9872                 3.9484                 4.3370
 Frc consts  --      0.8766                 0.9298                 1.2460
 IR Inten    --      4.2621                 1.8796                 7.5153

                     22                     23                     24
                      A                      A                      A
 Frequencies --    713.8208               725.4463               746.5050
 Red. masses --      4.2270                 1.5548                 1.3610
 Frc consts  --      1.2690                 0.4821                 0.4469
 IR Inten    --     11.2375                34.9673                 9.9454

                     25                     26                     27
                      A                      A                      A
 Frequencies --    794.5308               840.3166               853.0821
 Red. masses --      2.7651                 1.2847                 2.3133
 Frc consts  --      1.0284                 0.5345                 0.9919
 IR Inten    --     33.5031                 2.7938                 2.3420

                     28                     29                     30
                      A                      A                      A
 Frequencies --    854.3719               891.8275               941.9213
 Red. masses --      2.1384                 2.5348                 1.2417
 Frc consts  --      0.9197                 1.1878                 0.6491
 IR Inten    --      3.0535                 7.8880                 1.0698

                     31                     32                     33
                      A                      A                      A
 Frequencies --    945.2540              1008.8868              1044.2380
 Red. masses --      1.7996                 5.3471                 2.1896
 Frc consts  --      0.9474                 3.2067                 1.4068
 IR Inten    --     12.9292                17.3195                 3.9690

                     34                     35                     36
                      A                      A                      A
 Frequencies --   1083.0235              1098.1535              1113.1353
 Red. masses --      2.6187                 2.1074                 1.5822
 Frc consts  --      1.8097                 1.4974                 1.1550
 IR Inten    --     71.0173                 6.3057                51.4797

                     37                     38                     39
                      A                      A                      A
 Frequencies --   1135.5436              1147.2715              1186.8198
 Red. masses --      3.4058                 1.9690                 1.2696
 Frc consts  --      2.5875                 1.5270                 1.0536
 IR Inten    --     32.4616                37.0627                 1.1620

                     40                     41                     42
                      A                      A                      A
 Frequencies --   1209.2283              1213.2958              1231.2343
 Red. masses --      1.4074                 1.4082                 1.3828
 Frc consts  --      1.2125                 1.2214                 1.2350
 IR Inten    --      7.9900                42.6104                21.2522

                     43                     44                     45
                      A                      A                      A
 Frequencies --   1234.2439              1270.2431              1303.4740
 Red. masses --      1.4925                 1.6360                 2.3405
 Frc consts  --      1.3395                 1.5552                 2.3430
 IR Inten    --     15.0393                 7.7195               131.8801

                     46                     47                     48
                      A                      A                      A
 Frequencies --   1357.5906              1385.7262              1397.6961
 Red. masses --      2.8194                 2.4606                 3.1986
 Frc consts  --      3.0616                 2.7839                 3.6815
 IR Inten    --     91.9881                16.0246                 1.7439

                     49                     50                     51
                      A                      A                      A
 Frequencies --   1404.6511              1409.3244              1434.2034
 Red. masses --      1.4247                 1.4466                 1.4979
 Frc consts  --      1.6561                 1.6929                 1.8153
 IR Inten    --     35.6533                 2.3994                39.6507

                     52                     53                     54
                      A                      A                      A
 Frequencies --   1442.4330              1477.7643              1496.4580
 Red. masses --      2.4767                 2.3545                 1.1854
 Frc consts  --      3.0361                 3.0294                 1.5641
 IR Inten    --     34.2145                21.3854                11.8777

                     55                     56                     57
                      A                      A                      A
 Frequencies --   1512.3109              1518.3438              1533.3605
 Red. masses --      1.2989                 1.0481                 1.0963
 Frc consts  --      1.7503                 1.4237                 1.5187
 IR Inten    --     11.1405                 5.1421                 1.1337

                     58                     59                     60
                      A                      A                      A
 Frequencies --   1538.0672              1544.4869              1577.2110
 Red. masses --      1.0682                 2.8471                 4.2665
 Frc consts  --      1.4888                 4.0014                 6.2532
 IR Inten    --     35.5649                59.1030                 7.3125

                     61                     62                     63
                      A                      A                      A
 Frequencies --   1633.5647              1671.8190              3030.5942
 Red. masses --      5.8399                 7.5635                 1.0339
 Frc consts  --      9.1818                12.4551                 5.5947
 IR Inten    --     69.7502                10.6629                57.8064

                     64                     65                     66
                      A                      A                      A
 Frequencies --   3033.3623              3089.3840              3090.9123
 Red. masses --      1.0658                 1.0685                 1.1067
 Frc consts  --      5.7782                 6.0084                 6.2297
 IR Inten    --     30.0598                11.5384                39.6922

                     67                     68                     69
                      A                      A                      A
 Frequencies --   3107.9531              3158.5989              3161.4868
 Red. masses --      1.0951                 1.1007                 1.1018
 Frc consts  --      6.2322                 6.4701                 6.4882
 IR Inten    --     72.2507                23.9685                 6.8593

                     70                     71                     72
                      A                      A                      A
 Frequencies --   3188.3997              3206.5823              3230.5916
 Red. masses --      1.0862                 1.0942                 1.0910
 Frc consts  --      6.5058                 6.6288                 6.7089
 IR Inten    --      5.5567                30.3195                11.1028

                     73                     74                     75
                      A                      A                      A
 Frequencies --   3258.5225              3277.4304              3727.1373
 Red. masses --      1.0894                 1.1036                 1.0658
 Frc consts  --      6.8154                 6.9842                 8.7234
 IR Inten    --      2.2376                 3.3720                15.6639

 - Thermochemistry -
 -------------------
 Temperature   298.150 Kelvin.  Pressure   1.00000 Atm.
 Atom     1 has atomic number  6 and mass  12.00000

 Molecular mass:   191.09463 amu.
 Principal axes and moments of inertia in atomic units:
                           1         2         3
     Eigenvalues --  1997.490082666.525504166.20474
           X            0.99958  -0.02684  -0.01068
           Y            0.02681   0.99963  -0.00344
           Z            0.01077   0.00316   0.99994
 This molecule is an asymmetric top.
 Rotational symmetry number  1.
 Warning -- assumption of classical behavior for rotation
           may cause significant error
 Rotational temperatures (Kelvin)      0.04336     0.03248     0.02079
 Rotational constants (GHZ):           0.90350     0.67681     0.43319
 Zero-point vibrational energy     591871.8 (Joules/Mol)
                                  141.46074 (Kcal/Mol)
 Warning -- explicit consideration of  19 degrees of freedom as
           vibrations may cause significant error
 Vibrational temperatures:     65.53    76.63   119.62   185.77   242.24
          (Kelvin)            294.23   312.12   362.13   403.55   447.22
                              501.19   542.40   575.20   697.08   734.89
                              750.84   793.43   852.41   878.89   909.60
                             1004.69  1027.03  1043.76  1074.05  1143.15
                             1209.03  1227.39  1229.25  1283.14  1355.21
                             1360.01  1451.56  1502.43  1558.23  1580.00
                             1601.55  1633.79  1650.67  1707.57  1739.81
                             1745.66  1771.47  1775.80  1827.60  1875.41
                             1953.27  1993.75  2010.97  2020.98  2027.70
                             2063.50  2075.34  2126.17  2153.07  2175.88
                             2184.56  2206.16  2212.94  2222.17  2269.25
                             2350.34  2405.37  4360.35  4364.33  4444.93
                             4447.13  4471.65  4544.52  4548.67  4587.40
                             4613.56  4648.10  4688.29  4715.49  5362.52

 Zero-point correction=                           0.225432 (Hartree/Particle)
 Thermal correction to Energy=                    0.237958
 Thermal correction to Enthalpy=                  0.238902
 Thermal correction to Gibbs Free Energy=         0.186231
 Sum of electronic and zero-point Energies=           -631.998890
 Sum of electronic and thermal Energies=              -631.986364
 Sum of electronic and thermal Enthalpies=            -631.985419
 Sum of electronic and thermal Free Energies=         -632.038091

                     E (Thermal)             CV                S
                      KCal/Mol        Cal/Mol-Kelvin    Cal/Mol-Kelvin
 Total                  149.321             48.526            110.856
 Electronic               0.000              0.000              0.000
 Translational            0.889              2.981             41.648
 Rotational               0.889              2.981             31.473
 Vibrational            147.544             42.565             37.734
 Vibration     1          0.595              1.979              5.002
 Vibration     2          0.596              1.976              4.692
 Vibration     3          0.600              1.961              3.815
 Vibration     4          0.612              1.924              2.959
 Vibration     5          0.625              1.881              2.454
 Vibration     6          0.640              1.833              2.092
 Vibration     7          0.646              1.815              1.985
 Vibration     8          0.664              1.760              1.719
 Vibration     9          0.680              1.710              1.531
 Vibration    10          0.700              1.653              1.358
 Vibration    11          0.726              1.579              1.174
 Vibration    12          0.748              1.519              1.051
 Vibration    13          0.766              1.471              0.963
 Vibration    14          0.841              1.284              0.698
 Vibration    15          0.866              1.226              0.632
 Vibration    16          0.877              1.202              0.606
 Vibration    17          0.907              1.136              0.541
 Vibration    18          0.950              1.048              0.463
 Vibration    19          0.970              1.009              0.431

                           ! Non-Optimized Parameters !
 Normal termination of Gaussian 16 at Thu Dec 10 09:24:52 2020.

 ----------------------------------------------------------------------
 # B3LYP/6-311++G(d,p) empiricaldispersion=gd3bj scf=xqc pop=npa geom=c
 heck
 ----------------------------------------------------------------------

 --------------------------------------
 CID_83968640_JID_4182_Energie_neutraal
 --------------------------------------
 Structure from the checkpoint file:  "JID_4182.chk"
 Charge =  0 Multiplicity = 1

 SCF Done:  E(RB3LYP) =  -632.404700054     A.U. after   14 cycles
 Normal termination of Gaussian 16 at Thu Dec 10 09:27:33 2020.

 ----------------------------------------------------------------------
 # B3LYP/6-311++G(d,p) empiricaldispersion=gd3bj scf=xqc pop=npa geom=c
 heck
 ----------------------------------------------------------------------

 ------------------------------------
 CID_83968640_JID_4182_Energie_kation
 ------------------------------------
 Structure from the checkpoint file:  "JID_4182.chk"
 Charge =  1 Multiplicity = 2

 SCF Done:  E(UB3LYP) =  -632.137266648     A.U. after   21 cycles
 Normal termination of Gaussian 16 at Thu Dec 10 09:32:46 2020.
 Gaussian 16:  ES64L-G16RevA.03 25-Dec-2016

 ----------------------------------------------------------------------
 # B3LYP/6-311++G(d,p) empiricaldispersion=gd3bj scf=xqc pop=npa geom=c
 heck
 ----------------------------------------------------------------------

 -----------------------------------
 CID_83968640_JID_4182_Energie_anion
 -----------------------------------
 Structure from the checkpoint file:  "JID_4182.chk"
 Charge = -1 Multiplicity = 2

                         Standard orientation:
 ---------------------------------------------------------------------
 Center     Atomic      Atomic             Coordinates (Angstroms)
 Number     Number       Type             X           Y           Z
 ---------------------------------------------------------------------
      1          6           0       -1.574918    3.013558   -0.161432
      2          8           0       -0.680319    1.928155   -0.341719
      3          6           0       -1.159314    0.663856   -0.105038
      4          6           0       -2.457704    0.364444    0.291570
      5          6           0       -2.857037   -0.972330    0.515364
      6          6           0       -1.978782   -2.028219    0.357718
      7          6           0       -0.655176   -1.749144   -0.035825
      8          6           0       -0.257360   -0.405054   -0.273063
      9          7           0        1.074964   -0.414758   -0.664664
     10          6           0        1.517721   -1.728285   -0.643748
     11          6           0        0.497495   -2.567735   -0.278113
     12          6           0        1.964634    0.731848   -0.802400
     13          6           0        2.443061    1.228918    0.564441
     14          8           0        3.143888    0.224018    1.278679
     15          1           0       -1.003239    3.914784   -0.389373
     16          1           0       -1.939987    3.063055    0.872410
     17          1           0       -2.432215    2.941658   -0.842767
     18          1           0       -3.180895    1.158451    0.432575
     19          1           0       -3.882568   -1.160994    0.819597
     20          1           0       -2.296042   -3.051438    0.535023
     21          1           0        2.542516   -1.945414   -0.910670
     22          1           0        0.551759   -3.644935   -0.205981
     23          1           0        2.824267    0.405078   -1.394984
     24          1           0        1.445780    1.526689   -1.339511
     25          1           0        3.146224    2.056681    0.424485
     26          1           0        1.580466    1.607395    1.131298
     27          1           0        2.514913   -0.496230    1.448025
 ---------------------------------------------------------------------

 SCF Done:  E(UB3LYP) =  -632.390193555     A.U. after   33 cycles
 SCF Done:  E(UB3LYP) =  -632.390193554     a.u. after    1 cycles

 The electronic state is 2-A.
 Alpha  occ. eigenvalues --  -19.05740 -19.03500 -14.27062 -10.14079 -10.12415
 Alpha  occ. eigenvalues --  -10.11579 -10.11565 -10.11197 -10.10980 -10.08077
 Alpha  occ. eigenvalues --  -10.07440 -10.07215 -10.07212 -10.07025  -0.97203
 Alpha  occ. eigenvalues --   -0.93874  -0.89463  -0.75381  -0.71070  -0.66660
 Alpha  occ. eigenvalues --   -0.63844  -0.62316  -0.59744  -0.54950  -0.51960
 Alpha  occ. eigenvalues --   -0.49704  -0.47723  -0.43458  -0.42749  -0.41042
 Alpha  occ. eigenvalues --   -0.39582  -0.37752  -0.37129  -0.36794  -0.35763
 Alpha  occ. eigenvalues --   -0.35188  -0.32459  -0.31271  -0.30833  -0.30330
 Alpha  occ. eigenvalues --   -0.29546  -0.27919  -0.26258  -0.25616  -0.25043
 Alpha  occ. eigenvalues --   -0.23564  -0.22317  -0.19530  -0.16551  -0.13300
 Alpha  occ. eigenvalues --   -0.10755   0.04491
 Alpha virt. eigenvalues --    0.06405   0.06671   0.07630   0.08147   0.08287
 Alpha virt. eigenvalues --    0.08929   0.09926   0.10281   0.10359   0.10551
 Alpha virt. eigenvalues --    0.11120   0.11966   0.12827   0.13276   0.14015

  Beta  occ. eigenvalues --  -19.05729 -19.03495 -14.27063 -10.14080 -10.12397
  Beta  occ. eigenvalues --  -10.11562 -10.11497 -10.11181 -10.10975 -10.08075
  Beta  occ. eigenvalues --  -10.07433 -10.07209 -10.07207 -10.07004  -0.97181
  Beta  occ. eigenvalues --   -0.93862  -0.89454  -0.75365  -0.71049  -0.66633
  Beta  occ. eigenvalues --   -0.63815  -0.62282  -0.59671  -0.54911  -0.51928
  Beta  occ. eigenvalues --   -0.49665  -0.47691  -0.43421  -0.42729  -0.41005
  Beta  occ. eigenvalues --   -0.39547  -0.37710  -0.37104  -0.36755  -0.35729
  Beta  occ. eigenvalues --   -0.35157  -0.32432  -0.31236  -0.30800  -0.30295
  Beta  occ. eigenvalues --   -0.29518  -0.27889  -0.26240  -0.25579  -0.25026
  Beta  occ. eigenvalues --   -0.23515  -0.22292  -0.19512  -0.16527  -0.13267
  Beta  occ. eigenvalues --   -0.10732
  Beta virt. eigenvalues --    0.06478   0.07251   0.07472   0.07792   0.08793
  Beta virt. eigenvalues --    0.08902   0.09276   0.10181   0.10498   0.11066
  Beta virt. eigenvalues --    0.11292   0.11632   0.12127   0.12905   0.13901

 Mulliken charges and spin densities:
               1          2
     1  C    1.619885  -1.900917
     2  O   -0.261292   0.090639
     3  C   -1.618938   1.309998
     4  C    0.956435  -0.875516
     5  C    0.736215  -1.254947
     6  C   -0.072023  -0.408418
     7  C    0.410250  -0.016456
     8  C   -0.438510   0.395919
     9  N    0.106281   0.042237
    10  C   -0.281952   0.094333
    11  C    0.824222  -0.929964
    12  C   -0.313930   0.173870
    13  C    0.493550  -0.902350
    14  O   -0.286794   0.025291
    15  H   -0.939350   1.120111
    16  H   -0.428701   0.583694
    17  H   -0.472267   0.623247
    18  H   -0.179788   0.361029
    19  H   -0.348333   0.500095
    20  H   -0.000400   0.134207
    21  H   -0.134076   0.299437
    22  H   -0.087503   0.231655
    23  H   -0.263934   0.452342
    24  H   -0.076117   0.279933
    25  H   -0.357788   0.518609
    26  H    0.170514   0.035459
    27  H    0.244346   0.016463
 Sum of Mulliken charges =  -1.00000   1.00000

 Dipole moment (field-independent basis, Debye):
    X=              1.9693    Y=             -7.5874    Z=              0.2778  Tot=              7.8437
 Quadrupole moment (field-independent basis, Debye-Ang):
   XX=           -146.0959   YY=           -148.2445   ZZ=           -114.1494
   XY=              6.0168   XZ=              0.6052   YZ=              1.2349

 Summary of Natural Population Analysis:

                                       Natural Population
                Natural  -----------------------------------------------
    Atom  No    Charge         Core      Valence    Rydberg      Total
 -----------------------------------------------------------------------
      C    1   -0.09951      0.99960     2.09051    0.00940     3.09951
      O    2   -0.27801      0.99986     3.26707    0.01107     4.27801
      C    3    0.15450      0.99934     1.83335    0.01282     2.84550
      C    4   -0.14801      0.99953     2.13925    0.00923     3.14801
      C    5   -0.10301      0.99958     2.09238    0.01106     3.10301
      C    6   -0.11037      0.99953     2.10240    0.00844     3.11037
      C    7   -0.04288      0.99951     2.03458    0.00878     3.04288
      C    8    0.06210      0.99943     1.92649    0.01198     2.93790
      N    9   -0.20989      0.99963     2.69905    0.01122     3.70989
      C   10   -0.00222      0.99956     1.99098    0.01167     3.00222
      C   11   -0.14725      0.99953     2.13818    0.00954     3.14725
      C   12   -0.09657      0.99961     2.08539    0.01158     3.09657
      C   13   -0.01558      0.99960     2.00354    0.01243     3.01558
      O   14   -0.36904      0.99990     3.36270    0.00644     4.36904
      H   15    0.09866      0.00000     0.39782    0.00352     0.40134
      H   16    0.08658      0.00000     0.41084    0.00258     0.41342
      H   17    0.08666      0.00000     0.41072    0.00261     0.41334
      H   18    0.10934      0.00000     0.38903    0.00162     0.39066
      H   19    0.09947      0.00000     0.39958    0.00095     0.40053
      H   20    0.09837      0.00000     0.40043    0.00120     0.40163
      H   21    0.10315      0.00000     0.39582    0.00103     0.39685
      H   22    0.10517      0.00000     0.39403    0.00079     0.39483
      H   23    0.09866      0.00000     0.39989    0.00146     0.40134
      H   24    0.11560      0.00000     0.38259    0.00182     0.38440
      H   25    0.08973      0.00000     0.40869    0.00158     0.41027
      H   26    0.08462      0.00000     0.41378    0.00160     0.41538
      H   27    0.22973      0.00000     0.26707    0.00321     0.27027
 =======================================================================
   * Total *   -0.00000     13.99420    36.83616    0.16964    51.00000

 Normal termination of Gaussian 16 at Thu Dec 10 09:41:07 2020.
