 Gaussian 16, Revision A.03,

 -----------------------------------------------------------
 # opt freq B3LYP/6-31G(d) empiricaldispersion=gd3bj scf=xqc
 -----------------------------------------------------------

 ------------------------------
 CID_13891152_JID_3374_neutraal
 ------------------------------
 Symbolic Z-matrix:
 Charge =  0 Multiplicity = 1

 SCF Done:  E(RB3LYP) =  -573.030637466     A.U. after   15 cycles
 SCF Done:  E(RB3LYP) =  -573.036965532     A.U. after   13 cycles
 SCF Done:  E(RB3LYP) =  -573.039291273     A.U. after   13 cycles
 SCF Done:  E(RB3LYP) =  -573.040511579     A.U. after   12 cycles
 SCF Done:  E(RB3LYP) =  -573.042049944     A.U. after   12 cycles
 SCF Done:  E(RB3LYP) =  -573.043532446     A.U. after   14 cycles
 SCF Done:  E(RB3LYP) =  -573.044301808     A.U. after   13 cycles
 SCF Done:  E(RB3LYP) =  -573.045011177     A.U. after   12 cycles
 SCF Done:  E(RB3LYP) =  -573.045586240     A.U. after   12 cycles
 SCF Done:  E(RB3LYP) =  -573.045752894     A.U. after   12 cycles
 SCF Done:  E(RB3LYP) =  -573.045907924     A.U. after   11 cycles
 SCF Done:  E(RB3LYP) =  -573.045919276     A.U. after   10 cycles
 SCF Done:  E(RB3LYP) =  -573.045925394     A.U. after    9 cycles
 SCF Done:  E(RB3LYP) =  -573.045926436     A.U. after    8 cycles
 SCF Done:  E(RB3LYP) =  -573.045926554     A.U. after    7 cycles
 Optimization completed.
    -- Stationary point found.
 Normal termination of Gaussian 16 at Wed Dec  9 23:06:44 2020.

 --------------------------------------------------------------------
 #N Geom=AllCheck Guess=TCheck SCRF=Check GenChk RB3LYP/6-31G(d) Freq
 --------------------------------------------------------------------

 Structure from the checkpoint file:  "JID_3374.chk"
 ------------------------------
 CID_13891152_JID_3374_neutraal
 ------------------------------
 Charge =  0 Multiplicity = 1

 SCF Done:  E(RB3LYP) =  -573.045926554     A.U. after    1 cycles

  Exact polarizability: 155.160 -11.839 105.926  12.794  17.253  82.545
 Approx polarizability: 225.476 -32.364 176.103  24.926  36.216 131.531

                      1                      2                      3
                      A                      A                      A
 Frequencies --     38.0111                59.2154                96.3845
 Red. masses --      4.0716                 3.7301                 5.9980
 Frc consts  --      0.0035                 0.0077                 0.0328
 IR Inten    --      1.2704                 0.3531                 1.2236

                      4                      5                      6
                      A                      A                      A
 Frequencies --    126.5061               156.8348               218.3292
 Red. masses --      3.8549                 3.9722                 2.1123
 Frc consts  --      0.0363                 0.0576                 0.0593
 IR Inten    --      0.2096                 0.3228                 3.2275

                      7                      8                      9
                      A                      A                      A
 Frequencies --    240.5918               281.7479               339.5278
 Red. masses --      1.5471                 3.2386                 4.0428
 Frc consts  --      0.0528                 0.1515                 0.2746
 IR Inten    --      0.0675                 3.7927                 1.4677

                     10                     11                     12
                      A                      A                      A
 Frequencies --    382.4607               390.5806               421.2996
 Red. masses --      6.3726                 2.5669                 3.1602
 Frc consts  --      0.5492                 0.2307                 0.3305
 IR Inten    --      6.9968                 1.1331                 0.9965

                     13                     14                     15
                      A                      A                      A
 Frequencies --    457.3852               516.1445               573.4170
 Red. masses --      3.0835                 3.1261                 1.1536
 Frc consts  --      0.3801                 0.4907                 0.2235
 IR Inten    --     11.8439                 8.4063                85.7676

                     16                     17                     18
                      A                      A                      A
 Frequencies --    609.9863               632.6731               689.0973
 Red. masses --      5.6065                 5.9816                 4.8599
 Frc consts  --      1.2291                 1.4107                 1.3597
 IR Inten    --      6.3503                 1.2238                 4.3201

                     19                     20                     21
                      A                      A                      A
 Frequencies --    708.0329               718.6673               767.6794
 Red. masses --      3.0891                 2.8842                 1.9505
 Frc consts  --      0.9124                 0.8777                 0.6773
 IR Inten    --     16.5947                13.2381                73.1815

                     22                     23                     24
                      A                      A                      A
 Frequencies --    782.1517               834.8477               847.9295
 Red. masses --      3.9453                 3.5160                 1.2616
 Frc consts  --      1.4220                 1.4438                 0.5344
 IR Inten    --      2.5331                 4.6477                 0.1887

                     25                     26                     27
                      A                      A                      A
 Frequencies --    888.0358               915.1534               922.9727
 Red. masses --      3.6879                 1.4509                 1.2223
 Frc consts  --      1.7135                 0.7159                 0.6135
 IR Inten    --      4.5670                 3.1178                 2.5415

                     28                     29                     30
                      A                      A                      A
 Frequencies --    960.9569               965.6045               992.1846
 Red. masses --      3.3771                 1.3212                 1.2355
 Frc consts  --      1.8374                 0.7258                 0.7166
 IR Inten    --     28.8391                 0.2762                 1.6424

                     31                     32                     33
                      A                      A                      A
 Frequencies --   1019.7671              1054.4228              1059.3051
 Red. masses --      6.0589                 1.3304                 1.9524
 Frc consts  --      3.7123                 0.8715                 1.2908
 IR Inten    --      0.3592                 2.1514                 5.8292

                     34                     35                     36
                      A                      A                      A
 Frequencies --   1063.0564              1118.3583              1137.5031
 Red. masses --      2.0006                 1.5612                 1.3191
 Frc consts  --      1.3320                 1.1504                 1.0056
 IR Inten    --      3.3994                 4.6744                 0.8642

                     37                     38                     39
                      A                      A                      A
 Frequencies --   1160.3686              1172.3631              1193.5835
 Red. masses --      1.7627                 1.6931                 1.0886
 Frc consts  --      1.3983                 1.3711                 0.9138
 IR Inten    --     21.6579                11.1586                 0.4652

                     40                     41                     42
                      A                      A                      A
 Frequencies --   1206.5046              1214.6873              1250.6234
 Red. masses --      1.7993                 1.1322                 2.5693
 Frc consts  --      1.5431                 0.9842                 2.3677
 IR Inten    --      1.1240                 4.3546                50.3991

                     43                     44                     45
                      A                      A                      A
 Frequencies --   1302.7880              1350.5547              1369.4205
 Red. masses --      2.0913                 2.3961                 2.6403
 Frc consts  --      2.0913                 2.5750                 2.9173
 IR Inten    --    103.9759                60.9618                13.9775

                     46                     47                     48
                      A                      A                      A
 Frequencies --   1401.2319              1422.5458              1453.2193
 Red. masses --      3.4211                 1.4273                 1.4537
 Frc consts  --      3.9577                 1.7017                 1.8087
 IR Inten    --    487.7437                 9.9973                28.3245

                     49                     50                     51
                      A                      A                      A
 Frequencies --   1465.0685              1517.8184              1531.5376
 Red. masses --      1.7850                 1.0534                 1.0821
 Frc consts  --      2.2574                 1.4299                 1.4954
 IR Inten    --      5.0089                 7.1593                 4.8734

                     52                     53                     54
                      A                      A                      A
 Frequencies --   1532.2481              1540.7715              1553.1454
 Red. masses --      1.8305                 1.3303                 2.3468
 Frc consts  --      2.5321                 1.8607                 3.3354
 IR Inten    --     15.3034                 4.9330               102.1347

                     55                     56                     57
                      A                      A                      A
 Frequencies --   1648.4145              1667.7162              1791.4246
 Red. masses --      5.5838                 5.6184                 8.1730
 Frc consts  --      8.9395                 9.2068                15.4536
 IR Inten    --      8.8103                67.0796               512.6769

                     58                     59                     60
                      A                      A                      A
 Frequencies --   3055.8003              3122.0512              3128.6120
 Red. masses --      1.0352                 1.1013                 1.1000
 Frc consts  --      5.6954                 6.3247                 6.3437
 IR Inten    --     13.9500                13.9867                 5.7125

                     61                     62                     63
                      A                      A                      A
 Frequencies --   3136.9555              3148.9422              3178.0384
 Red. masses --      1.0525                 1.0927                 1.0872
 Frc consts  --      6.1020                 6.3840                 6.4694
 IR Inten    --     27.3564                29.9608                 9.9139

                     64                     65                     66
                      A                      A                      A
 Frequencies --   3188.9954              3198.4688              3213.6931
 Red. masses --      1.0874                 1.0924                 1.0970
 Frc consts  --      6.5157                 6.5844                 6.6752
 IR Inten    --      1.0339                27.7383                23.3815

                     67                     68                     69
                      A                      A                      A
 Frequencies --   3221.6244              3248.4579              3612.8281
 Red. masses --      1.1202                 1.0923                 1.0758
 Frc consts  --      6.8498                 6.7911                 8.2736
 IR Inten    --     11.9453                 0.7922                33.2448

 - Thermochemistry -
 -------------------
 Temperature   298.150 Kelvin.  Pressure   1.00000 Atm.
 Atom     1 has atomic number  6 and mass  12.00000

 Molecular mass:   176.09496 amu.
 Principal axes and moments of inertia in atomic units:
                           1         2         3
     Eigenvalues --  1155.579863313.885233691.26051
           X            0.99987   0.01563  -0.00453
           Y           -0.01547   0.99933   0.03322
           Z            0.00505  -0.03315   0.99944
 This molecule is an asymmetric top.
 Rotational symmetry number  1.
 Warning -- assumption of classical behavior for rotation
           may cause significant error
 Rotational temperatures (Kelvin)      0.07495     0.02614     0.02346
 Rotational constants (GHZ):           1.56176     0.54460     0.48892
 Zero-point vibrational energy     545421.3 (Joules/Mol)
                                  130.35883 (Kcal/Mol)
 Warning -- explicit consideration of  16 degrees of freedom as
           vibrations may cause significant error
 Vibrational temperatures:     54.69    85.20   138.68   182.01   225.65
          (Kelvin)            314.13   346.16   405.37   488.50   550.28
                              561.96   606.16   658.08   742.62   825.02
                              877.63   910.28   991.46  1018.70  1034.00
                             1104.52  1125.34  1201.16  1219.98  1277.69
                             1316.70  1327.95  1382.60  1389.29  1427.53
                             1467.22  1517.08  1524.10  1529.50  1609.07
                             1636.61  1669.51  1686.77  1717.30  1735.89
                             1747.66  1799.37  1874.42  1943.15  1970.29
                             2016.06  2046.73  2090.86  2107.91  2183.80
                             2203.54  2204.56  2216.83  2234.63  2371.70
                             2399.47  2577.46  4396.62  4491.94  4501.37
                             4513.38  4530.63  4572.49  4588.25  4601.88
                             4623.79  4635.20  4673.81  5198.05

 Zero-point correction=                           0.207740 (Hartree/Particle)
 Thermal correction to Energy=                    0.219301
 Thermal correction to Enthalpy=                  0.220246
 Thermal correction to Gibbs Free Energy=         0.169489
 Sum of electronic and zero-point Energies=           -572.838187
 Sum of electronic and thermal Energies=              -572.826625
 Sum of electronic and thermal Enthalpies=            -572.825681
 Sum of electronic and thermal Free Energies=         -572.876437

                     E (Thermal)             CV                S
                      KCal/Mol        Cal/Mol-Kelvin    Cal/Mol-Kelvin
 Total                  137.614             44.599            106.826
 Electronic               0.000              0.000              0.000
 Translational            0.889              2.981             41.405
 Rotational               0.889              2.981             31.025
 Vibrational            135.836             38.637             34.396
 Vibration     1          0.594              1.982              5.360
 Vibration     2          0.597              1.974              4.483
 Vibration     3          0.603              1.952              3.526
 Vibration     4          0.611              1.927              2.998
 Vibration     5          0.620              1.895              2.588
 Vibration     6          0.646              1.813              1.973
 Vibration     7          0.658              1.778              1.798
 Vibration     8          0.681              1.707              1.523
 Vibration     9          0.719              1.597              1.214
 Vibration    10          0.752              1.508              1.029
 Vibration    11          0.758              1.490              0.998
 Vibration    12          0.784              1.424              0.888
 Vibration    13          0.816              1.345              0.774
 Vibration    14          0.871              1.214              0.619
 Vibration    15          0.930              1.089              0.498
 Vibration    16          0.969              1.011              0.433

 Optimization completed.
    -- Stationary point found.
 Normal termination of Gaussian 16 at Wed Dec  9 23:13:36 2020.

 ----------------------------------------------------------------------
 # B3LYP/6-311++G(d,p) empiricaldispersion=gd3bj scf=xqc pop=npa geom=c
 heck
 ----------------------------------------------------------------------

 --------------------------------------
 CID_13891152_JID_3374_Energie_neutraal
 --------------------------------------
 Structure from the checkpoint file:  "JID_3374.chk"
 Charge =  0 Multiplicity = 1

 SCF Done:  E(RB3LYP) =  -573.205323574     A.U. after   15 cycles
 Normal termination of Gaussian 16 at Wed Dec  9 23:16:38 2020.

 ----------------------------------------------------------------------
 # B3LYP/6-311++G(d,p) empiricaldispersion=gd3bj scf=xqc pop=npa geom=c
 heck
 ----------------------------------------------------------------------

 ------------------------------------
 CID_13891152_JID_3374_Energie_kation
 ------------------------------------
 Structure from the checkpoint file:  "JID_3374.chk"
 Charge =  1 Multiplicity = 2

 SCF Done:  E(UB3LYP) =  -572.907570685     A.U. after   23 cycles
 Normal termination of Gaussian 16 at Wed Dec  9 23:23:19 2020.
 Gaussian 16:  ES64L-G16RevA.03 25-Dec-2016

 ----------------------------------------------------------------------
 # B3LYP/6-311++G(d,p) empiricaldispersion=gd3bj scf=xqc pop=npa geom=c
 heck
 ----------------------------------------------------------------------

 -----------------------------------
 CID_13891152_JID_3374_Energie_anion
 -----------------------------------
 Structure from the checkpoint file:  "JID_3374.chk"
 Charge = -1 Multiplicity = 2

                         Standard orientation:
 ---------------------------------------------------------------------
 Center     Atomic      Atomic             Coordinates (Angstroms)
 Number     Number       Type             X           Y           Z
 ---------------------------------------------------------------------
      1          6           0       -1.377025   -1.027532    1.781134
      2          6           0       -1.663731   -1.408336    0.348033
      3          6           0       -2.964209   -1.039415   -0.292707
      4          7           0       -1.738895   -0.374791   -0.699456
      5          6           0       -1.573091    0.982185   -0.384917
      6          8           0       -2.488432    1.789831   -0.333376
      7          7           0       -0.264729    1.376562   -0.168468
      8          6           0        0.943987    0.651782   -0.168376
      9          6           0        1.977058    1.106712    0.665162
     10          6           0        3.206172    0.453334    0.687787
     11          6           0        3.421651   -0.671014   -0.110197
     12          6           0        2.395492   -1.120576   -0.941950
     13          6           0        1.165966   -0.465744   -0.986257
     14          1           0       -1.691147   -1.835988    2.450676
     15          1           0       -1.918804   -0.119509    2.065558
     16          1           0       -0.306842   -0.854263    1.933940
     17          1           0       -1.163178   -2.313619    0.006376
     18          1           0       -3.409673   -1.686869   -1.044031
     19          1           0       -3.668842   -0.447461    0.287392
     20          1           0       -0.214310    2.340610    0.133416
     21          1           0        1.806798    1.972872    1.300067
     22          1           0        3.993789    0.821744    1.339011
     23          1           0        4.376997   -1.186327   -0.087211
     24          1           0        2.553520   -1.986065   -1.579589
     25          1           0        0.380887   -0.804543   -1.649403
 ---------------------------------------------------------------------

 SCF Done:  E(UB3LYP) =  -573.191592634     A.U. after   33 cycles
 SCF Done:  E(UB3LYP) =  -573.191592634     a.u. after    1 cycles

 The electronic state is 2-A.
 Alpha  occ. eigenvalues --  -19.00138 -14.25659 -14.24033 -10.20964 -10.12859
 Alpha  occ. eigenvalues --  -10.12804 -10.11414 -10.08036 -10.07973 -10.07947
 Alpha  occ. eigenvalues --  -10.07619 -10.07549 -10.07437  -0.96851  -0.88523
 Alpha  occ. eigenvalues --   -0.84920  -0.75420  -0.66477  -0.65399  -0.64790
 Alpha  occ. eigenvalues --   -0.61588  -0.53196  -0.52095  -0.51471  -0.46759
 Alpha  occ. eigenvalues --   -0.44615  -0.41556  -0.41030  -0.39659  -0.36087
 Alpha  occ. eigenvalues --   -0.35908  -0.34150  -0.33843  -0.32871  -0.31424
 Alpha  occ. eigenvalues --   -0.31163  -0.28250  -0.28089  -0.27449  -0.25819
 Alpha  occ. eigenvalues --   -0.25337  -0.24815  -0.21367  -0.19079  -0.16631
 Alpha  occ. eigenvalues --   -0.16206  -0.13007   0.04338
 Alpha virt. eigenvalues --    0.06241   0.06913   0.07488   0.07833   0.07985
 Alpha virt. eigenvalues --    0.08397   0.09227   0.10322   0.10724   0.10897
 Alpha virt. eigenvalues --    0.11648   0.12551   0.12945   0.13521   0.14175

  Beta  occ. eigenvalues --  -19.00133 -14.25652 -14.24032 -10.20962 -10.12860
  Beta  occ. eigenvalues --  -10.12788 -10.11396 -10.08011 -10.07950 -10.07925
  Beta  occ. eigenvalues --  -10.07606 -10.07520 -10.07423  -0.96843  -0.88510
  Beta  occ. eigenvalues --   -0.84906  -0.75383  -0.66445  -0.65351  -0.64753
  Beta  occ. eigenvalues --   -0.61553  -0.53168  -0.52036  -0.51421  -0.46722
  Beta  occ. eigenvalues --   -0.44565  -0.41516  -0.40992  -0.39602  -0.36061
  Beta  occ. eigenvalues --   -0.35877  -0.34112  -0.33813  -0.32828  -0.31392
  Beta  occ. eigenvalues --   -0.31136  -0.28207  -0.28053  -0.27406  -0.25786
  Beta  occ. eigenvalues --   -0.25309  -0.24787  -0.21339  -0.19066  -0.16617
  Beta  occ. eigenvalues --   -0.16150  -0.12982
  Beta virt. eigenvalues --    0.06699   0.07147   0.07583   0.07924   0.07946
  Beta virt. eigenvalues --    0.08676   0.09169   0.09760   0.10775   0.11110
  Beta virt. eigenvalues --    0.11224   0.12257   0.12761   0.13070   0.13959

 Mulliken charges and spin densities:
               1          2
     1  C    0.887659  -1.602881
     2  C   -1.253243   1.456723
     3  C    0.910622  -1.284233
     4  N   -0.025863   0.011818
     5  C    0.672045  -0.611306
     6  O   -0.352476   0.030537
     7  N   -0.330425   0.073001
     8  C    1.152663  -0.867389
     9  C   -1.433015   1.068415
    10  C    0.415334  -0.691146
    11  C    1.752241  -2.138061
    12  C   -0.927220   0.684857
    13  C    0.326626  -0.206555
    14  H   -0.525107   0.686917
    15  H   -0.152434   0.324511
    16  H    0.425098  -0.264723
    17  H   -0.584059   0.800826
    18  H   -0.315315   0.477269
    19  H    0.143779   0.023133
    20  H    0.255740   0.058868
    21  H   -0.564980   0.724548
    22  H   -0.825622   1.014554
    23  H   -0.265470   0.417588
    24  H   -0.629072   0.811501
    25  H    0.242493   0.001230
 Sum of Mulliken charges =  -1.00000   1.00000

 Dipole moment (field-independent basis, Debye):
    X=             -3.1273    Y=              2.1063    Z=             -1.6174  Tot=              4.1027
 Quadrupole moment (field-independent basis, Debye-Ang):
   XX=           -149.7769   YY=           -124.4931   ZZ=           -113.2533
   XY=             -0.5014   XZ=             -5.7691   YZ=             -2.0435

 Summary of Natural Population Analysis:

                                       Natural Population
                Natural  -----------------------------------------------
    Atom  No    Charge         Core      Valence    Rydberg      Total
 -----------------------------------------------------------------------
      C    1   -0.29982      0.99964     2.29404    0.00614     3.29982
      C    2   -0.01006      0.99962     1.99745    0.01299     3.01006
      C    3   -0.09166      0.99960     2.07991    0.01215     3.09166
      N    4   -0.27298      0.99966     2.76159    0.01173     3.77298
      C    5    0.41116      0.99966     1.56524    0.02393     2.58884
      O    6   -0.32591      0.99987     3.32098    0.00506     4.32591
      N    7   -0.31114      0.99963     2.80196    0.00954     3.81114
      C    8    0.07345      0.99947     1.91484    0.01225     2.92655
      C    9   -0.11298      0.99952     2.10276    0.01069     3.11298
      C   10   -0.09219      0.99956     2.08188    0.01075     3.09219
      C   11   -0.10960      0.99956     2.09986    0.01018     3.10960
      C   12   -0.09111      0.99957     2.08083    0.01071     3.09111
      C   13   -0.11636      0.99951     2.10724    0.00961     3.11636
      H   14    0.10821      0.00000     0.39055    0.00124     0.39179
      H   15    0.10211      0.00000     0.39677    0.00112     0.39789
      H   16    0.10982      0.00000     0.38880    0.00138     0.39018
      H   17    0.10312      0.00000     0.39445    0.00243     0.39688
      H   18    0.09915      0.00000     0.39968    0.00117     0.40085
      H   19    0.10205      0.00000     0.39700    0.00095     0.39795
      H   20    0.19828      0.00000     0.29945    0.00227     0.30172
      H   21    0.10225      0.00000     0.39582    0.00193     0.39775
      H   22    0.10450      0.00000     0.39291    0.00259     0.39550
      H   23    0.10311      0.00000     0.39529    0.00160     0.39689
      H   24    0.10265      0.00000     0.39599    0.00136     0.39735
      H   25    0.11395      0.00000     0.38402    0.00203     0.38605
 =======================================================================
   * Total *   -0.00000     12.99489    33.83933    0.16578    47.00000

 Normal termination of Gaussian 16 at Wed Dec  9 23:32:51 2020.
