 Gaussian 16, Revision A.03,

 -----------------------------------------------------------
 # opt freq B3LYP/6-31G(d) empiricaldispersion=gd3bj scf=xqc
 -----------------------------------------------------------

 -------------------------------
 CID_105944007_JID_9036_neutraal
 -------------------------------
 Symbolic Z-matrix:
 Charge =  0 Multiplicity = 1

 SCF Done:  E(RB3LYP) =  -914.073667639     A.U. after   15 cycles
 SCF Done:  E(RB3LYP) =  -914.076325164     A.U. after   13 cycles
 SCF Done:  E(RB3LYP) =  -914.073237972     A.U. after   14 cycles
 SCF Done:  E(RB3LYP) =  -914.079389711     A.U. after   12 cycles
 SCF Done:  E(RB3LYP) =  -914.081099577     A.U. after   13 cycles
 SCF Done:  E(RB3LYP) =  -914.083332926     A.U. after   13 cycles
 SCF Done:  E(RB3LYP) =  -914.084267701     A.U. after   13 cycles
 SCF Done:  E(RB3LYP) =  -914.086204068     A.U. after   13 cycles
 SCF Done:  E(RB3LYP) =  -914.087849246     A.U. after   14 cycles
 SCF Done:  E(RB3LYP) =  -914.089375223     A.U. after   12 cycles
 SCF Done:  E(RB3LYP) =  -914.091738102     A.U. after    8 cycles
 SCF Done:  E(RB3LYP) =  -914.091738195     A.U. after    7 cycles
 SCF Done:  E(RB3LYP) =  -914.091738256     A.U. after    7 cycles
 SCF Done:  E(RB3LYP) =  -914.091738288     A.U. after    7 cycles
 Optimization completed.
    -- Stationary point found.
 Normal termination of Gaussian 16 at Thu Dec 17 20:33:09 2020.

 --------------------------------------------------------------------
 #N Geom=AllCheck Guess=TCheck SCRF=Check GenChk RB3LYP/6-31G(d) Freq
 --------------------------------------------------------------------

 Structure from the checkpoint file:  "JID_9036.chk"
 -------------------------------
 CID_105944007_JID_9036_neutraal
 -------------------------------
 Charge =  0 Multiplicity = 1

 SCF Done:  E(RB3LYP) =  -914.091738288     A.U. after    1 cycles

  Exact polarizability: 204.684  -2.742 151.407  -3.033  -1.012 115.234
 Approx polarizability: 259.853   3.521 229.930  -3.977  -1.034 182.896

                      1                      2                      3
                      A                      A                      A
 Frequencies --     10.2770                24.0201                28.2009
 Red. masses --      4.1658                 6.2858                 5.7644
 Frc consts  --      0.0003                 0.0021                 0.0027
 IR Inten    --      1.2225                 0.4420                 1.0785

                      4                      5                      6
                      A                      A                      A
 Frequencies --     36.6023                47.1357                55.0340
 Red. masses --      4.1358                 3.0183                 1.3096
 Frc consts  --      0.0033                 0.0040                 0.0023
 IR Inten    --      1.8163                 0.4562                 0.2423

                      7                      8                      9
                      A                      A                      A
 Frequencies --     80.7843                89.8299                92.8241
 Red. masses --      5.5289                 4.2583                 4.5239
 Frc consts  --      0.0213                 0.0202                 0.0230
 IR Inten    --      0.5728                 1.2703                 0.3526

                     10                     11                     12
                      A                      A                      A
 Frequencies --    105.5832               121.5486               160.6657
 Red. masses --      5.8204                 4.7963                 3.4131
 Frc consts  --      0.0382                 0.0417                 0.0519
 IR Inten    --      1.9543                 3.9751                 3.1564

                     13                     14                     15
                      A                      A                      A
 Frequencies --    189.9588               223.1946               242.9672
 Red. masses --      3.6703                 2.9490                 1.2991
 Frc consts  --      0.0780                 0.0866                 0.0452
 IR Inten    --      1.6679                 1.7947                 1.3181

                     16                     17                     18
                      A                      A                      A
 Frequencies --    250.2538               280.8443               288.5693
 Red. masses --      2.8266                 3.4584                 2.1087
 Frc consts  --      0.1043                 0.1607                 0.1035
 IR Inten    --      3.4565                 0.1148                 1.2648

                     19                     20                     21
                      A                      A                      A
 Frequencies --    344.7507               376.8917               380.9772
 Red. masses --      2.3258                 3.1244                 2.9475
 Frc consts  --      0.1629                 0.2615                 0.2521
 IR Inten    --      4.4392                 3.4531                 0.9584

                     22                     23                     24
                      A                      A                      A
 Frequencies --    415.2838               433.8381               496.3122
 Red. masses --      2.3251                 2.8354                 2.7518
 Frc consts  --      0.2363                 0.3144                 0.3994
 IR Inten    --      1.4349                 2.0311                 8.2925

                     25                     26                     27
                      A                      A                      A
 Frequencies --    508.0689               534.7451               567.6448
 Red. masses --      2.3867                 4.1222                 3.9038
 Frc consts  --      0.3630                 0.6945                 0.7411
 IR Inten    --      3.0076                24.8156                31.8167

                     28                     29                     30
                      A                      A                      A
 Frequencies --    588.2392               612.7899               636.3233
 Red. masses --      3.3819                 3.6436                 1.4773
 Frc consts  --      0.6895                 0.8061                 0.3524
 IR Inten    --     15.8840                 0.7798                68.7980

                     31                     32                     33
                      A                      A                      A
 Frequencies --    637.7775               666.3707               707.5857
 Red. masses --      2.9048                 5.0272                 2.0660
 Frc consts  --      0.6962                 1.3153                 0.6094
 IR Inten    --      8.7278                 4.1424                 6.0502

                     34                     35                     36
                      A                      A                      A
 Frequencies --    724.5377               742.4614               788.5852
 Red. masses --      3.0522                 2.6704                 1.3332
 Frc consts  --      0.9440                 0.8673                 0.4885
 IR Inten    --     22.5121                70.5126                 9.6226

                     37                     38                     39
                      A                      A                      A
 Frequencies --    792.1785               821.3298               846.2321
 Red. masses --      2.9117                 2.6087                 2.6420
 Frc consts  --      1.0766                 1.0368                 1.1147
 IR Inten    --     22.1265                 3.0350                99.5908

                     40                     41                     42
                      A                      A                      A
 Frequencies --    859.4036               864.5088               886.3110
 Red. masses --      1.2929                 1.9203                 1.5882
 Frc consts  --      0.5626                 0.8456                 0.7351
 IR Inten    --     10.5916                37.4481                54.2028

                     43                     44                     45
                      A                      A                      A
 Frequencies --    933.9257               935.8373               968.1413
 Red. masses --      1.6884                 2.1249                 2.0911
 Frc consts  --      0.8677                 1.0964                 1.1548
 IR Inten    --     14.9880                 2.4032                10.8073

                     46                     47                     48
                      A                      A                      A
 Frequencies --    983.8283              1012.5415              1015.4292
 Red. masses --      1.7437                 1.7069                 1.9987
 Frc consts  --      0.9944                 1.0311                 1.2142
 IR Inten    --     11.8120                26.9628                11.5042

                     49                     50                     51
                      A                      A                      A
 Frequencies --   1021.1265              1049.5068              1052.0046
 Red. masses --      2.9292                 3.9103                 2.3387
 Frc consts  --      1.7995                 2.5376                 1.5250
 IR Inten    --     48.2507                 7.0008                 3.1412

                     52                     53                     54
                      A                      A                      A
 Frequencies --   1079.0660              1095.0914              1110.7554
 Red. masses --      1.4461                 2.2476                 2.2476
 Frc consts  --      0.9921                 1.5881                 1.6338
 IR Inten    --      1.8591                 2.5645                99.5288

                     55                     56                     57
                      A                      A                      A
 Frequencies --   1125.3669              1151.5164              1165.1693
 Red. masses --      1.9944                 2.7574                 2.0888
 Frc consts  --      1.4882                 2.1543                 1.6708
 IR Inten    --     57.4593                 2.7006                91.8088

                     58                     59                     60
                      A                      A                      A
 Frequencies --   1190.0327              1198.0696              1221.1425
 Red. masses --      1.7688                 2.0748                 1.5645
 Frc consts  --      1.4759                 1.7547                 1.3745
 IR Inten    --     49.2259                38.2235                13.8967

                     61                     62                     63
                      A                      A                      A
 Frequencies --   1252.6455              1260.8827              1265.4472
 Red. masses --      1.3744                 1.3040                 1.4797
 Frc consts  --      1.2706                 1.2214                 1.3961
 IR Inten    --    132.0166                32.2233                17.0605

                     64                     65                     66
                      A                      A                      A
 Frequencies --   1280.7667              1337.0346              1354.3061
 Red. masses --      1.6260                 1.3639                 1.7273
 Frc consts  --      1.5715                 1.4365                 1.8666
 IR Inten    --     21.9576                16.1445                13.9846

                     67                     68                     69
                      A                      A                      A
 Frequencies --   1370.9772              1376.3060              1385.1052
 Red. masses --      1.3581                 1.5656                 1.8481
 Frc consts  --      1.5040                 1.7472                 2.0890
 IR Inten    --      5.0393                60.8705                62.7097

                     70                     71                     72
                      A                      A                      A
 Frequencies --   1398.8869              1408.7596              1416.9372
 Red. masses --      2.0794                 1.7142                 2.3165
 Frc consts  --      2.3974                 2.0044                 2.7402
 IR Inten    --     17.1953                97.3804                 3.5411

                     73                     74                     75
                      A                      A                      A
 Frequencies --   1420.0594              1433.2520              1437.9761
 Red. masses --      1.6661                 1.8576                 2.4709
 Frc consts  --      1.9795                 2.2482                 3.0103
 IR Inten    --     17.7229               135.4304                 3.4887

                     76                     77                     78
                      A                      A                      A
 Frequencies --   1440.2318              1452.8584              1475.7252
 Red. masses --      1.3896                 1.5088                 3.9259
 Frc consts  --      1.6983                 1.8764                 5.0373
 IR Inten    --     67.3235                 3.7018                21.7007

                     79                     80                     81
                      A                      A                      A
 Frequencies --   1484.5798              1496.2109              1508.1364
 Red. masses --      1.2531                 1.1167                 1.3559
 Frc consts  --      1.6272                 1.4729                 1.8170
 IR Inten    --      3.4224                11.6800                93.7124

                     82                     83                     84
                      A                      A                      A
 Frequencies --   1513.8395              1516.1459              1516.2887
 Red. masses --      1.0877                 1.0782                 1.0754
 Frc consts  --      1.4686                 1.4603                 1.4568
 IR Inten    --      0.1913                 7.4426                 1.1915

                     85                     86                     87
                      A                      A                      A
 Frequencies --   1523.9582              1525.7379              1529.2419
 Red. masses --      1.1005                 1.0849                 1.0670
 Frc consts  --      1.5058                 1.4880                 1.4701
 IR Inten    --      9.1931                 4.1338                 5.7465

                     88                     89                     90
                      A                      A                      A
 Frequencies --   1534.8701              1629.6877              1803.2634
 Red. masses --      1.1286                 4.9619                 6.2969
 Frc consts  --      1.5666                 7.7644                12.0640
 IR Inten    --      8.0084                 4.7521               397.4462

                     91                     92                     93
                      A                      A                      A
 Frequencies --   1833.1161              3042.3492              3043.6903
 Red. masses --      9.1935                 1.0609                 1.0370
 Frc consts  --     18.2018                 5.7854                 5.6604
 IR Inten    --    328.9385                 8.6211                51.2741

                     94                     95                     96
                      A                      A                      A
 Frequencies --   3047.3754              3060.9867              3069.7660
 Red. masses --      1.0435                 1.0659                 1.0679
 Frc consts  --      5.7093                 5.8840                 5.9291
 IR Inten    --     33.7142                23.9264                14.7888

                     97                     98                     99
                      A                      A                      A
 Frequencies --   3093.8164              3095.5102              3097.6353
 Red. masses --      1.1015                 1.0835                 1.0746
 Frc consts  --      6.2120                 6.1173                 6.0750
 IR Inten    --     22.3514                 9.3608                26.6214

                    100                    101                    102
                      A                      A                      A
 Frequencies --   3106.1964              3119.7434              3120.2145
 Red. masses --      1.0978                 1.0980                 1.1008
 Frc consts  --      6.2406                 6.2964                 6.3140
 IR Inten    --      1.2143                49.7274                19.4856

                    103                    104                    105
                      A                      A                      A
 Frequencies --   3126.6205              3134.5268              3158.4879
 Red. masses --      1.0998                 1.1018                 1.0958
 Frc consts  --      6.3347                 6.3779                 6.4406
 IR Inten    --     15.7982                20.1278                 8.4728

                    106                    107                    108
                      A                      A                      A
 Frequencies --   3216.0279              3250.2546              3267.4914
 Red. masses --      1.0903                 1.0959                 1.0975
 Frc consts  --      6.6438                 6.8208                 6.9039
 IR Inten    --      7.7943                 8.5513                 1.0122

                    109                    110                    111
                      A                      A                      A
 Frequencies --   3526.7796              3527.9385              3683.9592
 Red. masses --      1.0734                 1.0747                 1.0640
 Frc consts  --      7.8660                 7.8813                 8.5083
 IR Inten    --     30.9092               111.6296                49.0316

 - Thermochemistry -
 -------------------
 Temperature   298.150 Kelvin.  Pressure   1.00000 Atm.
 Atom     1 has atomic number  6 and mass  12.00000

 Molecular mass:   268.15354 amu.
 Principal axes and moments of inertia in atomic units:
                           1         2         3
     Eigenvalues --  2901.678509728.90389**********
           X            0.99985  -0.01701   0.00134
           Y            0.01703   0.99973  -0.01557
           Z           -0.00108   0.01559   0.99988
 This molecule is an asymmetric top.
 Rotational symmetry number  1.
 Warning -- assumption of classical behavior for rotation
           may cause significant error
 Rotational temperatures (Kelvin)      0.02985     0.00890     0.00731
 Rotational constants (GHZ):           0.62196     0.18550     0.15239
 Zero-point vibrational energy     872332.4 (Joules/Mol)
                                  208.49246 (Kcal/Mol)
 Warning -- explicit consideration of  29 degrees of freedom as
           vibrations may cause significant error
 Vibrational temperatures:     14.79    34.56    40.57    52.66    67.82
          (Kelvin)             79.18   116.23   129.25   133.55   151.91
                              174.88   231.16   273.31   321.13   349.58
                              360.06   404.07   415.19   496.02   542.26
                              548.14   597.50   624.20   714.08   731.00
                              769.38   816.71   846.35   881.67   915.53
                              917.62   958.76  1018.06  1042.45  1068.24
                             1134.60  1139.77  1181.71  1217.54  1236.49
                             1243.84  1275.20  1343.71  1346.46  1392.94
                             1415.51  1456.82  1460.98  1469.17  1510.01
                             1513.60  1552.54  1575.59  1598.13  1619.15
                             1656.78  1676.42  1712.19  1723.75  1756.95
                             1802.28  1814.13  1820.70  1842.74  1923.69
                             1948.54  1972.53  1980.20  1992.86  2012.69
                             2026.89  2038.66  2043.15  2062.13  2068.93
                             2072.17  2090.34  2123.24  2135.98  2152.71
                             2169.87  2178.08  2181.40  2181.60  2192.64
                             2195.20  2200.24  2208.34  2344.76  2594.49
                             2637.45  4377.26  4379.19  4384.49  4404.08
                             4416.71  4451.31  4453.75  4456.81  4469.12
                             4488.61  4489.29  4498.51  4509.88  4544.36
                             4627.15  4676.39  4701.19  5074.25  5075.92
                             5300.40

 Zero-point correction=                           0.332254 (Hartree/Particle)
 Thermal correction to Energy=                    0.352267
 Thermal correction to Enthalpy=                  0.353211
 Thermal correction to Gibbs Free Energy=         0.279011
 Sum of electronic and zero-point Energies=           -913.759484
 Sum of electronic and thermal Energies=              -913.739471
 Sum of electronic and thermal Enthalpies=            -913.738527
 Sum of electronic and thermal Free Energies=         -913.812727

                     E (Thermal)             CV                S
                      KCal/Mol        Cal/Mol-Kelvin    Cal/Mol-Kelvin
 Total                  221.051             72.238            156.166
 Electronic               0.000              0.000              0.000
 Translational            0.889              2.981             42.658
 Rotational               0.889              2.981             34.169
 Vibrational            219.273             66.276             79.340
 Vibration     1          0.593              1.987              7.957
 Vibration     2          0.593              1.985              6.271
 Vibration     3          0.593              1.984              5.952
 Vibration     4          0.594              1.982              5.435
 Vibration     5          0.595              1.979              4.934
 Vibration     6          0.596              1.976              4.628
 Vibration     7          0.600              1.962              3.872
 Vibration     8          0.602              1.956              3.664
 Vibration     9          0.602              1.954              3.600
 Vibration    10          0.605              1.945              3.349
 Vibration    11          0.609              1.931              3.076
 Vibration    12          0.622              1.891              2.542
 Vibration    13          0.633              1.854              2.228
 Vibration    14          0.649              1.806              1.933
 Vibration    15          0.659              1.774              1.781
 Vibration    16          0.663              1.762              1.729
 Vibration    17          0.681              1.709              1.529
 Vibration    18          0.685              1.695              1.482
 Vibration    19          0.723              1.586              1.190
 Vibration    20          0.747              1.519              1.052
 Vibration    21          0.751              1.511              1.035
 Vibration    22          0.779              1.437              0.908
 Vibration    23          0.795              1.396              0.846
 Vibration    24          0.852              1.258              0.667
 Vibration    25          0.863              1.232              0.638
 Vibration    26          0.890              1.173              0.577
 Vibration    27          0.924              1.101              0.509
 Vibration    28          0.945              1.057              0.470
 Vibration    29          0.972              1.005              0.428

                           ! Non-Optimized Parameters !
 Normal termination of Gaussian 16 at Thu Dec 17 20:51:17 2020.

 ----------------------------------------------------------------------
 # B3LYP/6-311++G(d,p) empiricaldispersion=gd3bj scf=xqc pop=npa geom=c
 heck
 ----------------------------------------------------------------------

 ---------------------------------------
 CID_105944007_JID_9036_Energie_neutraal
 ---------------------------------------
 Structure from the checkpoint file:  "JID_9036.chk"
 Charge =  0 Multiplicity = 1

 SCF Done:  E(RB3LYP) =  -914.365806131     A.U. after   14 cycles
 Normal termination of Gaussian 16 at Thu Dec 17 20:59:11 2020.

 ----------------------------------------------------------------------
 # B3LYP/6-311++G(d,p) empiricaldispersion=gd3bj scf=xqc pop=npa geom=c
 heck
 ----------------------------------------------------------------------

 -------------------------------------
 CID_105944007_JID_9036_Energie_kation
 -------------------------------------
 Structure from the checkpoint file:  "JID_9036.chk"
 Charge =  1 Multiplicity = 2

 SCF Done:  E(UB3LYP) =  -914.065997399     A.U. after   33 cycles
 SCF Done:  E(UB3LYP) =  -914.065997400     a.u. after    2 cycles
 Normal termination of Gaussian 16 at Thu Dec 17 21:46:31 2020.
 Gaussian 16:  ES64L-G16RevA.03 25-Dec-2016

 ----------------------------------------------------------------------
 # B3LYP/6-311++G(d,p) empiricaldispersion=gd3bj scf=xqc pop=npa geom=c
 heck
 ----------------------------------------------------------------------

 ------------------------------------
 CID_105944007_JID_9036_Energie_anion
 ------------------------------------
 Structure from the checkpoint file:  "JID_9036.chk"
 Charge = -1 Multiplicity = 2

                         Standard orientation:
 ---------------------------------------------------------------------
 Center     Atomic      Atomic             Coordinates (Angstroms)
 Number     Number       Type             X           Y           Z
 ---------------------------------------------------------------------
      1          6           0       -6.218607    0.883935   -0.204592
      2          6           0       -4.791519    0.451080   -0.049998
      3          6           0       -3.646507    1.164363   -0.364326
      4          7           0       -2.577916    0.385796   -0.047092
      5          7           0       -2.959979   -0.811334    0.455074
      6          6           0       -4.292745   -0.771858    0.457813
      7          6           0       -1.167332    0.685544   -0.259455
      8          6           0       -0.273603    0.068009    0.819447
      9          7           0       -0.108665   -1.379931    0.704589
     10          6           0        0.601187   -1.962657   -0.331485
     11          8           0        0.227733   -2.985182   -0.892121
     12          7           0        1.784882   -1.313544   -0.723990
     13          6           0        2.831079   -0.943967    0.246379
     14          6           0        3.464329   -2.172819    0.907791
     15          6           0        3.881290   -0.084516   -0.470849
     16          6           0        3.310561    1.195628   -1.104740
     17          6           0        2.782505    2.179724   -0.088600
     18          8           0        1.654776    2.626914   -0.041991
     19          8           0        3.730701    2.534124    0.814385
     20          1           0       -6.776320    0.209410   -0.865483
     21          1           0       -6.280761    1.889692   -0.632377
     22          1           0       -6.744291    0.901684    0.757931
     23          1           0       -3.517404    2.154076   -0.779923
     24          1           0       -4.851458   -1.621869    0.828672
     25          1           0       -0.850081    0.322971   -1.244732
     26          1           0       -1.052561    1.772866   -0.248523
     27          1           0        0.689141    0.566257    0.756170
     28          1           0       -0.693874    0.281706    1.806767
     29          1           0       -1.006687   -1.848966    0.804049
     30          1           0        2.176717   -1.868360   -1.481302
     31          1           0        2.363783   -0.342258    1.030632
     32          1           0        3.949209   -2.810849    0.158779
     33          1           0        4.220451   -1.876579    1.644040
     34          1           0        2.699940   -2.766704    1.417933
     35          1           0        4.675897    0.174707    0.236055
     36          1           0        4.347663   -0.684978   -1.263725
     37          1           0        4.100977    1.699737   -1.674064
     38          1           0        2.489522    0.954339   -1.781218
     39          1           0        3.302383    3.164567    1.423747
 ---------------------------------------------------------------------

 SCF Done:  E(UB3LYP) =  -914.358595083     A.U. after   33 cycles
 SCF Done:  E(UB3LYP) =  -914.358595083     a.u. after    1 cycles

 The electronic state is 2-A.
 Alpha  occ. eigenvalues --  -19.07464 -19.02375 -18.99758 -14.30836 -14.24977
 Alpha  occ. eigenvalues --  -14.23745 -14.23563 -10.21245 -10.20390 -10.13226
 Alpha  occ. eigenvalues --  -10.13090 -10.12345 -10.12269 -10.10786 -10.09488
 Alpha  occ. eigenvalues --  -10.09385 -10.09276 -10.09199 -10.08252  -1.01672
 Alpha  occ. eigenvalues --   -0.97107  -0.96040  -0.92738  -0.84491  -0.82140
 Alpha  occ. eigenvalues --   -0.76415  -0.72035  -0.71597  -0.66851  -0.66379
 Alpha  occ. eigenvalues --   -0.61876  -0.58885  -0.57142  -0.53185  -0.51584
 Alpha  occ. eigenvalues --   -0.50576  -0.50399  -0.48757  -0.44751  -0.42436
 Alpha  occ. eigenvalues --   -0.41446  -0.40551  -0.39616  -0.38494  -0.37709
 Alpha  occ. eigenvalues --   -0.37285  -0.36474  -0.35961  -0.35156  -0.34815
 Alpha  occ. eigenvalues --   -0.33934  -0.33768  -0.33032  -0.32785  -0.32320
 Alpha  occ. eigenvalues --   -0.31251  -0.30737  -0.30030  -0.29649  -0.29483
 Alpha  occ. eigenvalues --   -0.29294  -0.27566  -0.26482  -0.25547  -0.23417
 Alpha  occ. eigenvalues --   -0.22143  -0.19463  -0.19131  -0.17783  -0.17139
 Alpha  occ. eigenvalues --   -0.16209  -0.15853   0.03656
 Alpha virt. eigenvalues --    0.04772   0.06140   0.06821   0.07166   0.07673
 Alpha virt. eigenvalues --    0.07916   0.08372   0.08475   0.08984   0.09356
 Alpha virt. eigenvalues --    0.09727   0.10044   0.10474   0.11383   0.11532

  Beta  occ. eigenvalues --  -19.07399 -19.02332 -18.99757 -14.30837 -14.24974
  Beta  occ. eigenvalues --  -14.23738 -14.23562 -10.21193 -10.20390 -10.13221
  Beta  occ. eigenvalues --  -10.13082 -10.12341 -10.12258 -10.10783 -10.09487
  Beta  occ. eigenvalues --  -10.09356 -10.09250 -10.09169 -10.08239  -1.01558
  Beta  occ. eigenvalues --   -0.97104  -0.96037  -0.92639  -0.84484  -0.82130
  Beta  occ. eigenvalues --   -0.76410  -0.72021  -0.71546  -0.66827  -0.66336
  Beta  occ. eigenvalues --   -0.61845  -0.58803  -0.57124  -0.53103  -0.51567
  Beta  occ. eigenvalues --   -0.50525  -0.50318  -0.48740  -0.44730  -0.42422
  Beta  occ. eigenvalues --   -0.41425  -0.40473  -0.39560  -0.38377  -0.37677
  Beta  occ. eigenvalues --   -0.37269  -0.36451  -0.35937  -0.35129  -0.34765
  Beta  occ. eigenvalues --   -0.33912  -0.33727  -0.33008  -0.32740  -0.32279
  Beta  occ. eigenvalues --   -0.31214  -0.30721  -0.30016  -0.29603  -0.29452
  Beta  occ. eigenvalues --   -0.29280  -0.27530  -0.26437  -0.25500  -0.23264
  Beta  occ. eigenvalues --   -0.22137  -0.19457  -0.19049  -0.17777  -0.17132
  Beta  occ. eigenvalues --   -0.16203  -0.15846
  Beta virt. eigenvalues --    0.05366   0.06109   0.07043   0.07149   0.07571
  Beta virt. eigenvalues --    0.07708   0.08083   0.08482   0.08786   0.09427
  Beta virt. eigenvalues --    0.09793   0.09924   0.10252   0.10618   0.11404

 Mulliken charges and spin densities:
               1          2
     1  C    1.517091  -2.302710
     2  C   -0.584322   1.231780
     3  C    0.044290  -0.347668
     4  N    0.267607  -0.002267
     5  N   -0.091445   0.046255
     6  C   -0.691005   0.306909
     7  C   -0.215591  -0.427769
     8  C   -0.667008   0.231696
     9  N   -0.055115   0.004519
    10  C    0.075584  -0.101235
    11  O   -0.304641   0.002307
    12  N   -0.187136   0.067646
    13  C    0.235547  -0.233724
    14  C    0.327128  -0.734393
    15  C    0.019097  -0.465342
    16  C    0.204398  -0.405833
    17  C   -0.016439  -0.305055
    18  O   -0.234623   0.014626
    19  O   -0.164120   0.071573
    20  H   -0.035358   0.181648
    21  H   -0.255419   0.408257
    22  H   -0.076456   0.223302
    23  H   -0.248255   0.383106
    24  H    0.076037   0.049333
    25  H    0.184013   0.061030
    26  H    0.232981   0.004036
    27  H   -0.192566   0.308309
    28  H    0.052473   0.164266
    29  H    0.370087  -0.006114
    30  H    0.307976  -0.022704
    31  H    0.164039  -0.014891
    32  H    0.071520   0.071245
    33  H   -0.029099   0.184192
    34  H    0.112953   0.061372
    35  H    0.114424   0.079054
    36  H   -0.311128   0.467358
    37  H   -0.616328   0.857852
    38  H    0.063805   0.113923
    39  H   -0.464999   0.774110
 Sum of Mulliken charges =  -1.00000   1.00000

 Dipole moment (field-independent basis, Debye):
    X=             -2.6713    Y=             -3.7028    Z=              0.6889  Tot=              4.6174
 Quadrupole moment (field-independent basis, Debye-Ang):
   XX=           -224.0270   YY=           -175.3660   ZZ=           -146.3347
   XY=            -12.1904   XZ=             -2.4324   YZ=             -7.9505

 Summary of Natural Population Analysis:

                                       Natural Population
                Natural  -----------------------------------------------
    Atom  No    Charge         Core      Valence    Rydberg      Total
 -----------------------------------------------------------------------
      C    1   -0.29326      0.99964     2.28836    0.00526     3.29326
      C    2   -0.07388      0.99954     2.06476    0.00959     3.07388
      C    3   -0.00601      0.99950     1.99602    0.01049     3.00601
      N    4   -0.10360      0.99966     2.59221    0.01174     3.60360
      N    5   -0.16344      0.99972     2.65227    0.01145     3.66344
      C    6   -0.00995      0.99958     1.99682    0.01355     3.00995
      C    7   -0.08798      0.99960     2.07876    0.00962     3.08798
      C    8   -0.09856      0.99960     2.08734    0.01162     3.09856
      N    9   -0.34020      0.99967     2.83124    0.00929     3.84020
      C   10    0.40926      0.99971     1.56700    0.02404     2.59074
      O   11   -0.33038      0.99987     3.32539    0.00512     4.33038
      N   12   -0.34571      0.99968     2.83605    0.00998     3.84571
      C   13   -0.01517      0.99959     2.00415    0.01143     3.01517
      C   14   -0.28926      0.99965     2.28513    0.00448     3.28926
      C   15   -0.18885      0.99960     2.17894    0.01031     3.18885
      C   16   -0.24027      0.99957     2.23089    0.00981     3.24027
      C   17    0.41363      0.99971     1.56154    0.02511     2.58637
      O   18   -0.31292      0.99987     3.30664    0.00641     4.31292
      O   19   -0.34604      0.99988     3.33896    0.00720     4.34604
      H   20    0.10344      0.00000     0.39561    0.00095     0.39656
      H   21    0.10531      0.00000     0.39362    0.00108     0.39469
      H   22    0.10359      0.00000     0.39542    0.00099     0.39641
      H   23    0.10569      0.00000     0.39337    0.00094     0.39431
      H   24    0.09708      0.00000     0.40211    0.00081     0.40292
      H   25    0.10153      0.00000     0.39729    0.00118     0.39847
      H   26    0.11175      0.00000     0.38707    0.00119     0.38825
      H   27    0.11053      0.00000     0.38738    0.00208     0.38947
      H   28    0.10079      0.00000     0.39800    0.00122     0.39921
      H   29    0.20784      0.00000     0.29002    0.00213     0.29216
      H   30    0.18760      0.00000     0.31017    0.00223     0.31240
      H   31    0.09642      0.00000     0.40113    0.00244     0.40358
      H   32    0.09734      0.00000     0.40177    0.00089     0.40266
      H   33    0.10252      0.00000     0.39670    0.00078     0.39748
      H   34    0.10425      0.00000     0.39499    0.00076     0.39575
      H   35    0.11003      0.00000     0.38844    0.00153     0.38997
      H   36    0.09897      0.00000     0.39952    0.00151     0.40103
      H   37    0.11888      0.00000     0.37862    0.00250     0.38112
      H   38    0.11342      0.00000     0.38508    0.00150     0.38658
      H   39    0.24562      0.00000     0.23552    0.01886     0.25438
 =======================================================================
   * Total *   -0.00000     18.99364    52.75428    0.25208    72.00000

 Normal termination of Gaussian 16 at Thu Dec 17 22:12:20 2020.
