 Gaussian 16, Revision A.03,

 -----------------------------------------------------------
 # opt freq B3LYP/6-31G(d) empiricaldispersion=gd3bj scf=xqc
 -----------------------------------------------------------

 -------------------------------
 CID_116803866_JID_9726_neutraal
 -------------------------------
 Symbolic Z-matrix:
 Charge =  0 Multiplicity = 1

 SCF Done:  E(RB3LYP) =  -1183.81486075     A.U. after   14 cycles
 SCF Done:  E(RB3LYP) =  -1183.25545539     A.U. after   18 cycles
 SCF Done:  E(RB3LYP) =  -1183.81914629     A.U. after   13 cycles
 SCF Done:  E(RB3LYP) =  -1183.82151229     A.U. after   12 cycles
 SCF Done:  E(RB3LYP) =  -1183.82221409     A.U. after   13 cycles
 SCF Done:  E(RB3LYP) =  -1183.82248725     A.U. after   12 cycles
 SCF Done:  E(RB3LYP) =  -1183.82277216     A.U. after   12 cycles
 SCF Done:  E(RB3LYP) =  -1183.82312146     A.U. after   11 cycles
 SCF Done:  E(RB3LYP) =  -1183.82354865     A.U. after   12 cycles
 SCF Done:  E(RB3LYP) =  -1183.82367977     A.U. after   12 cycles
 SCF Done:  E(RB3LYP) =  -1183.82938094     A.U. after    9 cycles
 SCF Done:  E(RB3LYP) =  -1183.82938160     A.U. after    8 cycles
 SCF Done:  E(RB3LYP) =  -1183.82938200     A.U. after    8 cycles
 SCF Done:  E(RB3LYP) =  -1183.82938231     A.U. after    8 cycles
 SCF Done:  E(RB3LYP) =  -1183.82938234     A.U. after    7 cycles
 Optimization completed.
    -- Stationary point found.
 Normal termination of Gaussian 16 at Sun Dec 13 21:29:08 2020.

 --------------------------------------------------------------------
 #N Geom=AllCheck Guess=TCheck SCRF=Check GenChk RB3LYP/6-31G(d) Freq
 --------------------------------------------------------------------

 Structure from the checkpoint file:  "JID_9726.chk"
 -------------------------------
 CID_116803866_JID_9726_neutraal
 -------------------------------
 Charge =  0 Multiplicity = 1

 SCF Done:  E(RB3LYP) =  -1183.82938234     A.U. after    1 cycles

  Exact polarizability: 178.119 -22.792 194.854   0.393  -6.098 153.948
 Approx polarizability: 249.195 -40.477 294.257   2.969 -12.898 272.358

                      1                      2                      3
                      A                      A                      A
 Frequencies --     20.8510                32.0832                40.3194
 Red. masses --      4.0523                 4.1265                 4.2536
 Frc consts  --      0.0010                 0.0025                 0.0041
 IR Inten    --      0.9759                 1.9575                 0.5097

                      4                      5                      6
                      A                      A                      A
 Frequencies --     52.6401                64.6290                68.2757
 Red. masses --      7.2063                 4.1569                 3.8145
 Frc consts  --      0.0118                 0.0102                 0.0105
 IR Inten    --      0.1075                 0.3870                 1.7138

                      7                      8                      9
                      A                      A                      A
 Frequencies --     80.8655                97.4739               131.0112
 Red. masses --      3.8706                 4.2303                 2.3873
 Frc consts  --      0.0149                 0.0237                 0.0241
 IR Inten    --      0.2588                 0.3546                 2.5223

                     10                     11                     12
                      A                      A                      A
 Frequencies --    146.6165               185.1280               201.2644
 Red. masses --      2.1117                 2.5434                 2.3269
 Frc consts  --      0.0267                 0.0514                 0.0555
 IR Inten    --      0.2829                 0.7601                 0.3576

                     13                     14                     15
                      A                      A                      A
 Frequencies --    232.8846               247.7343               266.8271
 Red. masses --      2.8628                 1.9331                 1.3696
 Frc consts  --      0.0915                 0.0699                 0.0575
 IR Inten    --      0.1334                 0.8865                 0.1884

                     16                     17                     18
                      A                      A                      A
 Frequencies --    275.8496               305.6274               326.1308
 Red. masses --      2.6126                 2.5226                 3.0317
 Frc consts  --      0.1171                 0.1388                 0.1900
 IR Inten    --      1.2474                 0.6300                 0.9942

                     19                     20                     21
                      A                      A                      A
 Frequencies --    349.0196               371.0183               403.5599
 Red. masses --      5.9215                 2.4080                 3.9212
 Frc consts  --      0.4250                 0.1953                 0.3763
 IR Inten    --      0.7763                 3.3406                 5.4670

                     22                     23                     24
                      A                      A                      A
 Frequencies --    433.5772               446.9529               478.5989
 Red. masses --      3.0443                 3.4991                 3.4557
 Frc consts  --      0.3372                 0.4118                 0.4664
 IR Inten    --      4.7312                 1.4783                 0.4269

                     25                     26                     27
                      A                      A                      A
 Frequencies --    512.6937               557.0739               578.7468
 Red. masses --      3.6823                 2.6167                 3.1019
 Frc consts  --      0.5703                 0.4784                 0.6121
 IR Inten    --      7.3920                 4.5751                 0.4767

                     28                     29                     30
                      A                      A                      A
 Frequencies --    603.7544               632.5770               637.8853
 Red. masses --      3.8752                 5.4121                 3.4387
 Frc consts  --      0.8323                 1.2760                 0.8244
 IR Inten    --     11.2421                 3.6383                 9.8777

                     31                     32                     33
                      A                      A                      A
 Frequencies --    667.3142               707.2473               715.7671
 Red. masses --      3.8719                 1.2391                 2.5503
 Frc consts  --      1.0159                 0.3652                 0.7698
 IR Inten    --     16.3950                50.0390                44.9942

                     34                     35                     36
                      A                      A                      A
 Frequencies --    728.0617               738.2948               752.4002
 Red. masses --      2.4530                 1.6021                 6.6071
 Frc consts  --      0.7661                 0.5145                 2.2037
 IR Inten    --      7.6323                30.9898                 1.1227

                     37                     38                     39
                      A                      A                      A
 Frequencies --    797.6068               817.7193               831.1040
 Red. masses --      1.6349                 1.5822                 1.3475
 Frc consts  --      0.6128                 0.6234                 0.5484
 IR Inten    --     60.3262                 5.1273                17.5057

                     40                     41                     42
                      A                      A                      A
 Frequencies --    837.2051               863.8653               881.9850
 Red. masses --      1.2861                 4.0008                 2.3553
 Frc consts  --      0.5311                 1.7591                 1.0795
 IR Inten    --      5.3791                11.4069                 3.2668

                     43                     44                     45
                      A                      A                      A
 Frequencies --    884.6605               905.3071               920.0784
 Red. masses --      1.6730                 1.3125                 1.5369
 Frc consts  --      0.7715                 0.6338                 0.7665
 IR Inten    --      5.2689                 0.4678                 9.5123

                     46                     47                     48
                      A                      A                      A
 Frequencies --    926.8328               949.4057              1004.1025
 Red. masses --      1.7709                 2.0308                 3.3943
 Frc consts  --      0.8963                 1.0785                 2.0163
 IR Inten    --      4.7527                 5.6437                31.5700

                     49                     50                     51
                      A                      A                      A
 Frequencies --   1029.0341              1037.5990              1056.4882
 Red. masses --      2.1798                 2.8848                 1.9842
 Frc consts  --      1.3600                 1.8299                 1.3049
 IR Inten    --      8.8638                 5.5234                 3.8129

                     52                     53                     54
                      A                      A                      A
 Frequencies --   1072.8891              1086.1733              1099.3690
 Red. masses --      1.8136                 2.3475                 2.2832
 Frc consts  --      1.2300                 1.6317                 1.6259
 IR Inten    --      9.4621                53.3949                39.5589

                     55                     56                     57
                      A                      A                      A
 Frequencies --   1114.5813              1116.0801              1128.5444
 Red. masses --      1.2783                 1.9792                 1.9604
 Frc consts  --      0.9357                 1.4526                 1.4711
 IR Inten    --      0.5102                 9.7056                 2.5619

                     58                     59                     60
                      A                      A                      A
 Frequencies --   1134.2122              1163.8055              1168.1530
 Red. masses --      1.7883                 2.7591                 2.8570
 Frc consts  --      1.3554                 2.2018                 2.2970
 IR Inten    --      1.6548                 8.1502                 9.2742

                     61                     62                     63
                      A                      A                      A
 Frequencies --   1195.3452              1203.0520              1211.1273
 Red. masses --      2.2608                 2.1289                 1.5598
 Frc consts  --      1.9032                 1.8154                 1.3480
 IR Inten    --     33.4634                24.5162                12.5215

                     64                     65                     66
                      A                      A                      A
 Frequencies --   1264.7172              1266.6643              1279.6130
 Red. masses --      1.4917                 1.2954                 1.3506
 Frc consts  --      1.4058                 1.2246                 1.3030
 IR Inten    --     11.3095                 7.4881                10.8872

                     67                     68                     69
                      A                      A                      A
 Frequencies --   1311.6437              1316.9153              1355.9490
 Red. masses --      1.2168                 1.2334                 1.5157
 Frc consts  --      1.2334                 1.2602                 1.6419
 IR Inten    --      3.8790                 5.5954                38.4409

                     70                     71                     72
                      A                      A                      A
 Frequencies --   1371.2350              1379.1535              1393.7519
 Red. masses --      1.3155                 1.7580                 1.9212
 Frc consts  --      1.4574                 1.9701                 2.1988
 IR Inten    --      6.8487                43.4425                57.2187

                     73                     74                     75
                      A                      A                      A
 Frequencies --   1398.4581              1401.2621              1412.9118
 Red. masses --      2.0627                 1.3535                 1.9237
 Frc consts  --      2.3767                 1.5658                 2.2627
 IR Inten    --     34.6626                28.2290                 8.2018

                     76                     77                     78
                      A                      A                      A
 Frequencies --   1425.7658              1432.7825              1435.7372
 Red. masses --      1.5086                 2.0379                 1.6908
 Frc consts  --      1.8069                 2.4648                 2.0535
 IR Inten    --     21.8200                26.2446                11.9884

                     79                     80                     81
                      A                      A                      A
 Frequencies --   1439.5302              1447.7052              1475.2515
 Red. masses --      2.4127                 1.2919                 3.5363
 Frc consts  --      2.9458                 1.5953                 4.5345
 IR Inten    --     40.1467                 6.4008                15.0942

                     82                     83                     84
                      A                      A                      A
 Frequencies --   1503.1682              1515.7688              1517.0936
 Red. masses --      3.9612                 1.1215                 1.0768
 Frc consts  --      5.2735                 1.5181                 1.4601
 IR Inten    --      3.4560                 3.2530                 0.5211

                     85                     86                     87
                      A                      A                      A
 Frequencies --   1519.3546              1524.1654              1525.7151
 Red. masses --      1.1391                 1.1169                 1.1257
 Frc consts  --      1.5493                 1.5288                 1.5439
 IR Inten    --      0.7056                 3.4623                16.0218

                     88                     89                     90
                      A                      A                      A
 Frequencies --   1528.7819              1529.7081              1532.1885
 Red. masses --      1.0974                 1.0558                 1.0803
 Frc consts  --      1.5111                 1.4556                 1.4942
 IR Inten    --      3.4823                12.6706                 4.2318

                     91                     92                     93
                      A                      A                      A
 Frequencies --   1543.5392              1607.3340              1628.3053
 Red. masses --      1.1244                 5.3875                 5.2656
 Frc consts  --      1.5784                 8.2006                 8.2256
 IR Inten    --     50.9836                 0.8028                97.3126

                     94                     95                     96
                      A                      A                      A
 Frequencies --   2977.7484              3007.9115              3046.6645
 Red. masses --      1.0688                 1.0829                 1.0670
 Frc consts  --      5.5835                 5.7724                 5.8351
 IR Inten    --     52.5989                26.9132                 3.9365

                     97                     98                     99
                      A                      A                      A
 Frequencies --   3046.7973              3055.8150              3056.0045
 Red. masses --      1.0791                 1.0374                 1.0365
 Frc consts  --      5.9021                 5.7076                 5.7031
 IR Inten    --     16.9263                 5.8328                19.7970

                    100                    101                    102
                      A                      A                      A
 Frequencies --   3058.3136              3060.6147              3089.4432
 Red. masses --      1.0675                 1.0723                 1.0975
 Frc consts  --      5.8829                 5.9181                 6.1717
 IR Inten    --     67.6371                77.1907                 4.9219

                    103                    104                    105
                      A                      A                      A
 Frequencies --   3120.7814              3122.0560              3124.8787
 Red. masses --      1.1036                 1.1016                 1.1026
 Frc consts  --      6.3329                 6.3266                 6.3439
 IR Inten    --     40.7613                44.0123                25.0762

                    106                    107                    108
                      A                      A                      A
 Frequencies --   3134.1020              3137.2683              3140.0364
 Red. masses --      1.1018                 1.1017                 1.0968
 Frc consts  --      6.3763                 6.3889                 6.3716
 IR Inten    --     26.7526                17.9556                15.5512

                    109                    110                    111
                      A                      A                      A
 Frequencies --   3215.9925              3232.8251              3266.1194
 Red. masses --      1.0884                 1.0947                 1.0970
 Frc consts  --      6.6326                 6.7405                 6.8950
 IR Inten    --      8.8329                 7.8477                 2.1384

                    112                    113                    114
                      A                      A                      A
 Frequencies --   3271.9521              3301.1499              3500.3010
 Red. masses --      1.0965                 1.0971                 1.0742
 Frc consts  --      6.9166                 7.0439                 7.7542
 IR Inten    --      3.9123                 1.0889                20.1772

 - Thermochemistry -
 -------------------
 Temperature   298.150 Kelvin.  Pressure   1.00000 Atm.
 Atom     1 has atomic number  6 and mass  12.00000

 Molecular mass:   279.14053 amu.
 Principal axes and moments of inertia in atomic units:
                           1         2         3
     Eigenvalues --  4067.002206404.029868791.64240
           X            0.99988  -0.00585  -0.01453
           Y            0.00574   0.99996  -0.00749
           Z            0.01457   0.00741   0.99987
 This molecule is an asymmetric top.
 Rotational symmetry number  1.
 Warning -- assumption of classical behavior for rotation
           may cause significant error
 Rotational temperatures (Kelvin)      0.02130     0.01352     0.00985
 Rotational constants (GHZ):           0.44375     0.28181     0.20528
 Zero-point vibrational energy     895871.5 (Joules/Mol)
                                  214.11844 (Kcal/Mol)
 Warning -- explicit consideration of  28 degrees of freedom as
           vibrations may cause significant error
 Vibrational temperatures:     30.00    46.16    58.01    75.74    92.99
          (Kelvin)             98.23   116.35   140.24   188.50   210.95
                              266.36   289.57   335.07   356.43   383.90
                              396.89   439.73   469.23   502.16   533.81
                              580.63   623.82   643.07   688.60   737.65
                              801.51   832.69   868.67   910.14   917.77
                              960.12  1017.57  1029.83  1047.52  1062.24
                             1082.54  1147.58  1176.52  1195.77  1204.55
                             1242.91  1268.98  1272.83  1302.54  1323.79
                             1333.51  1365.98  1444.68  1480.55  1492.87
                             1520.05  1543.65  1562.76  1581.75  1603.63
                             1605.79  1623.72  1631.88  1674.46  1680.71
                             1719.84  1730.92  1742.54  1819.65  1822.45
                             1841.08  1887.16  1894.75  1950.91  1972.90
                             1984.29  2005.30  2012.07  2016.10  2032.87
                             2051.36  2061.45  2065.71  2071.16  2082.92
                             2122.56  2162.72  2180.85  2182.76  2186.01
                             2192.93  2195.16  2199.58  2200.91  2204.48
                             2220.81  2312.60  2342.77  4284.32  4327.71
                             4383.47  4383.66  4396.64  4396.91  4400.23
                             4403.54  4445.02  4490.11  4491.94  4496.00
                             4509.27  4513.83  4517.81  4627.10  4651.31
                             4699.22  4707.61  4749.62  5036.15

 Zero-point correction=                           0.341219 (Hartree/Particle)
 Thermal correction to Energy=                    0.360502
 Thermal correction to Enthalpy=                  0.361447
 Thermal correction to Gibbs Free Energy=         0.291365
 Sum of electronic and zero-point Energies=          -1183.488163
 Sum of electronic and thermal Energies=             -1183.468880
 Sum of electronic and thermal Enthalpies=           -1183.467936
 Sum of electronic and thermal Free Energies=        -1183.538018

                     E (Thermal)             CV                S
                      KCal/Mol        Cal/Mol-Kelvin    Cal/Mol-Kelvin
 Total                  226.219             72.515            147.500
 Electronic               0.000              0.000              0.000
 Translational            0.889              2.981             42.778
 Rotational               0.889              2.981             33.792
 Vibrational            224.441             66.553             70.930
 Vibration     1          0.593              1.986              6.551
 Vibration     2          0.594              1.983              5.696
 Vibration     3          0.594              1.981              5.243
 Vibration     4          0.596              1.977              4.716
 Vibration     5          0.597              1.971              4.311
 Vibration     6          0.598              1.969              4.202
 Vibration     7          0.600              1.962              3.870
 Vibration     8          0.603              1.951              3.504
 Vibration     9          0.612              1.922              2.931
 Vibration    10          0.617              1.906              2.716
 Vibration    11          0.631              1.860              2.276
 Vibration    12          0.638              1.838              2.122
 Vibration    13          0.654              1.791              1.857
 Vibration    14          0.661              1.767              1.747
 Vibration    15          0.672              1.734              1.617
 Vibration    16          0.677              1.718              1.559
 Vibration    17          0.696              1.663              1.386
 Vibration    18          0.710              1.623              1.279
 Vibration    19          0.726              1.577              1.171
 Vibration    20          0.743              1.532              1.076
 Vibration    21          0.769              1.462              0.950
 Vibration    22          0.794              1.397              0.847
 Vibration    23          0.806              1.368              0.805
 Vibration    24          0.835              1.298              0.714
 Vibration    25          0.868              1.222              0.627
 Vibration    26          0.913              1.124              0.530
 Vibration    27          0.935              1.077              0.488
 Vibration    28          0.962              1.024              0.443

 Optimization completed.
    -- Stationary point found.
 Normal termination of Gaussian 16 at Sun Dec 13 21:53:09 2020.

 ----------------------------------------------------------------------
 # B3LYP/6-311++G(d,p) empiricaldispersion=gd3bj scf=xqc pop=npa geom=c
 heck
 ----------------------------------------------------------------------

 ---------------------------------------
 CID_116803866_JID_9726_Energie_neutraal
 ---------------------------------------
 Structure from the checkpoint file:  "JID_9726.chk"
 Charge =  0 Multiplicity = 1

 SCF Done:  E(RB3LYP) =  -1184.07096895     A.U. after   15 cycles
 Normal termination of Gaussian 16 at Sun Dec 13 22:04:29 2020.

 ----------------------------------------------------------------------
 # B3LYP/6-311++G(d,p) empiricaldispersion=gd3bj scf=xqc pop=npa geom=c
 heck
 ----------------------------------------------------------------------

 -------------------------------------
 CID_116803866_JID_9726_Energie_kation
 -------------------------------------
 Structure from the checkpoint file:  "JID_9726.chk"
 Charge =  1 Multiplicity = 2

 SCF Done:  E(UB3LYP) =  -1183.79305683     A.U. after   28 cycles
 Normal termination of Gaussian 16 at Sun Dec 13 22:34:00 2020.
 Gaussian 16:  ES64L-G16RevA.03 25-Dec-2016

 ----------------------------------------------------------------------
 # B3LYP/6-311++G(d,p) empiricaldispersion=gd3bj scf=xqc pop=npa geom=c
 heck
 ----------------------------------------------------------------------

 ------------------------------------
 CID_116803866_JID_9726_Energie_anion
 ------------------------------------
 Structure from the checkpoint file:  "JID_9726.chk"
 Charge = -1 Multiplicity = 2

                         Standard orientation:
 ---------------------------------------------------------------------
 Center     Atomic      Atomic             Coordinates (Angstroms)
 Number     Number       Type             X           Y           Z
 ---------------------------------------------------------------------
      1          6           0       -0.291994    2.411929    1.134923
      2          6           0        0.185893    2.912887   -0.228013
      3          6           0        1.711873    2.945437   -0.366362
      4          7           0        2.322308    1.651453   -0.097882
      5          6           0        2.052290    0.466140   -0.723765
      6          6           0        2.776224   -0.498569   -0.033741
      7          6           0        3.450717    0.206585    0.988142
      8          7           0        3.162843    1.509310    0.944418
      9          8           0        2.900815   -1.842568   -0.224315
     10          6           0        1.984947   -2.484723   -1.114371
     11          6           0        0.665616   -2.848333   -0.440282
     12          7           0       -0.192458   -1.682994   -0.261480
     13          6           0       -1.491395   -1.935641    0.372183
     14          6           0       -1.415017   -2.332267    1.855001
     15          6           0       -2.350508   -0.713526    0.165435
     16          6           0       -3.292068   -0.142483    0.979904
     17          6           0       -3.922970    1.003395    0.400601
     18          6           0       -3.450098    1.286659   -0.850382
     19         16           0       -2.217330    0.166036   -1.340223
     20          1           0        0.068963    3.056192    1.945058
     21          1           0        0.076034    1.399276    1.329613
     22          1           0       -1.384844    2.380006    1.172044
     23          1           0       -0.237273    2.279805   -1.015940
     24          1           0       -0.187541    3.928316   -0.414737
     25          1           0        1.999095    3.278583   -1.371473
     26          1           0        2.161913    3.626263    0.359661
     27          1           0        1.357643    0.400272   -1.545525
     28          1           0        4.124077   -0.188881    1.735508
     29          1           0        1.808498   -1.867318   -2.003995
     30          1           0        2.495466   -3.400929   -1.423993
     31          1           0        0.134763   -3.559317   -1.088622
     32          1           0        0.905954   -3.381529    0.495596
     33          1           0        0.298599   -0.963770    0.266538
     34          1           0       -1.938841   -2.774070   -0.183185
     35          1           0       -0.998557   -1.511375    2.449426
     36          1           0       -2.404928   -2.577708    2.253734
     37          1           0       -0.778070   -3.212124    1.985389
     38          1           0       -3.532731   -0.521960    1.966154
     39          1           0       -4.688110    1.587105    0.900879
     40          1           0       -3.739256    2.097812   -1.505078
 ---------------------------------------------------------------------

 SCF Done:  E(UB3LYP) =  -1184.05993215     A.U. after   33 cycles
 SCF Done:  E(UB3LYP) =  -1184.05993215     a.u. after    1 cycles

 The electronic state is 2-A.
 Alpha  occ. eigenvalues --  -88.77048 -19.06378 -14.29859 -14.24230 -14.20868
 Alpha  occ. eigenvalues --  -10.13872 -10.13811 -10.12392 -10.11913 -10.11159
 Alpha  occ. eigenvalues --  -10.10592 -10.09887 -10.09735 -10.09353 -10.08166
 Alpha  occ. eigenvalues --  -10.07712 -10.07372 -10.07003 -10.06536  -7.85645
 Alpha  occ. eigenvalues --   -5.81924  -5.81557  -5.81262  -0.98139  -0.95930
 Alpha  occ. eigenvalues --   -0.82690  -0.77624  -0.76178  -0.70355  -0.68942
 Alpha  occ. eigenvalues --   -0.67553  -0.64092  -0.63262  -0.61127  -0.59835
 Alpha  occ. eigenvalues --   -0.55573  -0.52771  -0.51513  -0.50494  -0.47514
 Alpha  occ. eigenvalues --   -0.46262  -0.45135  -0.43979  -0.41864  -0.40713
 Alpha  occ. eigenvalues --   -0.39714  -0.38539  -0.38089  -0.37562  -0.36015
 Alpha  occ. eigenvalues --   -0.34222  -0.33824  -0.33621  -0.32624  -0.32211
 Alpha  occ. eigenvalues --   -0.31429  -0.30638  -0.29929  -0.29192  -0.28639
 Alpha  occ. eigenvalues --   -0.27969  -0.26822  -0.26342  -0.26121  -0.25799
 Alpha  occ. eigenvalues --   -0.25346  -0.24727  -0.24245  -0.23936  -0.20775
 Alpha  occ. eigenvalues --   -0.16668  -0.15570  -0.14524  -0.13259  -0.12927
 Alpha  occ. eigenvalues --    0.04014
 Alpha virt. eigenvalues --    0.05604   0.06394   0.07081   0.07262   0.07872
 Alpha virt. eigenvalues --    0.08145   0.08384   0.09072   0.09249   0.09439
 Alpha virt. eigenvalues --    0.10165   0.10578   0.10746   0.11196   0.11431

  Beta  occ. eigenvalues --  -88.77039 -19.06372 -14.29857 -14.24214 -14.20863
  Beta  occ. eigenvalues --  -10.13856 -10.13810 -10.12381 -10.11908 -10.11153
  Beta  occ. eigenvalues --  -10.10565 -10.09815 -10.09733 -10.09289 -10.08152
  Beta  occ. eigenvalues --  -10.07706 -10.07357 -10.06978 -10.06531  -7.85635
  Beta  occ. eigenvalues --   -5.81919  -5.81554  -5.81233  -0.98129  -0.95917
  Beta  occ. eigenvalues --   -0.82658  -0.77553  -0.76159  -0.70333  -0.68901
  Beta  occ. eigenvalues --   -0.67521  -0.64046  -0.63206  -0.61037  -0.59812
  Beta  occ. eigenvalues --   -0.55532  -0.52720  -0.51482  -0.50475  -0.47488
  Beta  occ. eigenvalues --   -0.46158  -0.45111  -0.43910  -0.41814  -0.40684
  Beta  occ. eigenvalues --   -0.39664  -0.38511  -0.38061  -0.37533  -0.35982
  Beta  occ. eigenvalues --   -0.34194  -0.33776  -0.33591  -0.32598  -0.32180
  Beta  occ. eigenvalues --   -0.31409  -0.30608  -0.29887  -0.29138  -0.28583
  Beta  occ. eigenvalues --   -0.27876  -0.26779  -0.26309  -0.26079  -0.25710
  Beta  occ. eigenvalues --   -0.25326  -0.24703  -0.24199  -0.23888  -0.20752
  Beta  occ. eigenvalues --   -0.16626  -0.15445  -0.14402  -0.13057  -0.12844
  Beta virt. eigenvalues --    0.06079   0.06570   0.06989   0.07526   0.07660
  Beta virt. eigenvalues --    0.08187   0.08583   0.08625   0.09272   0.09569
  Beta virt. eigenvalues --    0.09703   0.10453   0.10752   0.11033   0.11285

 Mulliken charges and spin densities:
               1          2
     1  C   -0.377658  -0.127284
     2  C   -0.087466   0.122156
     3  C    0.414301  -0.950100
     4  N    0.459394   0.040143
     5  C   -0.347444  -0.206618
     6  C   -0.192770   0.249163
     7  C   -0.227919   0.029830
     8  N   -0.250782  -0.010423
     9  O   -0.060063   0.001595
    10  C    0.503338  -1.025543
    11  C    0.109226  -0.268070
    12  N   -0.021587   0.039225
    13  C    1.161634  -1.741503
    14  C    0.692784  -1.307041
    15  C   -1.090618   1.179641
    16  C   -1.693252   2.054572
    17  C    1.003599  -1.535400
    18  C   -0.859680   0.745041
    19  S    0.930122  -0.771789
    20  H    0.095169   0.047793
    21  H   -0.033129   0.178686
    22  H    0.252716  -0.083928
    23  H    0.169656  -0.051933
    24  H   -0.418079   0.591727
    25  H   -0.234688   0.403070
    26  H    0.186650  -0.012160
    27  H    0.109229   0.054959
    28  H    0.083829   0.060636
    29  H    0.022315   0.145008
    30  H   -0.339429   0.525080
    31  H   -0.420811   0.571879
    32  H    0.130915   0.023836
    33  H    0.617019  -0.455654
    34  H   -0.279558   0.474791
    35  H    0.184819  -0.030895
    36  H   -0.356261   0.509660
    37  H   -0.207086   0.341373
    38  H   -0.076618   0.239628
    39  H   -0.182932   0.334182
    40  H   -0.368886   0.614667
 Sum of Mulliken charges =  -1.00000   1.00000

 Dipole moment (field-independent basis, Debye):
    X=              2.6717    Y=              1.8258    Z=              0.9829  Tot=              3.3820
 Quadrupole moment (field-independent basis, Debye-Ang):
   XX=           -191.2350   YY=           -196.0834   ZZ=           -156.8009
   XY=             -2.9769   XZ=              0.2102   YZ=              2.1539

 Summary of Natural Population Analysis:

                                       Natural Population
                Natural  -----------------------------------------------
    Atom  No    Charge         Core      Valence    Rydberg      Total
 -----------------------------------------------------------------------
      C    1   -0.28840      0.99966     2.28325    0.00549     3.28840
      C    2   -0.20032      0.99964     2.19239    0.00829     3.20032
      C    3   -0.08015      0.99961     2.06934    0.01121     3.08015
      N    4   -0.10610      0.99967     2.59310    0.01333     3.60610
      C    5   -0.06113      0.99950     2.05168    0.00995     3.06113
      C    6    0.10486      0.99936     1.88319    0.01260     2.89514
      C    7   -0.03864      0.99959     2.02481    0.01424     3.03864
      N    8   -0.14421      0.99974     2.63408    0.01040     3.64421
      O    9   -0.27712      0.99986     3.26827    0.00899     4.27712
      C   10   -0.01145      0.99956     1.99920    0.01269     3.01145
      C   11   -0.09719      0.99961     2.08695    0.01062     3.09719
      N   12   -0.34823      0.99974     2.83635    0.01214     3.84823
      C   13   -0.02486      0.99954     2.01131    0.01401     3.02486
      C   14   -0.29161      0.99965     2.28575    0.00621     3.29161
      C   15   -0.08593      0.99949     2.07209    0.01435     3.08593
      C   16   -0.13266      0.99945     2.12343    0.00977     3.13266
      C   17   -0.13072      0.99953     2.12049    0.01070     3.13072
      C   18   -0.19155      0.99954     2.18015    0.01187     3.19155
      S   19    0.21567      4.99940     2.76450    0.02043     7.78433
      H   20    0.09402      0.00000     0.40516    0.00082     0.40598
      H   21    0.09838      0.00000     0.40038    0.00125     0.40162
      H   22    0.10792      0.00000     0.39097    0.00111     0.39208
      H   23    0.10165      0.00000     0.39643    0.00193     0.39835
      H   24    0.09945      0.00000     0.39909    0.00146     0.40055
      H   25    0.09770      0.00000     0.40122    0.00109     0.40230
      H   26    0.10590      0.00000     0.39254    0.00157     0.39410
      H   27    0.11535      0.00000     0.38299    0.00166     0.38465
      H   28    0.09955      0.00000     0.39955    0.00090     0.40045
      H   29    0.08594      0.00000     0.41265    0.00141     0.41406
      H   30    0.09429      0.00000     0.40448    0.00123     0.40571
      H   31    0.09883      0.00000     0.39902    0.00216     0.40117
      H   32    0.08503      0.00000     0.41335    0.00162     0.41497
      H   33    0.17872      0.00000     0.31688    0.00440     0.32128
      H   34    0.10242      0.00000     0.39529    0.00229     0.39758
      H   35    0.09870      0.00000     0.40013    0.00117     0.40130
      H   36    0.10320      0.00000     0.39561    0.00119     0.39680
      H   37    0.10239      0.00000     0.39663    0.00097     0.39761
      H   38    0.10764      0.00000     0.39131    0.00105     0.39236
      H   39    0.10415      0.00000     0.39496    0.00089     0.39585
      H   40    0.10854      0.00000     0.39032    0.00114     0.39146
 =======================================================================
   * Total *    0.00000     22.99212    51.75928    0.24860    75.00000

 Normal termination of Gaussian 16 at Sun Dec 13 23:08:36 2020.
