 Gaussian 16, Revision A.03,

 -----------------------------------------------------------
 # opt freq B3LYP/6-31G(d) empiricaldispersion=gd3bj scf=xqc
 -----------------------------------------------------------

 -------------------------------
 CID_130614431_JID_3642_neutraal
 -------------------------------
 Symbolic Z-matrix:
 Charge =  0 Multiplicity = 1

 SCF Done:  E(RB3LYP) =  -992.421905379     A.U. after   14 cycles
 SCF Done:  E(RB3LYP) =  -992.430512500     A.U. after   12 cycles
 SCF Done:  E(RB3LYP) =  -992.432069113     A.U. after   12 cycles
 SCF Done:  E(RB3LYP) =  -992.432779259     A.U. after   12 cycles
 SCF Done:  E(RB3LYP) =  -992.432973205     A.U. after   12 cycles
 SCF Done:  E(RB3LYP) =  -992.433044781     A.U. after   10 cycles
 SCF Done:  E(RB3LYP) =  -992.433069728     A.U. after   10 cycles
 SCF Done:  E(RB3LYP) =  -992.433080774     A.U. after   10 cycles
 SCF Done:  E(RB3LYP) =  -992.433087082     A.U. after   10 cycles
 SCF Done:  E(RB3LYP) =  -992.433089454     A.U. after   10 cycles
 SCF Done:  E(RB3LYP) =  -992.433103908     A.U. after   11 cycles
 SCF Done:  E(RB3LYP) =  -992.433107403     A.U. after    9 cycles
 SCF Done:  E(RB3LYP) =  -992.433109777     A.U. after   10 cycles
 SCF Done:  E(RB3LYP) =  -992.433111670     A.U. after    9 cycles
 SCF Done:  E(RB3LYP) =  -992.433112037     A.U. after    8 cycles
 SCF Done:  E(RB3LYP) =  -992.433112109     A.U. after    7 cycles
 Optimization completed.
    -- Stationary point found.
 Normal termination of Gaussian 16 at Mon Dec 14 16:33:43 2020.

 --------------------------------------------------------------------
 #N Geom=AllCheck Guess=TCheck SCRF=Check GenChk RB3LYP/6-31G(d) Freq
 --------------------------------------------------------------------

 Structure from the checkpoint file:  "JID_3642.chk"
 -------------------------------
 CID_130614431_JID_3642_neutraal
 -------------------------------
 Charge =  0 Multiplicity = 1

 SCF Done:  E(RB3LYP) =  -992.433112109     A.U. after    1 cycles

  Exact polarizability: 129.238   1.878 103.840  -1.896   2.947  97.917
 Approx polarizability: 165.448   2.590 149.632  -1.079   5.481 166.710

                      1                      2                      3
                      A                      A                      A
 Frequencies --     24.5686                34.3844                99.9914
 Red. masses --      5.7205                 3.8729                 6.7868
 Frc consts  --      0.0020                 0.0027                 0.0400
 IR Inten    --      4.2655                 1.1610                 6.1987

                      4                      5                      6
                      A                      A                      A
 Frequencies --    122.3068               168.7084               200.7170
 Red. masses --      2.9925                 3.6536                 2.6644
 Frc consts  --      0.0264                 0.0613                 0.0632
 IR Inten    --      0.6583                 7.3319                 1.5902

                      7                      8                      9
                      A                      A                      A
 Frequencies --    209.4688               227.7201               235.5821
 Red. masses --      1.1357                 4.7055                 2.7737
 Frc consts  --      0.0294                 0.1438                 0.0907
 IR Inten    --      0.0407                 1.2514                 2.6087

                     10                     11                     12
                      A                      A                      A
 Frequencies --    272.5149               306.4863               361.1294
 Red. masses --      3.9381                 3.0292                 4.2491
 Frc consts  --      0.1723                 0.1677                 0.3265
 IR Inten    --      7.5268                 1.0993                 9.9689

                     13                     14                     15
                      A                      A                      A
 Frequencies --    377.4592               414.0122               437.9151
 Red. masses --      2.4359                 2.7060                 2.8303
 Frc consts  --      0.2045                 0.2733                 0.3198
 IR Inten    --      3.3180                 0.7635                18.9836

                     16                     17                     18
                      A                      A                      A
 Frequencies --    481.9018               511.6178               546.4607
 Red. masses --      3.6369                 4.1675                 4.8682
 Frc consts  --      0.4976                 0.6427                 0.8565
 IR Inten    --     30.6955                 5.0387                10.4836

                     19                     20                     21
                      A                      A                      A
 Frequencies --    568.9497               670.9407               685.5015
 Red. masses --      3.6549                 3.4926                 1.8595
 Frc consts  --      0.6971                 0.9263                 0.5148
 IR Inten    --      7.8166                15.8727                39.8052

                     22                     23                     24
                      A                      A                      A
 Frequencies --    752.3551               817.7393               848.3725
 Red. masses --      2.5457                 3.1002                 2.2388
 Frc consts  --      0.8490                 1.2214                 0.9494
 IR Inten    --     81.1177                 7.7442                 1.7242

                     25                     26                     27
                      A                      A                      A
 Frequencies --    858.5304               863.3228               874.5830
 Red. masses --      1.9362                 1.8900                 2.1785
 Frc consts  --      0.8408                 0.8300                 0.9818
 IR Inten    --      6.8213                 9.7358                17.9369

                     28                     29                     30
                      A                      A                      A
 Frequencies --    977.4134               990.6252              1002.1196
 Red. masses --      3.2316                 1.6206                 1.5555
 Frc consts  --      1.8190                 0.9370                 0.9203
 IR Inten    --     10.0024                 2.2878                 4.0108

                     31                     32                     33
                      A                      A                      A
 Frequencies --   1016.4474              1028.1281              1038.1034
 Red. masses --      2.1708                 4.5879                 2.7537
 Frc consts  --      1.3214                 2.8573                 1.7485
 IR Inten    --      1.8736                59.4495                43.6037

                     34                     35                     36
                      A                      A                      A
 Frequencies --   1053.9876              1089.3161              1102.3338
 Red. masses --      1.8542                 1.7865                 2.4925
 Frc consts  --      1.2136                 1.2490                 1.7845
 IR Inten    --     15.1316                50.6357                84.6875

                     37                     38                     39
                      A                      A                      A
 Frequencies --   1105.2497              1108.8281              1144.1272
 Red. masses --      2.3070                 3.0684                 2.2567
 Frc consts  --      1.6604                 2.2227                 1.7405
 IR Inten    --     10.9737                56.5030                12.5048

                     40                     41                     42
                      A                      A                      A
 Frequencies --   1159.1920              1182.6826              1184.6447
 Red. masses --      1.0875                 1.5156                 1.4090
 Frc consts  --      0.8610                 1.2490                 1.1650
 IR Inten    --      0.3044                 8.9153                 1.8499

                     43                     44                     45
                      A                      A                      A
 Frequencies --   1217.1451              1230.4301              1260.1094
 Red. masses --      1.6373                 1.6080                 1.8909
 Frc consts  --      1.4291                 1.4344                 1.7691
 IR Inten    --      3.2650                11.6553                35.9588

                     46                     47                     48
                      A                      A                      A
 Frequencies --   1278.2968              1298.0334              1310.7112
 Red. masses --      1.7553                 1.8188                 1.2903
 Frc consts  --      1.6899                 1.8055                 1.3061
 IR Inten    --     14.1802                62.3823                 0.2510

                     49                     50                     51
                      A                      A                      A
 Frequencies --   1320.7121              1327.4102              1337.1169
 Red. masses --      1.8427                 1.4172                 1.5235
 Frc consts  --      1.8938                 1.4713                 1.6048
 IR Inten    --     61.0388                15.3380                34.8125

                     52                     53                     54
                      A                      A                      A
 Frequencies --   1377.8513              1384.7778              1401.6483
 Red. masses --      1.3669                 1.3398                 1.4073
 Frc consts  --      1.5289                 1.5138                 1.6289
 IR Inten    --      1.4161                 2.6697                 5.9298

                     55                     56                     57
                      A                      A                      A
 Frequencies --   1426.7417              1437.1407              1488.0121
 Red. masses --      1.3801                 1.2313                 1.0909
 Frc consts  --      1.6552                 1.4983                 1.4231
 IR Inten    --     21.1285                 4.0914                 5.4136

                     58                     59                     60
                      A                      A                      A
 Frequencies --   1522.5548              1523.5785              1524.4592
 Red. masses --      1.0614                 1.0772                 1.0428
 Frc consts  --      1.4497                 1.4733                 1.4279
 IR Inten    --      4.5466                 2.3367                 7.8310

                     61                     62                     63
                      A                      A                      A
 Frequencies --   1534.2474              1540.8003              1565.3882
 Red. masses --      1.2513                 1.0826                 1.1187
 Frc consts  --      1.7354                 1.5144                 1.6151
 IR Inten    --     26.3262                 0.8621                 4.5857

                     64                     65                     66
                      A                      A                      A
 Frequencies --   3032.0881              3046.9960              3055.0255
 Red. masses --      1.0627                 1.0669                 1.0734
 Frc consts  --      5.7565                 5.8363                 5.9026
 IR Inten    --     71.4265                40.5724                 8.7020

                     67                     68                     69
                      A                      A                      A
 Frequencies --   3064.0130              3071.2533              3078.3154
 Red. masses --      1.0779                 1.0349                 1.0844
 Frc consts  --      5.9620                 5.7518                 6.0546
 IR Inten    --      9.9236                13.4230                21.0848

                     70                     71                     72
                      A                      A                      A
 Frequencies --   3087.5201              3104.4366              3108.0576
 Red. masses --      1.0869                 1.0601                 1.1005
 Frc consts  --      6.1046                 6.0194                 6.2635
 IR Inten    --     36.9206                 5.4262                47.5898

                     73                     74                     75
                      A                      A                      A
 Frequencies --   3115.6524              3144.8813              3145.8391
 Red. masses --      1.1006                 1.0984                 1.1036
 Frc consts  --      6.2946                 6.4006                 6.4350
 IR Inten    --     52.8132                 2.9780                 9.3110

                     76                     77                     78
                      A                      A                      A
 Frequencies --   3151.8883              3172.4393              3495.2530
 Red. masses --      1.1031                 1.1089                 1.0736
 Frc consts  --      6.4565                 6.5757                 7.7278
 IR Inten    --     10.1702                 1.4494                 0.1423

 - Thermochemistry -
 -------------------
 Temperature   298.150 Kelvin.  Pressure   1.00000 Atm.
 Atom     1 has atomic number  6 and mass  12.00000

 Molecular mass:   205.07727 amu.
 Principal axes and moments of inertia in atomic units:
                           1         2         3
     Eigenvalues --  1199.552234466.640014875.65777
           X            0.99999  -0.00302  -0.00434
           Y            0.00310   0.99984   0.01771
           Z            0.00428  -0.01772   0.99983
 This molecule is an asymmetric top.
 Rotational symmetry number  1.
 Warning -- assumption of classical behavior for rotation
           may cause significant error
 Rotational temperatures (Kelvin)      0.07221     0.01939     0.01776
 Rotational constants (GHZ):           1.50451     0.40405     0.37015
 Zero-point vibrational energy     624075.4 (Joules/Mol)
                                  149.15761 (Kcal/Mol)
 Warning -- explicit consideration of  19 degrees of freedom as
           vibrations may cause significant error
 Vibrational temperatures:     35.35    49.47   143.87   175.97   242.73
          (Kelvin)            288.79   301.38   327.64   338.95   392.09
                              440.97   519.58   543.08   595.67   630.06
                              693.35   736.10   786.24   818.59   965.33
                              986.28  1082.47  1176.54  1220.62  1235.23
                             1242.13  1258.33  1406.28  1425.29  1441.83
                             1462.44  1479.25  1493.60  1516.45  1567.28
                             1586.01  1590.21  1595.36  1646.14  1667.82
                             1701.62  1704.44  1751.20  1770.31  1813.02
                             1839.18  1867.58  1885.82  1900.21  1909.85
                             1923.81  1982.42  1992.39  2016.66  2052.76
                             2067.72  2140.92  2190.62  2192.09  2193.36
                             2207.44  2216.87  2252.24  4362.50  4383.95
                             4395.50  4408.43  4418.85  4429.01  4442.25
                             4466.59  4471.80  4482.73  4524.78  4526.16
                             4534.86  4564.43  5028.89

 Zero-point correction=                           0.237698 (Hartree/Particle)
 Thermal correction to Energy=                    0.250655
 Thermal correction to Enthalpy=                  0.251600
 Thermal correction to Gibbs Free Energy=         0.197119
 Sum of electronic and zero-point Energies=           -992.195414
 Sum of electronic and thermal Energies=              -992.182457
 Sum of electronic and thermal Enthalpies=            -992.181513
 Sum of electronic and thermal Free Energies=         -992.235993

                     E (Thermal)             CV                S
                      KCal/Mol        Cal/Mol-Kelvin    Cal/Mol-Kelvin
 Total                  157.289             49.259            114.663
 Electronic               0.000              0.000              0.000
 Translational            0.889              2.981             41.859
 Rotational               0.889              2.981             31.636
 Vibrational            155.511             43.298             41.169
 Vibration     1          0.593              1.985              6.226
 Vibration     2          0.594              1.983              5.559
 Vibration     3          0.604              1.949              3.454
 Vibration     4          0.610              1.931              3.064
 Vibration     5          0.625              1.881              2.450
 Vibration     6          0.638              1.839              2.127
 Vibration     7          0.642              1.826              2.048
 Vibration     8          0.651              1.799              1.897
 Vibration     9          0.655              1.786              1.836
 Vibration    10          0.676              1.724              1.580
 Vibration    11          0.697              1.661              1.381
 Vibration    12          0.735              1.552              1.117
 Vibration    13          0.748              1.518              1.049
 Vibration    14          0.778              1.440              0.913
 Vibration    15          0.798              1.388              0.833
 Vibration    16          0.838              1.290              0.705
 Vibration    17          0.867              1.224              0.630
 Vibration    18          0.902              1.147              0.552
 Vibration    19          0.925              1.098              0.506

 Optimization completed.
    -- Stationary point found.
 Normal termination of Gaussian 16 at Mon Dec 14 16:41:22 2020.

 ----------------------------------------------------------------------
 # B3LYP/6-311++G(d,p) empiricaldispersion=gd3bj scf=xqc pop=npa geom=c
 heck
 ----------------------------------------------------------------------

 ---------------------------------------
 CID_130614431_JID_3642_Energie_neutraal
 ---------------------------------------
 Structure from the checkpoint file:  "JID_3642.chk"
 Charge =  0 Multiplicity = 1

 SCF Done:  E(RB3LYP) =  -992.635435948     A.U. after   15 cycles
 Normal termination of Gaussian 16 at Mon Dec 14 16:44:57 2020.

 ----------------------------------------------------------------------
 # B3LYP/6-311++G(d,p) empiricaldispersion=gd3bj scf=xqc pop=npa geom=c
 heck
 ----------------------------------------------------------------------

 -------------------------------------
 CID_130614431_JID_3642_Energie_kation
 -------------------------------------
 Structure from the checkpoint file:  "JID_3642.chk"
 Charge =  1 Multiplicity = 2

 SCF Done:  E(UB3LYP) =  -992.311073246     A.U. after   26 cycles
 Normal termination of Gaussian 16 at Mon Dec 14 16:53:57 2020.
 Gaussian 16:  ES64L-G16RevA.03 25-Dec-2016

 ----------------------------------------------------------------------
 # B3LYP/6-311++G(d,p) empiricaldispersion=gd3bj scf=xqc pop=npa geom=c
 heck
 ----------------------------------------------------------------------

 ------------------------------------
 CID_130614431_JID_3642_Energie_anion
 ------------------------------------
 Structure from the checkpoint file:  "JID_3642.chk"
 Charge = -1 Multiplicity = 2

                         Standard orientation:
 ---------------------------------------------------------------------
 Center     Atomic      Atomic             Coordinates (Angstroms)
 Number     Number       Type             X           Y           Z
 ---------------------------------------------------------------------
      1          6           0       -1.326495    2.288422    0.202300
      2          6           0       -1.043690    0.934775   -0.427268
      3          6           0        0.305167    0.300133   -0.039032
      4          6           0        0.181848   -1.225359   -0.288535
      5          6           0       -1.120899   -1.677641    0.372706
      6         16           0       -2.310004   -0.322001    0.046196
      7          8           0       -2.962694    0.073821    1.306121
      8          8           0       -3.113883   -0.652378   -1.144211
      9          7           0        1.369203    1.033149   -0.711126
     10          6           0        2.766329    0.738452   -0.439279
     11          6           0        3.129738    0.421391    1.027123
     12          8           0        3.347237   -0.975927    0.718170
     13          6           0        3.341124   -0.682664   -0.699524
     14          1           0       -0.497539    2.962733   -0.032357
     15          1           0       -1.417190    2.197354    1.288042
     16          1           0       -2.256174    2.719087   -0.179720
     17          1           0       -1.120656    0.979512   -1.520015
     18          1           0        0.433804    0.445553    1.039942
     19          1           0        1.036255   -1.756024    0.136413
     20          1           0        0.146687   -1.420469   -1.367655
     21          1           0       -1.029296   -1.757155    1.458848
     22          1           0       -1.546156   -2.596715   -0.034022
     23          1           0        1.209254    1.036520   -1.716633
     24          1           0        3.354832    1.542174   -0.892307
     25          1           0        4.054992    0.911521    1.357158
     26          1           0        2.360226    0.564797    1.790993
     27          1           0        2.722683   -1.382713   -1.270066
     28          1           0        4.359900   -0.675382   -1.111480
 ---------------------------------------------------------------------

 SCF Done:  E(UB3LYP) =  -992.627754620     A.U. after   30 cycles

 The electronic state is 2-A.
 Alpha  occ. eigenvalues --  -88.94986 -19.02781 -19.02721 -19.02536 -14.21435
 Alpha  occ. eigenvalues --  -10.13252 -10.12621 -10.12563 -10.12418 -10.11550
 Alpha  occ. eigenvalues --  -10.11067 -10.09753 -10.08367  -8.01580  -5.97845
 Alpha  occ. eigenvalues --   -5.97716  -5.97660  -1.01560  -0.95216  -0.91387
 Alpha  occ. eigenvalues --   -0.83003  -0.75414  -0.69655  -0.64333  -0.60431
 Alpha  occ. eigenvalues --   -0.59983  -0.58777  -0.52389  -0.49066  -0.46776
 Alpha  occ. eigenvalues --   -0.43377  -0.42439  -0.40425  -0.39666  -0.38764
 Alpha  occ. eigenvalues --   -0.37328  -0.36360  -0.35132  -0.34386  -0.33674
 Alpha  occ. eigenvalues --   -0.32585  -0.31517  -0.30853  -0.30022  -0.28949
 Alpha  occ. eigenvalues --   -0.27722  -0.26608  -0.24717  -0.23907  -0.22946
 Alpha  occ. eigenvalues --   -0.22259  -0.21662  -0.19411  -0.16763  -0.13704
 Alpha  occ. eigenvalues --    0.04253
 Alpha virt. eigenvalues --    0.06838   0.06968   0.07499   0.09206   0.09301
 Alpha virt. eigenvalues --    0.09557   0.10151   0.10470   0.12100   0.12215
 Alpha virt. eigenvalues --    0.12415   0.12828   0.13101   0.13579   0.13886

  Beta  occ. eigenvalues --  -88.94986 -19.02779 -19.02717 -19.02534 -14.21397
  Beta  occ. eigenvalues --  -10.13251 -10.12615 -10.12544 -10.12402 -10.11516
  Beta  occ. eigenvalues --  -10.11038 -10.09734 -10.08356  -8.01580  -5.97844
  Beta  occ. eigenvalues --   -5.97716  -5.97660  -1.01555  -0.95197  -0.91382
  Beta  occ. eigenvalues --   -0.82949  -0.75379  -0.69630  -0.64294  -0.60383
  Beta  occ. eigenvalues --   -0.59926  -0.58746  -0.52335  -0.49033  -0.46704
  Beta  occ. eigenvalues --   -0.43337  -0.42373  -0.40400  -0.39621  -0.38744
  Beta  occ. eigenvalues --   -0.37293  -0.36332  -0.35106  -0.34373  -0.33641
  Beta  occ. eigenvalues --   -0.32547  -0.31473  -0.30819  -0.29985  -0.28920
  Beta  occ. eigenvalues --   -0.27687  -0.26574  -0.24675  -0.23897  -0.22938
  Beta  occ. eigenvalues --   -0.22214  -0.21657  -0.19396  -0.16734  -0.13661
  Beta virt. eigenvalues --    0.06664   0.07434   0.07775   0.08028   0.09732
  Beta virt. eigenvalues --    0.10013   0.10110   0.10419   0.10689   0.12428
  Beta virt. eigenvalues --    0.12556   0.12697   0.13080   0.13313   0.13826

 Mulliken charges and spin densities:
               1          2
     1  C   -0.330112  -0.253628
     2  C    0.476724  -0.602747
     3  C   -0.913674   0.259196
     4  C    0.356759  -0.470539
     5  C   -0.675577  -0.484232
     6  S    1.159774  -0.455952
     7  O   -0.215289   0.006843
     8  O   -0.180735   0.008084
     9  N    0.216148  -0.180510
    10  C   -0.183182   0.420099
    11  C    0.782894  -1.164089
    12  O   -0.192484   0.000282
    13  C    1.133408  -1.593814
    14  H    0.024627   0.157446
    15  H    0.116265   0.063423
    16  H    0.127075   0.048157
    17  H   -0.182138   0.473064
    18  H    0.178224  -0.032963
    19  H    0.311024  -0.098715
    20  H   -0.218125   0.436250
    21  H    0.199058   0.025821
    22  H    0.124873   0.120974
    23  H   -0.181856   0.430912
    24  H   -1.419106   1.704898
    25  H   -0.474047   0.652691
    26  H    0.022786   0.121983
    27  H   -0.376421   0.553454
    28  H   -0.686893   0.853615
 Sum of Mulliken charges =  -1.00000   1.00000

 Dipole moment (field-independent basis, Debye):
    X=             -6.7701    Y=             -2.9768    Z=              5.5259  Tot=              9.2321
 Quadrupole moment (field-independent basis, Debye-Ang):
   XX=           -185.3855   YY=           -118.4540   ZZ=           -128.2229
   XY=            -10.9364   XZ=             10.7819   YZ=              1.9754

 Summary of Natural Population Analysis:

                                       Natural Population
                Natural  -----------------------------------------------
    Atom  No    Charge         Core      Valence    Rydberg      Total
 -----------------------------------------------------------------------
      C    1   -0.29539      0.99963     2.28818    0.00757     3.29539
      C    2   -0.19379      0.99954     2.17900    0.01524     3.19379
      C    3   -0.01459      0.99954     2.00086    0.01419     3.01459
      C    4   -0.21452      0.99960     2.20497    0.00996     3.21452
      C    5   -0.28506      0.99960     2.27513    0.01033     3.28506
      S    6    1.01026      4.99925     1.89687    0.09363     6.98974
      O    7   -0.47018      0.99991     3.46472    0.00556     4.47018
      O    8   -0.46732      0.99991     3.46169    0.00572     4.46732
      N    9   -0.34213      0.99971     2.82764    0.01478     3.84213
      C   10   -0.02860      0.99960     2.01206    0.01695     3.02860
      C   11   -0.00796      0.99962     1.99606    0.01229     3.00796
      O   12   -0.30971      0.99991     3.30218    0.00762     4.30971
      C   13   -0.01410      0.99962     2.00150    0.01298     3.01410
      H   14    0.11580      0.00000     0.38309    0.00110     0.38420
      H   15    0.10682      0.00000     0.39224    0.00094     0.39318
      H   16    0.10443      0.00000     0.39476    0.00082     0.39557
      H   17    0.11829      0.00000     0.38004    0.00167     0.38171
      H   18    0.09421      0.00000     0.40313    0.00267     0.40579
      H   19    0.11762      0.00000     0.38045    0.00193     0.38238
      H   20    0.10672      0.00000     0.39154    0.00174     0.39328
      H   21    0.11216      0.00000     0.38679    0.00104     0.38784
      H   22    0.11801      0.00000     0.38077    0.00122     0.38199
      H   23    0.18612      0.00000     0.30324    0.01064     0.31388
      H   24    0.10622      0.00000     0.38527    0.00851     0.39378
      H   25    0.08897      0.00000     0.40921    0.00182     0.41103
      H   26    0.08263      0.00000     0.41608    0.00130     0.41737
      H   27    0.08599      0.00000     0.41196    0.00204     0.41401
      H   28    0.08912      0.00000     0.40808    0.00281     0.41088
 =======================================================================
   * Total *   -0.00000     16.99544    37.73749    0.26707    55.00000

 Normal termination of Gaussian 16 at Mon Dec 14 17:04:17 2020.
