 Gaussian 16, Revision A.03,

 -----------------------------------------------------------
 # opt freq B3LYP/6-31G(d) empiricaldispersion=gd3bj scf=xqc
 -----------------------------------------------------------

 -----------------------------
 CID_3119184_JID_6640_neutraal
 -----------------------------
 Symbolic Z-matrix:
 Charge =  0 Multiplicity = 1

 SCF Done:  E(RB3LYP) =  -1119.31978167     A.U. after   15 cycles
 SCF Done:  E(RB3LYP) =  -1119.32867171     A.U. after   14 cycles
 SCF Done:  E(RB3LYP) =  -1119.33164005     A.U. after   13 cycles
 SCF Done:  E(RB3LYP) =  -1119.32932470     A.U. after   14 cycles
 SCF Done:  E(RB3LYP) =  -1119.33424553     A.U. after   14 cycles
 SCF Done:  E(RB3LYP) =  -1119.33551379     A.U. after   13 cycles
 SCF Done:  E(RB3LYP) =  -1119.33582750     A.U. after   12 cycles
 SCF Done:  E(RB3LYP) =  -1119.33603057     A.U. after   12 cycles
 SCF Done:  E(RB3LYP) =  -1119.33609917     A.U. after   11 cycles
 SCF Done:  E(RB3LYP) =  -1119.33611685     A.U. after   11 cycles
 SCF Done:  E(RB3LYP) =  -1119.33612068     A.U. after    9 cycles
 SCF Done:  E(RB3LYP) =  -1119.33612275     A.U. after    9 cycles
 SCF Done:  E(RB3LYP) =  -1119.33612402     A.U. after    8 cycles
 SCF Done:  E(RB3LYP) =  -1119.33612466     A.U. after    8 cycles
 Optimization completed.
    -- Stationary point found.
 Normal termination of Gaussian 16 at Fri Dec 11 00:02:42 2020.

 --------------------------------------------------------------------
 #N Geom=AllCheck Guess=TCheck SCRF=Check GenChk RB3LYP/6-31G(d) Freq
 --------------------------------------------------------------------

 Structure from the checkpoint file:  "JID_6640.chk"
 -----------------------------
 CID_3119184_JID_6640_neutraal
 -----------------------------
 Charge =  0 Multiplicity = 1

 SCF Done:  E(RB3LYP) =  -1119.33612466     A.U. after    1 cycles

  Exact polarizability: 251.097   3.078 137.603   4.301  -5.545  74.558
 Approx polarizability: 390.351   9.615 250.789  11.179  -9.007 122.008

                      1                      2                      3
                      A                      A                      A
 Frequencies --     35.0295                57.3359                84.4244
 Red. masses --      9.0630                 6.4203                 6.3183
 Frc consts  --      0.0066                 0.0124                 0.0265
 IR Inten    --      0.3766                 0.3392                 0.6111

                      4                      5                      6
                      A                      A                      A
 Frequencies --    129.0419               138.0489               155.8898
 Red. masses --      7.4079                11.0555                 5.6759
 Frc consts  --      0.0727                 0.1241                 0.0813
 IR Inten    --      0.6304                 2.3359                 3.0189

                      7                      8                      9
                      A                      A                      A
 Frequencies --    187.7252               218.4122               237.0101
 Red. masses --      5.0376                 1.5974                 2.7717
 Frc consts  --      0.1046                 0.0449                 0.0917
 IR Inten    --      0.9808                 1.2247                 1.0467

                     10                     11                     12
                      A                      A                      A
 Frequencies --    268.3117               288.9864               364.6354
 Red. masses --      4.7314                 4.6136                 3.5648
 Frc consts  --      0.2007                 0.2270                 0.2793
 IR Inten    --      0.8067                 1.6306                11.8638

                     13                     14                     15
                      A                      A                      A
 Frequencies --    384.1764               394.8157               428.3396
 Red. masses --      8.3378                 4.7868                 7.3474
 Frc consts  --      0.7250                 0.4396                 0.7943
 IR Inten    --     27.4292                 5.9789                27.9926

                     16                     17                     18
                      A                      A                      A
 Frequencies --    476.8425               509.3803               511.0634
 Red. masses --      4.7891                 9.3683                 6.4194
 Frc consts  --      0.6416                 1.4322                 0.9879
 IR Inten    --     23.2341                26.0299                62.9085

                     19                     20                     21
                      A                      A                      A
 Frequencies --    538.6098               619.7020               627.0830
 Red. masses --      7.3695                 1.8884                 2.3096
 Frc consts  --      1.2596                 0.4273                 0.5351
 IR Inten    --      0.3940                 3.7885                 0.7715

                     22                     23                     24
                      A                      A                      A
 Frequencies --    640.6766               656.3192               686.6395
 Red. masses --      3.9024                 6.9010                 1.1305
 Frc consts  --      0.9437                 1.7514                 0.3140
 IR Inten    --      6.5138                 7.4502               142.5901

                     25                     26                     27
                      A                      A                      A
 Frequencies --    691.6649               726.6379               742.7144
 Red. masses --      5.5127                 4.7968                 7.6736
 Frc consts  --      1.5539                 1.4923                 2.4940
 IR Inten    --      5.0224                 8.2024                71.0978

                     28                     29                     30
                      A                      A                      A
 Frequencies --    744.5585               781.3855               798.4315
 Red. masses --      1.3307                 8.0229                 6.6686
 Frc consts  --      0.4346                 2.8861                 2.5047
 IR Inten    --     42.3847                45.5659                 5.7645

                     31                     32                     33
                      A                      A                      A
 Frequencies --    840.9818               848.0992               898.8336
 Red. masses --      6.4056                 4.7569                 1.2826
 Frc consts  --      2.6692                 2.0159                 0.6105
 IR Inten    --      5.3572                35.8423                 3.6800

                     34                     35                     36
                      A                      A                      A
 Frequencies --    926.7922               990.7130              1032.1806
 Red. masses --      2.6217                 1.6173                 2.6489
 Frc consts  --      1.3268                 0.9353                 1.6628
 IR Inten    --     14.8084                58.5317                 6.6385

                     37                     38                     39
                      A                      A                      A
 Frequencies --   1037.5487              1067.3320              1107.6556
 Red. masses --      1.7321                 1.5177                 4.2021
 Frc consts  --      1.0986                 1.0187                 3.0376
 IR Inten    --      7.1665                 7.5812                 4.4000

                     40                     41                     42
                      A                      A                      A
 Frequencies --   1117.2287              1223.5229              1240.7285
 Red. masses --      1.1901                 4.7946                 3.1114
 Frc consts  --      0.8752                 4.2289                 2.8221
 IR Inten    --      3.7013                40.8305                45.0156

                     43                     44                     45
                      A                      A                      A
 Frequencies --   1268.4978              1333.6344              1399.7015
 Red. masses --      1.8184                 2.9688                 1.5595
 Frc consts  --      1.7240                 3.1111                 1.8002
 IR Inten    --      9.8887               366.5712                 6.1303

                     46                     47                     48
                      A                      A                      A
 Frequencies --   1411.9084              1425.2886              1440.1841
 Red. masses --      2.0762                 2.0301                 1.6096
 Frc consts  --      2.4386                 2.4298                 1.9670
 IR Inten    --    291.4789                72.4894                57.3452

                     49                     50                     51
                      A                      A                      A
 Frequencies --   1443.4436              1454.6691              1480.5263
 Red. masses --      2.4709                 5.0017                 4.0675
 Frc consts  --      3.0333                 6.2359                 5.2530
 IR Inten    --    279.1223               162.8069                 9.2790

                     52                     53                     54
                      A                      A                      A
 Frequencies --   1505.3486              1520.2721              1580.2937
 Red. masses --      1.1976                 1.0991                 5.6130
 Frc consts  --      1.5990                 1.4967                 8.2588
 IR Inten    --      9.2817                 3.9226                21.6908

                     55                     56                     57
                      A                      A                      A
 Frequencies --   1622.6870              1769.3366              1803.0386
 Red. masses --      6.3243                 9.4885                 8.9373
 Frc consts  --      9.8114                17.5013                17.1186
 IR Inten    --    563.5339               428.4424               219.0664

                     58                     59                     60
                      A                      A                      A
 Frequencies --   1846.2179              3059.3984              3128.0385
 Red. masses --      8.9753                 1.0350                 1.1010
 Frc consts  --     18.0245                 5.7079                 6.3472
 IR Inten    --    678.9930                14.2613                10.8538

                     61                     62                     63
                      A                      A                      A
 Frequencies --   3132.9992              3153.5661              3222.7171
 Red. masses --      1.1025                 1.0863                 1.0912
 Frc consts  --      6.3762                 6.3650                 6.6774
 IR Inten    --      9.7783                 0.9847                 7.0484

                     64                     65                     66
                      A                      A                      A
 Frequencies --   3269.8850              3612.9046              3614.4958
 Red. masses --      1.0965                 1.0767                 1.0783
 Frc consts  --      6.9078                 8.2803                 8.3002
 IR Inten    --      0.4347                91.4963                77.6540

 - Thermochemistry -
 -------------------
 Temperature   298.150 Kelvin.  Pressure   1.00000 Atm.
 Atom     1 has atomic number  6 and mass  12.00000

 Molecular mass:   236.02556 amu.
 Principal axes and moments of inertia in atomic units:
                           1         2         3
     Eigenvalues --  1672.209326431.156817536.50761
           X            0.99993   0.01102  -0.00392
           Y           -0.01111   0.99964  -0.02455
           Z            0.00365   0.02459   0.99969
 This molecule is an asymmetric top.
 Rotational symmetry number  1.
 Warning -- assumption of classical behavior for rotation
           may cause significant error
 Rotational temperatures (Kelvin)      0.05180     0.01347     0.01149
 Rotational constants (GHZ):           1.07926     0.28062     0.23947
 Zero-point vibrational energy     454309.2 (Joules/Mol)
                                  108.58250 (Kcal/Mol)
 Warning -- explicit consideration of  20 degrees of freedom as
           vibrations may cause significant error
 Vibrational temperatures:     50.40    82.49   121.47   185.66   198.62
          (Kelvin)            224.29   270.09   314.25   341.00   386.04
                              415.79   524.63   552.74   568.05   616.29
                              686.07   732.88   735.31   774.94   891.61
                              902.23   921.79   944.30   987.92   995.15
                             1045.47  1068.60  1071.25  1124.24  1148.76
                             1209.99  1220.23  1293.22  1333.45  1425.42
                             1485.08  1492.80  1535.65  1593.67  1607.44
                             1760.38  1785.13  1825.09  1918.80  2013.86
                             2031.42  2050.67  2072.10  2076.79  2092.94
                             2130.15  2165.86  2187.33  2273.69  2334.68
                             2545.68  2594.17  2656.30  4401.79  4500.55
                             4507.69  4537.28  4636.77  4704.64  5198.16
                             5200.45

 Zero-point correction=                           0.173037 (Hartree/Particle)
 Thermal correction to Energy=                    0.186741
 Thermal correction to Enthalpy=                  0.187685
 Thermal correction to Gibbs Free Energy=         0.131752
 Sum of electronic and zero-point Energies=          -1119.163087
 Sum of electronic and thermal Energies=             -1119.149384
 Sum of electronic and thermal Enthalpies=           -1119.148440
 Sum of electronic and thermal Free Energies=        -1119.204372

                     E (Thermal)             CV                S
                      KCal/Mol        Cal/Mol-Kelvin    Cal/Mol-Kelvin
 Total                  117.181             52.180            117.719
 Electronic               0.000              0.000              0.000
 Translational            0.889              2.981             42.278
 Rotational               0.889              2.981             32.761
 Vibrational            115.404             46.219             42.681
 Vibration     1          0.594              1.982              5.522
 Vibration     2          0.596              1.975              4.547
 Vibration     3          0.601              1.960              3.785
 Vibration     4          0.612              1.924              2.960
 Vibration     5          0.614              1.915              2.831
 Vibration     6          0.620              1.896              2.599
 Vibration     7          0.632              1.857              2.250
 Vibration     8          0.646              1.813              1.972
 Vibration     9          0.656              1.784              1.825
 Vibration    10          0.673              1.731              1.607
 Vibration    11          0.686              1.694              1.480
 Vibration    12          0.738              1.545              1.102
 Vibration    13          0.753              1.504              1.023
 Vibration    14          0.762              1.481              0.982
 Vibration    15          0.790              1.409              0.864
 Vibration    16          0.833              1.301              0.719
 Vibration    17          0.865              1.229              0.635
 Vibration    18          0.866              1.225              0.631
 Vibration    19          0.894              1.165              0.568
 Vibration    20          0.980              0.990              0.417

                           ! Non-Optimized Parameters !
 Normal termination of Gaussian 16 at Fri Dec 11 00:09:50 2020.

 ----------------------------------------------------------------------
 # B3LYP/6-311++G(d,p) empiricaldispersion=gd3bj scf=xqc pop=npa geom=c
 heck
 ----------------------------------------------------------------------

 -------------------------------------
 CID_3119184_JID_6640_Energie_neutraal
 -------------------------------------
 Structure from the checkpoint file:  "JID_6640.chk"
 Charge =  0 Multiplicity = 1

 SCF Done:  E(RB3LYP) =  -1119.57011683     A.U. after   16 cycles
 Normal termination of Gaussian 16 at Fri Dec 11 00:12:37 2020.

 ----------------------------------------------------------------------
 # B3LYP/6-311++G(d,p) empiricaldispersion=gd3bj scf=xqc pop=npa geom=c
 heck
 ----------------------------------------------------------------------

 -----------------------------------
 CID_3119184_JID_6640_Energie_kation
 -----------------------------------
 Structure from the checkpoint file:  "JID_6640.chk"
 Charge =  1 Multiplicity = 2

 SCF Done:  E(UB3LYP) =  -1119.25737344     A.U. after   32 cycles
 Normal termination of Gaussian 16 at Fri Dec 11 00:20:02 2020.
 Gaussian 16:  ES64L-G16RevA.03 25-Dec-2016

 ----------------------------------------------------------------------
 # B3LYP/6-311++G(d,p) empiricaldispersion=gd3bj scf=xqc pop=npa geom=c
 heck
 ----------------------------------------------------------------------

 ----------------------------------
 CID_3119184_JID_6640_Energie_anion
 ----------------------------------
 Structure from the checkpoint file:  "JID_6640.chk"
 Charge = -1 Multiplicity = 2

                         Standard orientation:
 ---------------------------------------------------------------------
 Center     Atomic      Atomic             Coordinates (Angstroms)
 Number     Number       Type             X           Y           Z
 ---------------------------------------------------------------------
      1          6           0       -1.430342   -1.893140    1.314045
      2          6           0       -2.226738   -0.892652    0.536736
      3          6           0       -1.750240    0.319612    0.037294
      4         16           0       -3.067178    1.282840   -0.637142
      5          6           0       -4.205593    0.033010   -0.308986
      6          6           0       -3.626978   -1.036599    0.322059
      7          6           0       -0.468012    0.945946    0.117572
      8          6           0        0.797111    0.428679    0.052427
      9          6           0        1.130040   -0.912692   -0.461863
     10          8           0        0.333453   -1.732240   -0.894141
     11          7           0        2.495808   -1.211759   -0.484239
     12          6           0        3.563059   -0.387146   -0.160104
     13          8           0        4.722826   -0.740722   -0.236467
     14          7           0        3.182339    0.881216    0.253805
     15          6           0        1.890505    1.390367    0.356213
     16          8           0        1.715310    2.550418    0.695903
     17          1           0       -2.058160   -2.370018    2.073644
     18          1           0       -1.028228   -2.664617    0.649778
     19          1           0       -0.576286   -1.424793    1.811957
     20          1           0       -5.238694    0.144998   -0.609960
     21          1           0       -4.182740   -1.911924    0.640200
     22          1           0       -0.478672    2.026591    0.262559
     23          1           0        2.743447   -2.121633   -0.854606
     24          1           0        3.937557    1.517806    0.479032
 ---------------------------------------------------------------------

 SCF Done:  E(UB3LYP) =  -1119.62898384     A.U. after   22 cycles

 The electronic state is 2-A.
 Alpha  occ. eigenvalues --  -88.74483 -18.98626 -18.96278 -18.95934 -14.23964
 Alpha  occ. eigenvalues --  -14.23709 -10.19905 -10.14827 -10.14725 -10.07369
 Alpha  occ. eigenvalues --  -10.07296 -10.05417 -10.05215 -10.04209 -10.04055
 Alpha  occ. eigenvalues --  -10.03620  -7.83164  -5.79453  -5.79096  -5.78764
 Alpha  occ. eigenvalues --   -0.96003  -0.91772  -0.91486  -0.83121  -0.79053
 Alpha  occ. eigenvalues --   -0.75781  -0.67246  -0.64355  -0.61089  -0.56158
 Alpha  occ. eigenvalues --   -0.54755  -0.52289  -0.51842  -0.45216  -0.44246
 Alpha  occ. eigenvalues --   -0.42904  -0.37849  -0.37090  -0.35863  -0.35346
 Alpha  occ. eigenvalues --   -0.33753  -0.31586  -0.31398  -0.30404  -0.29338
 Alpha  occ. eigenvalues --   -0.28664  -0.28217  -0.27790  -0.26239  -0.25476
 Alpha  occ. eigenvalues --   -0.24619  -0.23061  -0.21881  -0.18632  -0.17512
 Alpha  occ. eigenvalues --   -0.16503  -0.16319  -0.15284  -0.12831  -0.12553
 Alpha  occ. eigenvalues --   -0.09930  -0.00174
 Alpha virt. eigenvalues --    0.08078   0.09073   0.09760   0.10505   0.10832
 Alpha virt. eigenvalues --    0.11399   0.12114   0.12601   0.13251   0.13362
 Alpha virt. eigenvalues --    0.13886   0.14138   0.14754   0.14833   0.15406

  Beta  occ. eigenvalues --  -88.74440 -18.98526 -18.96149 -18.95747 -14.23987
  Beta  occ. eigenvalues --  -14.23735 -10.19843 -10.14705 -10.14617 -10.07538
  Beta  occ. eigenvalues --  -10.07028 -10.05524 -10.04902 -10.04225 -10.04052
  Beta  occ. eigenvalues --  -10.02978  -7.83123  -5.79420  -5.79067  -5.78651
  Beta  occ. eigenvalues --   -0.95850  -0.91534  -0.91205  -0.82994  -0.79012
  Beta  occ. eigenvalues --   -0.75507  -0.66533  -0.64003  -0.60836  -0.55844
  Beta  occ. eigenvalues --   -0.54602  -0.51818  -0.51559  -0.44946  -0.44023
  Beta  occ. eigenvalues --   -0.42739  -0.37571  -0.36966  -0.35464  -0.35147
  Beta  occ. eigenvalues --   -0.33574  -0.31351  -0.31161  -0.30135  -0.28980
  Beta  occ. eigenvalues --   -0.28400  -0.27638  -0.27129  -0.25994  -0.25214
  Beta  occ. eigenvalues --   -0.24217  -0.22765  -0.21735  -0.18532  -0.16744
  Beta  occ. eigenvalues --   -0.16043  -0.15650  -0.14215  -0.12508  -0.12037
  Beta  occ. eigenvalues --   -0.08924
  Beta virt. eigenvalues --    0.06076   0.08069   0.09084   0.09763   0.10785
  Beta virt. eigenvalues --    0.11190   0.11489   0.12153   0.13284   0.13414
  Beta virt. eigenvalues --    0.13903   0.13983   0.14578   0.14845   0.15096

 Mulliken charges and spin densities:
               1          2
     1  C   -0.945425  -0.023166
     2  C    0.200858   0.176358
     3  C    0.846777  -0.096238
     4  S   -0.642032   0.056941
     5  C   -0.111407   0.178580
     6  C    0.174810  -0.054765
     7  C   -1.020640   0.502171
     8  C    0.801163  -0.030381
     9  C   -0.456669   0.063122
    10  O   -0.338146   0.064738
    11  N   -0.388830  -0.016998
    12  C    0.355190   0.036305
    13  O   -0.402121   0.034440
    14  N   -0.441525  -0.016685
    15  C    0.119982   0.091360
    16  O   -0.391484   0.052638
    17  H    0.106664   0.003472
    18  H    0.185710   0.009603
    19  H    0.125174   0.003240
    20  H    0.196914  -0.012898
    21  H    0.117716   0.006829
    22  H    0.227438  -0.028922
    23  H    0.333609   0.000013
    24  H    0.346276   0.000242
 Sum of Mulliken charges =  -1.00000   1.00000

 Dipole moment (field-independent basis, Debye):
    X=             -2.4369    Y=             -1.6400    Z=              0.5867  Tot=              2.9953
 Quadrupole moment (field-independent basis, Debye-Ang):
   XX=           -144.8886   YY=           -120.2924   ZZ=           -108.4599
   XY=              2.4066   XZ=             -0.4417   YZ=             -5.9061

 Summary of Natural Population Analysis:

                                       Natural Population
                Natural  -----------------------------------------------
    Atom  No    Charge         Core      Valence    Rydberg      Total
 -----------------------------------------------------------------------
      C    1   -0.29832      0.99963     2.29360    0.00508     3.29832
      C    2    0.05141      0.99945     1.94073    0.00841     2.94859
      C    3   -0.13844      0.99943     2.12739    0.01162     3.13844
      S    4    0.20478      4.99943     2.77237    0.02341     7.79522
      C    5   -0.13637      0.99956     2.12543    0.01137     3.13637
      C    6   -0.15790      0.99950     2.14876    0.00964     3.15790
      C    7    0.10238      0.99943     1.88780    0.01039     2.89762
      C    8   -0.15329      0.99943     2.14489    0.00897     3.15329
      C    9    0.34497      0.99963     1.63357    0.02183     2.65503
      O   10   -0.30440      0.99988     3.29653    0.00800     4.30440
      N   11   -0.33028      0.99965     2.82346    0.00718     3.83028
      C   12    0.41466      0.99973     1.56332    0.02229     2.58534
      O   13   -0.32371      0.99987     3.31733    0.00651     4.32371
      N   14   -0.32899      0.99964     2.82232    0.00703     3.82899
      C   15    0.35303      0.99965     1.62523    0.02210     2.64697
      O   16   -0.31650      0.99988     3.30971    0.00692     4.31650
      H   17    0.09194      0.00000     0.40709    0.00097     0.40806
      H   18    0.12087      0.00000     0.37807    0.00106     0.37913
      H   19    0.10693      0.00000     0.39202    0.00105     0.39307
      H   20    0.09820      0.00000     0.40076    0.00104     0.40180
      H   21    0.09828      0.00000     0.40064    0.00108     0.40172
      H   22    0.10156      0.00000     0.39692    0.00152     0.39844
      H   23    0.19957      0.00000     0.29765    0.00278     0.30043
      H   24    0.19962      0.00000     0.29751    0.00288     0.30038
 =======================================================================
   * Total *    0.00000     19.99378    40.80309    0.20313    61.00000

 Normal termination of Gaussian 16 at Fri Dec 11 00:25:13 2020.
