 Gaussian 16, Revision A.03,

 -----------------------------------------------------------
 # opt freq B3LYP/6-31G(d) empiricaldispersion=gd3bj scf=xqc
 -----------------------------------------------------------

 ------------------------------
 CID_61713023_JID_7609_neutraal
 ------------------------------
 Symbolic Z-matrix:
 Charge =  0 Multiplicity = 1

 SCF Done:  E(RB3LYP) =  -821.794032328     A.U. after   15 cycles
 SCF Done:  E(RB3LYP) =  -821.799625960     A.U. after   13 cycles
 SCF Done:  E(RB3LYP) =  -821.800219995     A.U. after   13 cycles
 SCF Done:  E(RB3LYP) =  -821.801003097     A.U. after   13 cycles
 SCF Done:  E(RB3LYP) =  -821.801455031     A.U. after   13 cycles
 SCF Done:  E(RB3LYP) =  -821.802044639     A.U. after   12 cycles
 SCF Done:  E(RB3LYP) =  -821.802379898     A.U. after   13 cycles
 SCF Done:  E(RB3LYP) =  -821.802686609     A.U. after   12 cycles
 SCF Done:  E(RB3LYP) =  -821.803143281     A.U. after   13 cycles
 SCF Done:  E(RB3LYP) =  -821.803297857     A.U. after   13 cycles
 SCF Done:  E(RB3LYP) =  -821.803370430     A.U. after    8 cycles
 SCF Done:  E(RB3LYP) =  -821.803371857     A.U. after    8 cycles
 SCF Done:  E(RB3LYP) =  -821.803373838     A.U. after    9 cycles
 SCF Done:  E(RB3LYP) =  -821.803375170     A.U. after    9 cycles
 SCF Done:  E(RB3LYP) =  -821.803375494     A.U. after    7 cycles
 SCF Done:  E(RB3LYP) =  -821.803375371     A.U. after    7 cycles
 Optimization completed.
    -- Stationary point found.
 Normal termination of Gaussian 16 at Fri Dec 11 13:12:33 2020.

 --------------------------------------------------------------------
 #N Geom=AllCheck Guess=TCheck SCRF=Check GenChk RB3LYP/6-31G(d) Freq
 --------------------------------------------------------------------

 Structure from the checkpoint file:  "JID_7609.chk"
 ------------------------------
 CID_61713023_JID_7609_neutraal
 ------------------------------
 Charge =  0 Multiplicity = 1

 SCF Done:  E(RB3LYP) =  -821.803375371     A.U. after    1 cycles

  Exact polarizability: 181.564   6.863 131.898   1.578  -2.921 117.898
 Approx polarizability: 215.520  24.846 209.763  -1.287 -15.289 176.328

                      1                      2                      3
                      A                      A                      A
 Frequencies --     14.9958                37.8669                44.6050
 Red. masses --      4.4781                 4.4757                 3.9715
 Frc consts  --      0.0006                 0.0038                 0.0047
 IR Inten    --      0.7266                 0.7630                 0.2230

                      4                      5                      6
                      A                      A                      A
 Frequencies --     57.6184                60.0819                74.0133
 Red. masses --      5.2860                 3.5577                 3.6084
 Frc consts  --      0.0103                 0.0076                 0.0116
 IR Inten    --      0.5158                 1.6526                 2.4817

                      7                      8                      9
                      A                      A                      A
 Frequencies --     89.1600               110.0879               127.0248
 Red. masses --      3.2713                 3.4963                 2.5886
 Frc consts  --      0.0153                 0.0250                 0.0246
 IR Inten    --      2.6798                 3.5162                 5.2583

                     10                     11                     12
                      A                      A                      A
 Frequencies --    167.7497               174.5273               225.1960
 Red. masses --      1.8143                 1.4890                 2.0509
 Frc consts  --      0.0301                 0.0267                 0.0613
 IR Inten    --      0.9171                 2.9087                 0.2443

                     13                     14                     15
                      A                      A                      A
 Frequencies --    241.8125               267.2710               286.7321
 Red. masses --      2.6116                 2.1209                 2.3125
 Frc consts  --      0.0900                 0.0893                 0.1120
 IR Inten    --     10.6369                 0.9014                 5.7698

                     16                     17                     18
                      A                      A                      A
 Frequencies --    316.5133               341.3562               361.8104
 Red. masses --      2.7419                 4.1239                 2.6708
 Frc consts  --      0.1618                 0.2831                 0.2060
 IR Inten    --      8.4311                 0.4762                15.8921

                     19                     20                     21
                      A                      A                      A
 Frequencies --    380.6461               408.6727               437.2998
 Red. masses --      2.1903                 2.2507                 2.3697
 Frc consts  --      0.1870                 0.2215                 0.2670
 IR Inten    --      9.7429                 5.1667                 5.2365

                     22                     23                     24
                      A                      A                      A
 Frequencies --    449.6677               466.7216               495.0576
 Red. masses --      2.4358                 2.5758                 4.5665
 Frc consts  --      0.2902                 0.3306                 0.6594
 IR Inten    --      1.5079                 0.3959                 3.0867

                     25                     26                     27
                      A                      A                      A
 Frequencies --    523.3007               543.5400               572.4150
 Red. masses --      3.0339                 3.3791                 3.5878
 Frc consts  --      0.4895                 0.5882                 0.6926
 IR Inten    --      9.5251                14.7209                 2.8741

                     28                     29                     30
                      A                      A                      A
 Frequencies --    598.1663               640.8437               688.4951
 Red. masses --      3.5748                 2.3439                 4.8218
 Frc consts  --      0.7536                 0.5671                 1.3467
 IR Inten    --     12.0593                 4.0184                 9.5821

                     31                     32                     33
                      A                      A                      A
 Frequencies --    729.3370               742.6981               814.1390
 Red. masses --      3.4857                 2.7194                 1.7833
 Frc consts  --      1.0925                 0.8838                 0.6964
 IR Inten    --     31.1483                15.7014               162.9165

                     34                     35                     36
                      A                      A                      A
 Frequencies --    859.3404               875.9114               908.0897
 Red. masses --      1.6005                 2.0297                 2.9496
 Frc consts  --      0.6964                 0.9175                 1.4331
 IR Inten    --      6.6680                13.4996                17.9596

                     37                     38                     39
                      A                      A                      A
 Frequencies --    939.6830               956.2390               965.0961
 Red. masses --      2.8010                 3.5916                 2.1874
 Frc consts  --      1.4572                 1.9350                 1.2004
 IR Inten    --     13.0047                19.9716                21.9580

                     40                     41                     42
                      A                      A                      A
 Frequencies --   1003.4771              1013.6518              1028.5211
 Red. masses --      2.5262                 1.7401                 2.3226
 Frc consts  --      1.4988                 1.0534                 1.4476
 IR Inten    --     25.5715                24.5895                20.9519

                     43                     44                     45
                      A                      A                      A
 Frequencies --   1038.0666              1052.6203              1060.4066
 Red. masses --      2.4319                 2.0872                 2.1126
 Frc consts  --      1.5440                 1.3626                 1.3996
 IR Inten    --     30.9685                11.4634                48.6011

                     46                     47                     48
                      A                      A                      A
 Frequencies --   1083.6953              1137.6895              1148.5121
 Red. masses --      1.7844                 2.4232                 1.8950
 Frc consts  --      1.2347                 1.8479                 1.4728
 IR Inten    --      7.3887                16.4164                19.6103

                     49                     50                     51
                      A                      A                      A
 Frequencies --   1156.6777              1171.7737              1191.7095
 Red. masses --      2.9246                 1.4467                 1.3365
 Frc consts  --      2.3054                 1.1704                 1.1183
 IR Inten    --    140.3919                35.9997                 4.6036

                     52                     53                     54
                      A                      A                      A
 Frequencies --   1196.6315              1206.1645              1227.9089
 Red. masses --      2.4844                 2.3249                 1.6853
 Frc consts  --      2.0960                 1.9928                 1.4971
 IR Inten    --     15.0787                20.2534                40.1973

                     55                     56                     57
                      A                      A                      A
 Frequencies --   1236.2650              1251.5388              1260.2211
 Red. masses --      1.3940                 1.4889                 1.4332
 Frc consts  --      1.2553                 1.3741                 1.3410
 IR Inten    --      3.3176               135.5226               120.2864

                     58                     59                     60
                      A                      A                      A
 Frequencies --   1267.1064              1293.3999              1321.4547
 Red. masses --      1.8899                 2.1941                 1.5462
 Frc consts  --      1.7878                 2.1626                 1.5908
 IR Inten    --     15.7626                 3.4365                35.0065

                     61                     62                     63
                      A                      A                      A
 Frequencies --   1324.9039              1331.3779              1370.2680
 Red. masses --      1.2721                 1.4190                 1.2755
 Frc consts  --      1.3157                 1.4819                 1.4111
 IR Inten    --     33.8740                24.1963                 0.2306

                     64                     65                     66
                      A                      A                      A
 Frequencies --   1387.4868              1393.0330              1398.5395
 Red. masses --      1.3579                 1.2779                 1.2793
 Frc consts  --      1.5402                 1.4611                 1.4743
 IR Inten    --      2.1767                 4.0656                10.3481

                     67                     68                     69
                      A                      A                      A
 Frequencies --   1411.0818              1412.9020              1418.1478
 Red. masses --      1.2534                 1.3837                 1.4297
 Frc consts  --      1.4704                 1.6274                 1.6941
 IR Inten    --     14.2471                13.8236                 0.8389

                     70                     71                     72
                      A                      A                      A
 Frequencies --   1477.3042              1478.4796              1482.9546
 Red. masses --      2.1417                 1.2381                 2.3495
 Frc consts  --      2.7539                 1.5946                 3.0443
 IR Inten    --     77.6626                53.1723               205.6337

                     73                     74                     75
                      A                      A                      A
 Frequencies --   1489.4537              1496.2186              1503.4742
 Red. masses --      1.1004                 1.1158                 1.1907
 Frc consts  --      1.4383                 1.4718                 1.5857
 IR Inten    --     24.0245                 3.0593                34.1853

                     76                     77                     78
                      A                      A                      A
 Frequencies --   1506.3090              1510.5280              1513.7094
 Red. masses --      1.1002                 1.0997                 1.1176
 Frc consts  --      1.4708                 1.4784                 1.5088
 IR Inten    --     11.4092                 9.6286                 2.6451

                     79                     80                     81
                      A                      A                      A
 Frequencies --   1517.6565              1522.8063              1524.2439
 Red. masses --      1.0568                 1.1624                 1.1099
 Frc consts  --      1.4341                 1.5882                 1.5193
 IR Inten    --      2.9446                38.7271                 2.9975

                     82                     83                     84
                      A                      A                      A
 Frequencies --   1526.9679              1535.5905              1536.9931
 Red. masses --      1.1307                 1.0693                 1.0931
 Frc consts  --      1.5533                 1.4856                 1.5214
 IR Inten    --      1.0746                 0.6464                 8.0685

                     85                     86                     87
                      A                      A                      A
 Frequencies --   1551.7235              1738.4997              1757.1244
 Red. masses --      1.0580                 9.7475                10.2904
 Frc consts  --      1.5009                17.3578                18.7191
 IR Inten    --      8.7828               329.3567               264.6896

                     88                     89                     90
                      A                      A                      A
 Frequencies --   2938.8710              3013.6548              3026.7349
 Red. masses --      1.0626                 1.0357                 1.0723
 Frc consts  --      5.4074                 5.5419                 5.7880
 IR Inten    --     95.4847                47.3477                25.8625

                     91                     92                     93
                      A                      A                      A
 Frequencies --   3035.8498              3038.2894              3047.4639
 Red. masses --      1.0727                 1.0635                 1.0588
 Frc consts  --      5.8248                 5.7844                 5.7933
 IR Inten    --     13.5851                29.1473                39.1303

                     94                     95                     96
                      A                      A                      A
 Frequencies --   3049.1074              3051.4224              3055.7854
 Red. masses --      1.0638                 1.0715                 1.0725
 Frc consts  --      5.8271                 5.8783                 5.9005
 IR Inten    --     36.2761                 4.7429                92.7249

                     97                     98                     99
                      A                      A                      A
 Frequencies --   3062.3632              3068.2096              3077.3620
 Red. masses --      1.0710                 1.1046                 1.1004
 Frc consts  --      5.9179                 6.1268                 6.1401
 IR Inten    --     60.0010                50.3415                12.7778

                    100                    101                    102
                      A                      A                      A
 Frequencies --   3099.2400              3107.7823              3113.2700
 Red. masses --      1.1066                 1.0994                 1.1011
 Frc consts  --      6.2623                 6.2563                 6.2879
 IR Inten    --     20.3576                31.6216                31.5487

                    103                    104                    105
                      A                      A                      A
 Frequencies --   3149.6451              3168.9589              3169.1395
 Red. masses --      1.0992                 1.0926                 1.0949
 Frc consts  --      6.4247                 6.4649                 6.4790
 IR Inten    --     25.3220                 2.5497                 0.4844

                    106                    107                    108
                      A                      A                      A
 Frequencies --   3172.1027              3191.2258              3527.2331
 Red. masses --      1.0903                 1.0921                 1.0734
 Frc consts  --      6.4640                 6.5529                 7.8683
 IR Inten    --     17.1053                 3.5406                13.8083

 - Thermochemistry -
 -------------------
 Temperature   298.150 Kelvin.  Pressure   1.00000 Atm.
 Atom     1 has atomic number  6 and mass  12.00000

 Molecular mass:   243.15829 amu.
 Principal axes and moments of inertia in atomic units:
                           1         2         3
     Eigenvalues --  1694.532499513.132849840.21075
           X            0.99994  -0.00916   0.00628
           Y            0.00859   0.99635   0.08498
           Z           -0.00704  -0.08492   0.99636
 This molecule is an asymmetric top.
 Rotational symmetry number  1.
 Warning -- assumption of classical behavior for rotation
           may cause significant error
 Rotational temperatures (Kelvin)      0.05111     0.00910     0.00880
 Rotational constants (GHZ):           1.06504     0.18971     0.18340
 Zero-point vibrational energy     876998.9 (Joules/Mol)
                                  209.60776 (Kcal/Mol)
 Warning -- explicit consideration of  28 degrees of freedom as
           vibrations may cause significant error
 Vibrational temperatures:     21.58    54.48    64.18    82.90    86.44
          (Kelvin)            106.49   128.28   158.39   182.76   241.35
                              251.11   324.01   347.91   384.54   412.54
                              455.39   491.14   520.56   547.66   587.99
                              629.18   646.97   671.51   712.28   752.91
                              782.03   823.58   860.63   922.03   990.59
                             1049.35  1068.58  1171.36  1236.40  1260.24
                             1306.54  1351.99  1375.81  1388.56  1443.78
                             1458.42  1479.81  1493.55  1514.49  1525.69
                             1559.20  1636.88  1652.45  1664.20  1685.92
                             1714.60  1721.69  1735.40  1766.69  1778.71
                             1800.69  1813.18  1823.08  1860.91  1901.28
                             1906.24  1915.56  1971.51  1996.28  2004.26
                             2012.19  2030.23  2032.85  2040.40  2125.51
                             2127.20  2133.64  2142.99  2152.72  2163.16
                             2167.24  2173.31  2177.89  2183.57  2190.98
                             2193.05  2196.97  2209.37  2211.39  2232.58
                             2501.31  2528.11  4228.38  4335.98  4354.80
                             4367.91  4371.42  4384.62  4386.99  4390.32
                             4396.59  4406.06  4414.47  4427.64  4459.12
                             4471.41  4479.30  4531.64  4559.43  4559.68
                             4563.95  4591.46  5074.90

 Zero-point correction=                           0.334031 (Hartree/Particle)
 Thermal correction to Energy=                    0.352124
 Thermal correction to Enthalpy=                  0.353068
 Thermal correction to Gibbs Free Energy=         0.285353
 Sum of electronic and zero-point Energies=           -821.469344
 Sum of electronic and thermal Energies=              -821.451252
 Sum of electronic and thermal Enthalpies=            -821.450307
 Sum of electronic and thermal Free Energies=         -821.518022

                     E (Thermal)             CV                S
                      KCal/Mol        Cal/Mol-Kelvin    Cal/Mol-Kelvin
 Total                  220.961             66.122            142.517
 Electronic               0.000              0.000              0.000
 Translational            0.889              2.981             42.367
 Rotational               0.889              2.981             33.428
 Vibrational            219.184             60.160             66.723
 Vibration     1          0.593              1.986              7.206
 Vibration     2          0.594              1.982              5.368
 Vibration     3          0.595              1.980              5.043
 Vibration     4          0.596              1.974              4.537
 Vibration     5          0.597              1.973              4.454
 Vibration     6          0.599              1.966              4.044
 Vibration     7          0.602              1.957              3.678
 Vibration     8          0.606              1.941              3.267
 Vibration     9          0.611              1.926              2.991
 Vibration    10          0.624              1.882              2.461
 Vibration    11          0.627              1.874              2.386
 Vibration    12          0.650              1.803              1.917
 Vibration    13          0.658              1.776              1.790
 Vibration    14          0.672              1.733              1.614
 Vibration    15          0.684              1.698              1.493
 Vibration    16          0.703              1.642              1.328
 Vibration    17          0.721              1.593              1.206
 Vibration    18          0.736              1.551              1.114
 Vibration    19          0.750              1.511              1.037
 Vibration    20          0.773              1.451              0.931
 Vibration    21          0.798              1.389              0.835
 Vibration    22          0.809              1.362              0.797
 Vibration    23          0.824              1.324              0.747
 Vibration    24          0.851              1.261              0.671
 Vibration    25          0.878              1.198              0.602
 Vibration    26          0.899              1.154              0.558
 Vibration    27          0.929              1.091              0.500
 Vibration    28          0.956              1.036              0.453

 Optimization completed.
    -- Stationary point found.
 Normal termination of Gaussian 16 at Fri Dec 11 13:25:46 2020.

 ----------------------------------------------------------------------
 # B3LYP/6-311++G(d,p) empiricaldispersion=gd3bj scf=xqc pop=npa geom=c
 heck
 ----------------------------------------------------------------------

 --------------------------------------
 CID_61713023_JID_7609_Energie_neutraal
 --------------------------------------
 Structure from the checkpoint file:  "JID_7609.chk"
 Charge =  0 Multiplicity = 1

 SCF Done:  E(RB3LYP) =  -822.043974188     A.U. after   14 cycles
 Normal termination of Gaussian 16 at Fri Dec 11 13:32:34 2020.

 ----------------------------------------------------------------------
 # B3LYP/6-311++G(d,p) empiricaldispersion=gd3bj scf=xqc pop=npa geom=c
 heck
 ----------------------------------------------------------------------

 ------------------------------------
 CID_61713023_JID_7609_Energie_kation
 ------------------------------------
 Structure from the checkpoint file:  "JID_7609.chk"
 Charge =  1 Multiplicity = 2

 SCF Done:  E(UB3LYP) =  -821.753466217     A.U. after   27 cycles
 Normal termination of Gaussian 16 at Fri Dec 11 13:50:31 2020.
 Gaussian 16:  ES64L-G16RevA.03 25-Dec-2016

 ----------------------------------------------------------------------
 # B3LYP/6-311++G(d,p) empiricaldispersion=gd3bj scf=xqc pop=npa geom=c
 heck
 ----------------------------------------------------------------------

 -----------------------------------
 CID_61713023_JID_7609_Energie_anion
 -----------------------------------
 Structure from the checkpoint file:  "JID_7609.chk"
 Charge = -1 Multiplicity = 2

                         Standard orientation:
 ---------------------------------------------------------------------
 Center     Atomic      Atomic             Coordinates (Angstroms)
 Number     Number       Type             X           Y           Z
 ---------------------------------------------------------------------
      1          6           0        4.625972    1.028663    1.767374
      2          7           0        4.858853    0.890309    0.338617
      3          6           0        4.581923   -0.432537   -0.201699
      4          6           0        3.137818   -0.954327   -0.056732
      5          6           0        2.132000   -0.072711   -0.793411
      6          8           0        2.490909    0.938409   -1.397891
      7          7           0        0.812653   -0.452193   -0.763775
      8          6           0        0.259433   -1.583805   -0.027055
      9          6           0       -0.766216   -1.092647    1.002603
     10          7           0       -1.779376   -0.267690    0.349778
     11          6           0       -1.220519    0.872614   -0.379966
     12          6           0       -0.192875    0.388484   -1.408365
     13          6           0       -3.022813   -0.810408    0.140769
     14          8           0       -3.332228   -1.928200    0.542731
     15          6           0       -4.064288    0.028679   -0.619751
     16          8           0       -4.144331    1.392498   -0.258730
     17          6           0       -4.580372    1.582641    1.077899
     18          1           0        5.271842    0.328063    2.311544
     19          1           0        3.586344    0.848071    2.102504
     20          1           0        4.899373    2.041823    2.080285
     21          1           0        4.289245    1.555674   -0.178224
     22          1           0        4.841957   -0.416509   -1.264758
     23          1           0        5.252213   -1.152175    0.286763
     24          1           0        3.081364   -1.979439   -0.446924
     25          1           0        2.861817   -1.017635    1.003262
     26          1           0       -0.241409   -2.263013   -0.730910
     27          1           0        1.054258   -2.140091    0.467584
     28          1           0       -0.258271   -0.487099    1.764328
     29          1           0       -1.271946   -1.932421    1.478707
     30          1           0       -0.723096    1.532350    0.342705
     31          1           0       -2.020313    1.440924   -0.849569
     32          1           0        0.325887    1.226071   -1.874221
     33          1           0       -0.702616   -0.195050   -2.188504
     34          1           0       -3.836816    0.009252   -1.691971
     35          1           0       -5.021086   -0.485729   -0.462160
     36          1           0       -5.568260    1.127408    1.241445
     37          1           0       -3.871500    1.155852    1.801207
     38          1           0       -4.649079    2.661172    1.235685
 ---------------------------------------------------------------------

 SCF Done:  E(UB3LYP) =  -822.035923810     A.U. after   32 cycles

 The electronic state is 2-A.
 Alpha  occ. eigenvalues --  -19.05373 -19.00211 -18.99793 -14.25812 -14.25543
 Alpha  occ. eigenvalues --  -14.19578 -10.18382 -10.18367 -10.14294 -10.13172
 Alpha  occ. eigenvalues --  -10.12342 -10.12084 -10.11701 -10.11542 -10.09967
 Alpha  occ. eigenvalues --  -10.09019 -10.08508  -0.96992  -0.95175  -0.94877
 Alpha  occ. eigenvalues --   -0.87347  -0.83330  -0.80641  -0.69796  -0.67941
 Alpha  occ. eigenvalues --   -0.66258  -0.63953  -0.59359  -0.58641  -0.56792
 Alpha  occ. eigenvalues --   -0.55206  -0.51613  -0.48783  -0.44181  -0.42460
 Alpha  occ. eigenvalues --   -0.41669  -0.41161  -0.40520  -0.39917  -0.39294
 Alpha  occ. eigenvalues --   -0.38482  -0.37605  -0.37004  -0.36291  -0.34877
 Alpha  occ. eigenvalues --   -0.33871  -0.32791  -0.32146  -0.31579  -0.31438
 Alpha  occ. eigenvalues --   -0.31260  -0.29278  -0.28429  -0.28369  -0.27863
 Alpha  occ. eigenvalues --   -0.27682  -0.27344  -0.26272  -0.25681  -0.25610
 Alpha  occ. eigenvalues --   -0.20214  -0.18106  -0.17107  -0.16435  -0.14575
 Alpha  occ. eigenvalues --   -0.12799   0.03827
 Alpha virt. eigenvalues --    0.05748   0.06249   0.07178   0.07812   0.08033
 Alpha virt. eigenvalues --    0.08338   0.09067   0.09379   0.09808   0.10162
 Alpha virt. eigenvalues --    0.10403   0.10574   0.10884   0.11416   0.12073

  Beta  occ. eigenvalues --  -19.05369 -19.00181 -18.99784 -14.25818 -14.25546
  Beta  occ. eigenvalues --  -14.19576 -10.18375 -10.18337 -10.14279 -10.13140
  Beta  occ. eigenvalues --  -10.12318 -10.12068 -10.11684 -10.11519 -10.09959
  Beta  occ. eigenvalues --  -10.08990 -10.08474  -0.96973  -0.95153  -0.94840
  Beta  occ. eigenvalues --   -0.87332  -0.83318  -0.80630  -0.69762  -0.67895
  Beta  occ. eigenvalues --   -0.66211  -0.63922  -0.59308  -0.58582  -0.56740
  Beta  occ. eigenvalues --   -0.55155  -0.51572  -0.48745  -0.44122  -0.42415
  Beta  occ. eigenvalues --   -0.41622  -0.41107  -0.40485  -0.39893  -0.39265
  Beta  occ. eigenvalues --   -0.38452  -0.37579  -0.36964  -0.36260  -0.34836
  Beta  occ. eigenvalues --   -0.33844  -0.32756  -0.32094  -0.31532  -0.31405
  Beta  occ. eigenvalues --   -0.31220  -0.29241  -0.28376  -0.28317  -0.27824
  Beta  occ. eigenvalues --   -0.27629  -0.27306  -0.26246  -0.25649  -0.25582
  Beta  occ. eigenvalues --   -0.20193  -0.18072  -0.17091  -0.16408  -0.14545
  Beta  occ. eigenvalues --   -0.12786
  Beta virt. eigenvalues --    0.05951   0.06538   0.06937   0.07666   0.08269
  Beta virt. eigenvalues --    0.08293   0.08619   0.09387   0.09584   0.10144
  Beta virt. eigenvalues --    0.10367   0.10487   0.10866   0.11204   0.11612

 Mulliken charges and spin densities:
               1          2
     1  C    0.223618  -0.636830
     2  N   -0.206929   0.094386
     3  C    0.048890  -0.957948
     4  C    0.733137  -0.492659
     5  C   -0.423586   0.162466
     6  O   -0.343430   0.000105
     7  N    0.057100   0.106499
     8  C    0.025929  -0.135183
     9  C    0.222378  -0.638090
    10  N    0.071564   0.068685
    11  C   -0.139327   0.052572
    12  C    0.095463  -0.676329
    13  C   -0.468749   0.592996
    14  O   -0.319098   0.016263
    15  C    0.701237  -1.322981
    16  O   -0.142389   0.064566
    17  C    0.343148  -0.600025
    18  H   -0.132786   0.277914
    19  H   -0.054382   0.174051
    20  H   -0.004923   0.136759
    21  H    0.219149   0.036985
    22  H    0.155937   0.032476
    23  H   -0.019832   0.175540
    24  H   -0.306987   0.488434
    25  H   -0.104536   0.291945
    26  H   -0.089274   0.278306
    27  H   -0.511753   0.724186
    28  H   -0.405108   0.599450
    29  H    0.108821   0.117947
    30  H   -0.151594   0.328383
    31  H    0.168966   0.060728
    32  H    0.173295   0.045037
    33  H   -0.191752   0.367188
    34  H   -0.179858   0.389013
    35  H    0.148827   0.034162
    36  H   -0.030504   0.155427
    37  H   -0.027482   0.178015
    38  H   -0.243179   0.409561
 Sum of Mulliken charges =  -1.00000   1.00000

 Dipole moment (field-independent basis, Debye):
    X=             -1.6799    Y=              0.7240    Z=             -1.8510  Tot=              2.6024
 Quadrupole moment (field-independent basis, Debye-Ang):
   XX=           -198.2197   YY=           -150.6701   ZZ=           -143.1337
   XY=             -0.4197   XZ=             -4.2147   YZ=              4.3667

 Summary of Natural Population Analysis:

                                       Natural Population
                Natural  -----------------------------------------------
    Atom  No    Charge         Core      Valence    Rydberg      Total
 -----------------------------------------------------------------------
      C    1   -0.18178      0.99966     2.17357    0.00855     3.18178
      N    2   -0.34486      0.99976     2.83331    0.01179     3.84486
      C    3   -0.08516      0.99963     2.07153    0.01400     3.08516
      C    4   -0.24745      0.99959     2.24029    0.00758     3.24745
      C    5    0.35319      0.99964     1.62563    0.02155     2.64681
      O    6   -0.33725      0.99988     3.33192    0.00545     4.33725
      N    7   -0.25734      0.99964     2.74655    0.01114     3.75734
      C    8   -0.08882      0.99960     2.07943    0.00980     3.08882
      C    9   -0.09366      0.99960     2.08247    0.01159     3.09366
      N   10   -0.25751      0.99965     2.74643    0.01143     3.75751
      C   11   -0.09361      0.99959     2.08329    0.01072     3.09361
      C   12   -0.09224      0.99960     2.08338    0.00926     3.09224
      C   13    0.33357      0.99964     1.64463    0.02216     2.66643
      O   14   -0.32164      0.99988     3.31586    0.00590     4.32164
      C   15   -0.05150      0.99955     2.03850    0.01345     3.05150
      O   16   -0.29712      0.99989     3.28685    0.01038     4.29712
      C   17   -0.09852      0.99961     2.09044    0.00847     3.09852
      H   18    0.08920      0.00000     0.40973    0.00108     0.41080
      H   19    0.08023      0.00000     0.41813    0.00164     0.41977
      H   20    0.09271      0.00000     0.40642    0.00087     0.40729
      H   21    0.18463      0.00000     0.31273    0.00264     0.31537
      H   22    0.09728      0.00000     0.40154    0.00119     0.40272
      H   23    0.09081      0.00000     0.40822    0.00097     0.40919
      H   24    0.11133      0.00000     0.38727    0.00140     0.38867
      H   25    0.11237      0.00000     0.38504    0.00259     0.38763
      H   26    0.09651      0.00000     0.40211    0.00138     0.40349
      H   27    0.11110      0.00000     0.38685    0.00205     0.38890
      H   28    0.09811      0.00000     0.39990    0.00199     0.40189
      H   29    0.11920      0.00000     0.37958    0.00123     0.38080
      H   30    0.09822      0.00000     0.40017    0.00161     0.40178
      H   31    0.11626      0.00000     0.38195    0.00179     0.38374
      H   32    0.12072      0.00000     0.37802    0.00126     0.37928
      H   33    0.09281      0.00000     0.40584    0.00135     0.40719
      H   34    0.10200      0.00000     0.39623    0.00177     0.39800
      H   35    0.09373      0.00000     0.40496    0.00132     0.40627
      H   36    0.07861      0.00000     0.41983    0.00156     0.42139
      H   37    0.08354      0.00000     0.41459    0.00187     0.41646
      H   38    0.09232      0.00000     0.40611    0.00156     0.40768
 =======================================================================
   * Total *    0.00000     16.99441    48.77929    0.22630    66.00000

 Normal termination of Gaussian 16 at Fri Dec 11 14:11:22 2020.
