 Gaussian 16, Revision A.03,

 -----------------------------------------------------------
 # opt freq B3LYP/6-31G(d) empiricaldispersion=gd3bj scf=xqc
 -----------------------------------------------------------

 -------------------------------
 CID_130559435_JID_3444_neutraal
 -------------------------------
 Symbolic Z-matrix:
 Charge =  0 Multiplicity = 1

 SCF Done:  E(RB3LYP) =  -587.620017917     A.U. after   14 cycles
 SCF Done:  E(RB3LYP) =  -587.625604215     A.U. after   12 cycles
 SCF Done:  E(RB3LYP) =  -587.623040561     A.U. after   13 cycles
 SCF Done:  E(RB3LYP) =  -587.626515720     A.U. after   13 cycles
 SCF Done:  E(RB3LYP) =  -587.627846405     A.U. after   13 cycles
 SCF Done:  E(RB3LYP) =  -587.628540903     A.U. after   12 cycles
 SCF Done:  E(RB3LYP) =  -587.628851798     A.U. after   11 cycles
 SCF Done:  E(RB3LYP) =  -587.629079987     A.U. after   11 cycles
 SCF Done:  E(RB3LYP) =  -587.629327698     A.U. after   12 cycles
 SCF Done:  E(RB3LYP) =  -587.629493881     A.U. after   12 cycles
 SCF Done:  E(RB3LYP) =  -587.629751862     A.U. after    9 cycles
 SCF Done:  E(RB3LYP) =  -587.629756225     A.U. after   10 cycles
 SCF Done:  E(RB3LYP) =  -587.629757005     A.U. after    8 cycles
 SCF Done:  E(RB3LYP) =  -587.629757144     A.U. after    8 cycles
 SCF Done:  E(RB3LYP) =  -587.629757196     A.U. after    8 cycles
 SCF Done:  E(RB3LYP) =  -587.629757247     A.U. after    7 cycles
 Optimization completed.
    -- Stationary point found.

 1\1\GINC-NODE318\FOpt\RB3LYP\6-31G(d)\C8H15N5\VSC10255\09-Dec-2020\0\\
 # opt freq B3LYP/6-31G(d) empiricaldispersion=gd3bj scf=xqc\\CID_13055
 9435_JID_3444_neutraal\\0,1\C,1.1016479845,-0.0806383779,0.041368633\C
 ,0.4059944884,-0.9441919527,-1.0078104118\C,1.0540966749,-2.3415202967
 ,-1.220257993\N,-0.0910296624,-2.9613253369,-0.5229374485\C,-0.8504074
 963,-1.702327704,-0.4899636667\C,-0.6854087015,-4.207991978,-0.9429378
 396\C,-1.4654250307,-4.216369958,-2.2750110079\N,-0.6180659203,-3.9653
 110401,-3.4284506737\C,-0.523723028,-2.8651409577,-4.2085941696\N,0.47

 Normal termination of Gaussian 16 at Wed Dec  9 23:19:55 2020.

 --------------------------------------------------------------------
 #N Geom=AllCheck Guess=TCheck SCRF=Check GenChk RB3LYP/6-31G(d) Freq
 --------------------------------------------------------------------

 Structure from the checkpoint file:  "JID_3444.chk"
 -------------------------------
 CID_130559435_JID_3444_neutraal
 -------------------------------
 Charge =  0 Multiplicity = 1

 SCF Done:  E(RB3LYP) =  -587.629757247     A.U. after    1 cycles

  Exact polarizability: 113.488   2.342 113.681 -11.333  -2.878  96.555
 Approx polarizability: 145.090   6.194 177.665 -23.380  -0.123 156.375

                      1                      2                      3
                      A                      A                      A
 Frequencies --     40.5513                49.6962                78.2260
 Red. masses --      4.5957                 3.3723                 4.2521
 Frc consts  --      0.0045                 0.0049                 0.0153
 IR Inten    --      3.0640                 1.8457                 1.4454

                      4                      5                      6
                      A                      A                      A
 Frequencies --     88.1728               167.4849               193.5241
 Red. masses --      4.9290                 3.4041                 4.1238
 Frc consts  --      0.0226                 0.0563                 0.0910
 IR Inten    --      0.2060                 0.6474                 0.4881

                      7                      8                      9
                      A                      A                      A
 Frequencies --    227.6056               262.8613               287.3301
 Red. masses --      1.1686                 1.4143                 2.1208
 Frc consts  --      0.0357                 0.0576                 0.1032
 IR Inten    --     29.8624                 0.4265                 1.7337

                     10                     11                     12
                      A                      A                      A
 Frequencies --    306.4371               354.3764               376.8026
 Red. masses --      2.1215                 2.6084                 2.0946
 Frc consts  --      0.1174                 0.1930                 0.1752
 IR Inten    --      1.9288                 2.5239                 2.6634

                     13                     14                     15
                      A                      A                      A
 Frequencies --    383.6579               443.4363               467.7052
 Red. masses --      1.9740                 2.1535                 2.2694
 Frc consts  --      0.1712                 0.2495                 0.2925
 IR Inten    --      4.3560                 1.1583                 5.7976

                     16                     17                     18
                      A                      A                      A
 Frequencies --    513.0013               592.3085               659.1786
 Red. masses --      2.7752                 3.3486                 3.7262
 Frc consts  --      0.4303                 0.6922                 0.9539
 IR Inten    --     20.6375                 0.9949                17.9617

                     19                     20                     21
                      A                      A                      A
 Frequencies --    677.4741               696.6429               747.9653
 Red. masses --      3.1161                 3.7694                 2.9381
 Frc consts  --      0.8426                 1.0778                 0.9685
 IR Inten    --     10.3065                16.9449                 4.1264

                     22                     23                     24
                      A                      A                      A
 Frequencies --    822.7351               888.8721               892.9303
 Red. masses --      1.5322                 1.4216                 2.7103
 Frc consts  --      0.6110                 0.6618                 1.2732
 IR Inten    --     21.2096                 3.8059                 2.6883

                     25                     26                     27
                      A                      A                      A
 Frequencies --    898.2151               912.4643               927.1884
 Red. masses --      1.7892                 1.6152                 1.9120
 Frc consts  --      0.8505                 0.7924                 0.9685
 IR Inten    --     46.2778                69.5625                13.8943

                     28                     29                     30
                      A                      A                      A
 Frequencies --    940.8862               961.8655               977.5526
 Red. masses --      2.4037                 2.1803                 3.4997
 Frc consts  --      1.2537                 1.1885                 1.9704
 IR Inten    --     11.0155                 5.5019                 8.5295

                     31                     32                     33
                      A                      A                      A
 Frequencies --    978.4928               989.6813              1017.3549
 Red. masses --      1.8734                 1.6482                 3.2826
 Frc consts  --      1.0568                 0.9511                 2.0017
 IR Inten    --      4.4074                 1.1210                12.9022

                     34                     35                     36
                      A                      A                      A
 Frequencies --   1044.5983              1110.5284              1125.0304
 Red. masses --      3.5455                 1.4650                 2.3494
 Frc consts  --      2.2795                 1.0645                 1.7520
 IR Inten    --     32.1447                 0.8574                 4.1411

                     37                     38                     39
                      A                      A                      A
 Frequencies --   1154.9163              1162.0327              1176.3613
 Red. masses --      1.2689                 1.2319                 1.9114
 Frc consts  --      0.9972                 0.9801                 1.5584
 IR Inten    --      4.9619                 2.7720                26.6398

                     40                     41                     42
                      A                      A                      A
 Frequencies --   1206.8771              1228.2527              1248.3423
 Red. masses --      2.1345                 1.7069                 1.8859
 Frc consts  --      1.8318                 1.5172                 1.7315
 IR Inten    --      0.1252                10.2741                 4.5654

                     43                     44                     45
                      A                      A                      A
 Frequencies --   1283.6099              1294.3173              1310.1719
 Red. masses --      2.3279                 1.3620                 3.8267
 Frc consts  --      2.2599                 1.3444                 3.8702
 IR Inten    --     24.0911                 7.0640                66.2786

                     46                     47                     48
                      A                      A                      A
 Frequencies --   1315.2541              1330.4837              1344.1319
 Red. masses --      3.0310                 1.6583                 2.3351
 Frc consts  --      3.0893                 1.7296                 2.4856
 IR Inten    --     34.0415                 7.0446                 0.8818

                     49                     50                     51
                      A                      A                      A
 Frequencies --   1366.5712              1378.6207              1393.2365
 Red. masses --      1.5659                 1.7918                 2.7507
 Frc consts  --      1.7230                 2.0064                 3.1459
 IR Inten    --      0.7921                 1.7370                16.3210

                     52                     53                     54
                      A                      A                      A
 Frequencies --   1409.0089              1414.9194              1436.1886
 Red. masses --      1.3972                 1.4392                 1.2641
 Frc consts  --      1.6343                 1.6977                 1.5362
 IR Inten    --     25.1210                17.0702                 4.6834

                     55                     56                     57
                      A                      A                      A
 Frequencies --   1481.6765              1497.6509              1507.6927
 Red. masses --      2.3434                 1.3456                 1.1220
 Frc consts  --      3.0311                 1.7783                 1.5027
 IR Inten    --     17.5394                 3.0688                 9.0074

                     58                     59                     60
                      A                      A                      A
 Frequencies --   1519.3602              1526.0413              1538.4348
 Red. masses --      1.0582                 1.0571                 1.0903
 Frc consts  --      1.4393                 1.4504                 1.5204
 IR Inten    --      0.9783                 3.3536                 5.2525

                     61                     62                     63
                      A                      A                      A
 Frequencies --   1556.9759              1559.2012              1689.1738
 Red. masses --      2.5530                 1.2679                 1.0962
 Frc consts  --      3.6464                 1.8161                 1.8429
 IR Inten    --     29.5657                20.1025                25.8514

                     64                     65                     66
                      A                      A                      A
 Frequencies --   3013.8574              3031.7706              3033.1940
 Red. masses --      1.0543                 1.0634                 1.0421
 Frc consts  --      5.6422                 5.7591                 5.6486
 IR Inten    --     62.5867                57.3286                33.9697

                     67                     68                     69
                      A                      A                      A
 Frequencies --   3040.3759              3053.4076              3081.6745
 Red. masses --      1.0656                 1.1087                 1.0613
 Frc consts  --      5.8034                 6.0902                 5.9385
 IR Inten    --     39.3183                69.4982                34.2511

                     70                     71                     72
                      A                      A                      A
 Frequencies --   3098.0151              3103.2542              3110.6089
 Red. masses --      1.1020                 1.0979                 1.0976
 Frc consts  --      6.2316                 6.2294                 6.2570
 IR Inten    --     31.8423                 9.9800                 9.9192

                     73                     74                     75
                      A                      A                      A
 Frequencies --   3114.2599              3134.7084              3273.1312
 Red. masses --      1.1016                 1.1033                 1.0965
 Frc consts  --      6.2948                 6.3876                 6.9213
 IR Inten    --     35.9846                17.6979                 8.5781

                     76                     77                     78
                      A                      A                      A
 Frequencies --   3298.2761              3444.0875              3530.9428
 Red. masses --      1.0988                 1.0494                 1.0922
 Frc consts  --      7.0427                 7.3338                 8.0229
 IR Inten    --      0.9259                 2.1890                 0.2371

 - Thermochemistry -
 -------------------
 Temperature   298.150 Kelvin.  Pressure   1.00000 Atm.
 Atom     1 has atomic number  6 and mass  12.00000

 Molecular mass:   181.13275 amu.
 Principal axes and moments of inertia in atomic units:
                           1         2         3
     Eigenvalues --  1316.378382996.068043636.73387
           X            0.99968  -0.02512   0.00176
           Y            0.02515   0.99943  -0.02248
           Z           -0.00119   0.02251   0.99975
 This molecule is an asymmetric top.
 Rotational symmetry number  1.
 Warning -- assumption of classical behavior for rotation
           may cause significant error
 Rotational temperatures (Kelvin)      0.06580     0.02891     0.02382
 Rotational constants (GHZ):           1.37099     0.60237     0.49625
 Zero-point vibrational energy     638769.4 (Joules/Mol)
                                  152.66955 (Kcal/Mol)
 Warning -- explicit consideration of  17 degrees of freedom as
           vibrations may cause significant error
 Vibrational temperatures:     58.34    71.50   112.55   126.86   240.97
          (Kelvin)            278.44   327.47   378.20   413.40   440.89
                              509.87   542.13   552.00   638.01   672.92
                              738.09   852.20   948.41   974.73  1002.31
                             1076.16  1183.73  1278.89  1284.73  1292.33
                             1312.83  1334.02  1353.73  1383.91  1406.48
                             1407.83  1423.93  1463.75  1502.94  1597.80
                             1618.67  1661.67  1671.91  1692.52  1736.43
                             1767.18  1796.09  1846.83  1862.23  1885.05
                             1892.36  1914.27  1933.91  1966.19  1983.53
                             2004.56  2027.25  2035.75  2066.36  2131.80
                             2154.79  2169.23  2186.02  2195.63  2213.46
                             2240.14  2243.34  2430.34  4336.27  4362.04
                             4364.09  4374.42  4393.17  4433.84  4457.35
                             4464.89  4475.47  4480.73  4510.15  4709.31
                             4745.48  4955.27  5080.24

 Zero-point correction=                           0.243294 (Hartree/Particle)
 Thermal correction to Energy=                    0.255653
 Thermal correction to Enthalpy=                  0.256597
 Thermal correction to Gibbs Free Energy=         0.203990
 Sum of electronic and zero-point Energies=           -587.386463
 Sum of electronic and thermal Energies=              -587.374104
 Sum of electronic and thermal Enthalpies=            -587.373160
 Sum of electronic and thermal Free Energies=         -587.425767

                     E (Thermal)             CV                S
                      KCal/Mol        Cal/Mol-Kelvin    Cal/Mol-Kelvin
 Total                  160.425             47.091            110.722
 Electronic               0.000              0.000              0.000
 Translational            0.889              2.981             41.489
 Rotational               0.889              2.981             31.040
 Vibrational            158.647             41.129             38.193
 Vibration     1          0.594              1.981              5.232
 Vibration     2          0.595              1.978              4.829
 Vibration     3          0.600              1.964              3.935
 Vibration     4          0.601              1.957              3.700
 Vibration     5          0.624              1.882              2.464
 Vibration     6          0.635              1.849              2.194
 Vibration     7          0.651              1.799              1.898
 Vibration     8          0.670              1.741              1.643
 Vibration     9          0.685              1.697              1.490
 Vibration    10          0.697              1.661              1.381
 Vibration    11          0.730              1.566              1.147
 Vibration    12          0.747              1.520              1.052
 Vibration    13          0.753              1.505              1.025
 Vibration    14          0.803              1.375              0.816
 Vibration    15          0.825              1.322              0.744
 Vibration    16          0.868              1.221              0.626
 Vibration    17          0.950              1.048              0.463

 Optimization completed.
    -- Stationary point found.

 1\1\GINC-NODE318\Freq\RB3LYP\6-31G(d)\C8H15N5\VSC10255\09-Dec-2020\0\\
 #N Geom=AllCheck Guess=TCheck SCRF=Check GenChk RB3LYP/6-31G(d) Freq\\
 CID_130559435_JID_3444_neutraal\\0,1\C,1.1016479845,-0.0806383779,0.04
 1368633\C,0.4059944884,-0.9441919527,-1.0078104118\C,1.0540966749,-2.3
 415202967,-1.220257993\N,-0.0910296624,-2.9613253369,-0.5229374485\C,-
 0.8504074963,-1.702327704,-0.4899636667\C,-0.6854087015,-4.207991978,-
 0.9429378396\C,-1.4654250307,-4.216369958,-2.2750110079\N,-0.618065920
 3,-3.9653110401,-3.4284506737\C,-0.523723028,-2.8651409577,-4.20859416

 Normal termination of Gaussian 16 at Wed Dec  9 23:27:15 2020.

 ----------------------------------------------------------------------
 # B3LYP/6-311++G(d,p) empiricaldispersion=gd3bj scf=xqc pop=npa geom=c
 heck
 ----------------------------------------------------------------------

 ---------------------------------------
 CID_130559435_JID_3444_Energie_neutraal
 ---------------------------------------
 Structure from the checkpoint file:  "JID_3444.chk"
 Charge =  0 Multiplicity = 1

 SCF Done:  E(RB3LYP) =  -587.795557348     A.U. after   14 cycles
 Normal termination of Gaussian 16 at Wed Dec  9 23:29:52 2020.

 ----------------------------------------------------------------------
 # B3LYP/6-311++G(d,p) empiricaldispersion=gd3bj scf=xqc pop=npa geom=c
 heck
 ----------------------------------------------------------------------

 -------------------------------------
 CID_130559435_JID_3444_Energie_kation
 -------------------------------------
 Structure from the checkpoint file:  "JID_3444.chk"
 Charge =  1 Multiplicity = 2

 SCF Done:  E(UB3LYP) =  -587.506042921     A.U. after   23 cycles
 Normal termination of Gaussian 16 at Wed Dec  9 23:35:32 2020.
 Gaussian 16:  ES64L-G16RevA.03 25-Dec-2016

 ------------------------------------
 CID_130559435_JID_3444_Energie_anion
 ------------------------------------
 Structure from the checkpoint file:  "JID_3444.chk"
 Charge = -1 Multiplicity = 2

                         Standard orientation:
 ---------------------------------------------------------------------
 Center     Atomic      Atomic             Coordinates (Angstroms)
 Number     Number       Type             X           Y           Z
 ---------------------------------------------------------------------
      1          6           0        3.486679   -0.686769    0.570728
      2          6           0        2.079021   -0.500379    0.010198
      3          6           0        1.033241   -0.012919    1.052515
      4          7           0        1.038184    1.317950    0.411819
      5          6           0        1.850100    0.853033   -0.722845
      6          6           0       -0.156856    2.107277    0.230970
      7          6           0       -1.203395    1.599683   -0.783929
      8          7           0       -1.815440    0.343559   -0.385149
      9          6           0       -1.640830   -0.900258   -0.885478
     10          7           0       -2.287606   -1.789403   -0.145149
     11          6           0       -2.854434   -1.011636    0.821243
     12          7           0       -2.596835    0.286524    0.728002
     13          7           0        1.579115   -1.633135   -0.774562
     14          1           0        3.805544    0.193748    1.139819
     15          1           0        4.210947   -0.846744   -0.238600
     16          1           0        3.526251   -1.556504    1.238426
     17          1           0        0.094517   -0.572454    1.000712
     18          1           0        1.373304    0.010404    2.096394
     19          1           0        2.736161    1.472737   -0.917353
     20          1           0        1.308037    0.703044   -1.667087
     21          1           0       -0.648761    2.210014    1.204071
     22          1           0        0.136092    3.116132   -0.092689
     23          1           0       -1.996199    2.346947   -0.890742
     24          1           0       -0.755885    1.439427   -1.768470
     25          1           0       -1.001091   -1.110511   -1.729425
     26          1           0       -3.478140   -1.409946    1.610065
     27          1           0        1.408152   -2.427079   -0.157063
     28          1           0        2.297982   -1.935866   -1.433195
 ---------------------------------------------------------------------

 SCF Done:  E(UB3LYP) =  -587.783513227     A.U. after   30 cycles

 The electronic state is 2-A.
 Alpha  occ. eigenvalues --  -14.30263 -14.24309 -14.20995 -14.20060 -14.19114
 Alpha  occ. eigenvalues --  -10.13786 -10.12555 -10.12004 -10.10697 -10.10272
 Alpha  occ. eigenvalues --  -10.08829 -10.08414 -10.05600  -0.98460  -0.84820
 Alpha  occ. eigenvalues --   -0.81052  -0.77724  -0.74752  -0.67705  -0.62871
 Alpha  occ. eigenvalues --   -0.58908  -0.58118  -0.53345  -0.51807  -0.48661
 Alpha  occ. eigenvalues --   -0.44159  -0.43413  -0.40889  -0.39181  -0.38882
 Alpha  occ. eigenvalues --   -0.36851  -0.35728  -0.33517  -0.33381  -0.32193
 Alpha  occ. eigenvalues --   -0.31447  -0.30735  -0.29767  -0.28373  -0.27603
 Alpha  occ. eigenvalues --   -0.24929  -0.23937  -0.22675  -0.20929  -0.19748
 Alpha  occ. eigenvalues --   -0.18847  -0.17792  -0.14621  -0.11040   0.04382
 Alpha virt. eigenvalues --    0.06472   0.07921   0.08093   0.08877   0.09314
 Alpha virt. eigenvalues --    0.09565   0.09675   0.10328   0.11118   0.11598
 Alpha virt. eigenvalues --    0.12328   0.12792   0.13107   0.13394   0.13915

  Beta  occ. eigenvalues --  -14.30257 -14.24295 -14.20996 -14.20058 -14.19074
  Beta  occ. eigenvalues --  -10.13763 -10.12553 -10.11976 -10.10697 -10.10258
  Beta  occ. eigenvalues --  -10.08816 -10.08381 -10.05555  -0.98443  -0.84803
  Beta  occ. eigenvalues --   -0.81036  -0.77662  -0.74723  -0.67666  -0.62817
  Beta  occ. eigenvalues --   -0.58852  -0.58074  -0.53330  -0.51761  -0.48612
  Beta  occ. eigenvalues --   -0.44107  -0.43343  -0.40852  -0.39143  -0.38838
  Beta  occ. eigenvalues --   -0.36811  -0.35688  -0.33474  -0.33361  -0.32159
  Beta  occ. eigenvalues --   -0.31409  -0.30698  -0.29727  -0.28335  -0.27567
  Beta  occ. eigenvalues --   -0.24902  -0.23913  -0.22641  -0.20894  -0.19716
  Beta  occ. eigenvalues --   -0.18838  -0.17738  -0.14573  -0.11020
  Beta virt. eigenvalues --    0.06858   0.07554   0.08214   0.08653   0.09416
  Beta virt. eigenvalues --    0.09861   0.10115   0.10279   0.10755   0.11433
  Beta virt. eigenvalues --    0.12091   0.12712   0.13061   0.13402   0.13780

 Mulliken charges and spin densities:
               1          2
     1  C    2.892176  -3.418264
     2  C   -1.591663   1.303154
     3  C   -0.109382  -0.180911
     4  N   -0.058046   0.088768
     5  C    0.452501  -0.666354
     6  C   -0.369084   0.025309
     7  C    1.136751  -1.313483
     8  N    0.148176   0.106447
     9  C   -0.160549  -0.248706
    10  N   -0.123813   0.037878
    11  C    0.074929  -0.126017
    12  N   -0.320639   0.077038
    13  N   -0.494188   0.296800
    14  H   -0.105809   0.269317
    15  H   -0.319339   0.461617
    16  H   -0.335431   0.472383
    17  H    0.015192   0.050206
    18  H   -0.130707   0.326583
    19  H   -0.638791   0.827166
    20  H    0.063885   0.045488
    21  H    0.176333  -0.009042
    22  H   -0.309512   0.492293
    23  H   -0.242893   0.440631
    24  H   -0.389553   0.547689
    25  H   -0.185840   0.404974
    26  H    0.098725   0.045641
    27  H    0.026106   0.199910
    28  H   -0.199534   0.443482
 Sum of Mulliken charges =  -1.00000   1.00000

 Dipole moment (field-independent basis, Debye):
    X=             -4.7947    Y=              0.0592    Z=              3.0417  Tot=              5.6784
 Quadrupole moment (field-independent basis, Debye-Ang):
   XX=           -142.3831   YY=           -127.9807   ZZ=           -114.2413
   XY=              4.7122   XZ=              1.0027   YZ=              2.1497

 Summary of Natural Population Analysis:

                                       Natural Population
                Natural  -----------------------------------------------
    Atom  No    Charge         Core      Valence    Rydberg      Total
 -----------------------------------------------------------------------
      C    1   -0.28981      0.99961     2.28351    0.00669     3.28981
      C    2    0.04260      0.99956     1.94333    0.01451     2.95740
      C    3   -0.07393      0.99958     2.06407    0.01027     3.07393
      N    4   -0.28306      0.99973     2.77010    0.01323     3.78306
      C    5   -0.07464      0.99958     2.06339    0.01167     3.07464
      C    6   -0.08486      0.99960     2.07326    0.01200     3.08486
      C    7   -0.09405      0.99960     2.08250    0.01195     3.09405
      N    8   -0.11755      0.99966     2.60400    0.01390     3.61755
      C    9    0.11642      0.99962     1.86730    0.01666     2.88358
      N   10   -0.26868      0.99973     2.75912    0.00982     3.76868
      C   11    0.08305      0.99970     1.89848    0.01876     2.91695
      N   12   -0.16273      0.99973     2.65298    0.01002     3.66273
      N   13   -0.42513      0.99975     2.91357    0.01180     3.92513
      H   14    0.10184      0.00000     0.39674    0.00142     0.39816
      H   15    0.10143      0.00000     0.39667    0.00190     0.39857
      H   16    0.09962      0.00000     0.39868    0.00170     0.40038
      H   17    0.09124      0.00000     0.40598    0.00279     0.40876
      H   18    0.08847      0.00000     0.41004    0.00149     0.41153
      H   19    0.09124      0.00000     0.40680    0.00196     0.40876
      H   20    0.08940      0.00000     0.40785    0.00275     0.41060
      H   21    0.10160      0.00000     0.39713    0.00128     0.39840
      H   22    0.09906      0.00000     0.39961    0.00134     0.40094
      H   23    0.10519      0.00000     0.39314    0.00167     0.39481
      H   24    0.10602      0.00000     0.39178    0.00220     0.39398
      H   25    0.11238      0.00000     0.38575    0.00187     0.38762
      H   26    0.09050      0.00000     0.40870    0.00080     0.40950
      H   27    0.17645      0.00000     0.32126    0.00229     0.32355
      H   28    0.17793      0.00000     0.31896    0.00311     0.32207
 =======================================================================
   * Total *   -0.00000     12.99547    35.81468    0.18986    49.00000

 Normal termination of Gaussian 16 at Wed Dec  9 23:43:08 2020.
