 Gaussian 16, Revision A.03,

 -----------------------------------------------------------
 # opt freq B3LYP/6-31G(d) empiricaldispersion=gd3bj scf=xqc
 -----------------------------------------------------------

 -------------------------------
 CID_150743852_JID_1277_neutraal
 -------------------------------
 Symbolic Z-matrix:
 Charge =  0 Multiplicity = 1

 SCF Done:  E(RB3LYP) =  -586.550372318     A.U. after   16 cycles
 SCF Done:  E(RB3LYP) =  -586.554705452     A.U. after   16 cycles
 SCF Done:  E(RB3LYP) =  -586.555517521     A.U. after   14 cycles
 SCF Done:  E(RB3LYP) =  -586.556066763     A.U. after   14 cycles
 SCF Done:  E(RB3LYP) =  -586.556950725     A.U. after   17 cycles
 SCF Done:  E(RB3LYP) =  -586.557540735     A.U. after   14 cycles
 SCF Done:  E(RB3LYP) =  -586.558733153     A.U. after   15 cycles
 SCF Done:  E(RB3LYP) =  -586.559179441     A.U. after   16 cycles
 SCF Done:  E(RB3LYP) =  -586.559275043     A.U. after   14 cycles
 SCF Done:  E(RB3LYP) =  -586.559436501     A.U. after   14 cycles
 SCF Done:  E(RB3LYP) =  -586.559486741     A.U. after   12 cycles
 SCF Done:  E(RB3LYP) =  -586.559498663     A.U. after   12 cycles
 SCF Done:  E(RB3LYP) =  -586.559500208     A.U. after   11 cycles
 SCF Done:  E(RB3LYP) =  -586.559501024     A.U. after   10 cycles
 SCF Done:  E(RB3LYP) =  -586.559501335     A.U. after    9 cycles
 SCF Done:  E(RB3LYP) =  -586.559501374     A.U. after    8 cycles
 Optimization completed.
    -- Stationary point found.

 1\1\GINC-NODE104\FOpt\RB3LYP\6-31G(d)\C1H2N10\VSC10255\08-Dec-2020\0\\
 # opt freq B3LYP/6-31G(d) empiricaldispersion=gd3bj scf=xqc\\CID_15074
 3852_JID_1277_neutraal\\0,1\C,1.0095903743,-0.0116899613,-0.0551773001
 \N,0.2236644027,-1.0539367337,-0.7244233668\N,0.941334369,-2.036625926
 9,-0.9673876694\N,0.1683114878,-3.0236397633,-1.6408608439\N,0.8839389
 767,-4.0269090978,-1.8831466835\N,1.3899885184,-5.0004899001,-2.174623
 9841\N,0.2556870964,0.4187870138,1.1272417737\N,0.9946661505,0.4218586
 364,2.1240585753\N,0.2527969348,0.8686852627,3.2533849516\N,0.99013275

 Normal termination of Gaussian 16 at Tue Dec  8 19:35:05 2020.

 --------------------------------------------------------------------
 #N Geom=AllCheck Guess=TCheck SCRF=Check GenChk RB3LYP/6-31G(d) Freq
 --------------------------------------------------------------------

 Structure from the checkpoint file:  "JID_1277.chk"
 -------------------------------
 CID_150743852_JID_1277_neutraal
 -------------------------------
 Charge =  0 Multiplicity = 1

 SCF Done:  E(RB3LYP) =  -586.559501374     A.U. after    1 cycles

  Exact polarizability: 167.472   0.001  74.179   0.002  -7.122  45.472
 Approx polarizability: 250.412   0.002 158.678   0.007 -34.438  79.558

                      1                      2                      3
                      A                      A                      A
 Frequencies --     20.8891                54.3525               114.7090
 Red. masses --     10.2745                12.6786                10.4337
 Frc consts  --      0.0026                 0.0221                 0.0809
 IR Inten    --      0.0374                 0.1234                 1.4777

                      4                      5                      6
                      A                      A                      A
 Frequencies --    142.5090               154.9458               180.5986
 Red. masses --     12.1849                 6.0268                12.5593
 Frc consts  --      0.1458                 0.0853                 0.2413
 IR Inten    --      1.5327                 3.8042                 0.0753

                      7                      8                      9
                      A                      A                      A
 Frequencies --    230.0301               281.8098               345.6724
 Red. masses --     12.6729                11.6289                10.7123
 Frc consts  --      0.3951                 0.5441                 0.7542
 IR Inten    --      2.5216                 0.0553                 0.7844

                     10                     11                     12
                      A                      A                      A
 Frequencies --    349.1745               392.4239               551.2848
 Red. masses --     10.6347                 3.1675                 8.7973
 Frc consts  --      0.7639                 0.2874                 1.5753
 IR Inten    --     27.6405                 9.2218                97.8338

                     13                     14                     15
                      A                      A                      A
 Frequencies --    556.3528               556.6987               618.5801
 Red. masses --     13.9744                13.1231                 7.7330
 Frc consts  --      2.5485                 2.3962                 1.7434
 IR Inten    --     11.2871                28.2457                 6.2904

                     16                     17                     18
                      A                      A                      A
 Frequencies --    683.1849               688.3986               934.7684
 Red. masses --      9.5684                 9.6762                10.4117
 Frc consts  --      2.6313                 2.7017                 5.3602
 IR Inten    --     16.3749                10.8315                28.7596

                     19                     20                     21
                      A                      A                      A
 Frequencies --    974.9644              1013.9193              1040.2682
 Red. masses --      8.1499                 2.3304                 7.3402
 Frc consts  --      4.5644                 1.4115                 4.6800
 IR Inten    --    385.7157                 7.2867                77.0079

                     22                     23                     24
                      A                      A                      A
 Frequencies --   1154.5771              1209.5197              1238.1576
 Red. masses --      4.5639                 3.3176                10.3353
 Frc consts  --      3.5846                 2.8596                 9.3353
 IR Inten    --     56.1890               417.8300                89.8194

                     25                     26                     27
                      A                      A                      A
 Frequencies --   1245.9624              1382.1407              1492.4607
 Red. masses --      1.4194                 1.3095                 1.0917
 Frc consts  --      1.2983                 1.4739                 1.4327
 IR Inten    --     24.8971                32.6101                 5.1739

                     28                     29                     30
                      A                      A                      A
 Frequencies --   1621.0234              1638.1017              2247.2610
 Red. masses --     10.7686                12.4126                13.9870
 Frc consts  --     16.6720                19.6244                41.6180
 IR Inten    --    244.7479                41.4686               968.5466

                     31                     32                     33
                      A                      A                      A
 Frequencies --   2255.3169              3038.0503              3099.0191
 Red. masses --     13.9996                 1.0534                 1.1102
 Frc consts  --     41.9547                 5.7283                 6.2821
 IR Inten    --    392.5982                11.1954                 7.8309

 - Thermochemistry -
 -------------------
 Temperature   298.150 Kelvin.  Pressure   1.00000 Atm.
 Atom     1 has atomic number  6 and mass  12.00000

 Molecular mass:   154.04639 amu.
 Principal axes and moments of inertia in atomic units:
                           1         2         3
     Eigenvalues --   520.991205396.219615761.23137
           X            1.00000   0.00000   0.00000
           Y           -0.00000   0.99960   0.02837
           Z           -0.00000  -0.02837   0.99960
 This molecule is an asymmetric top.
 Rotational symmetry number  1.
 Warning -- assumption of classical behavior for rotation
           may cause significant error
 Rotational temperatures (Kelvin)      0.16625     0.01605     0.01503
 Rotational constants (GHZ):           3.46405     0.33445     0.31326
 Zero-point vibrational energy     188454.5 (Joules/Mol)
                                   45.04170 (Kcal/Mol)
 Warning -- explicit consideration of  15 degrees of freedom as
           vibrations may cause significant error
 Vibrational temperatures:     30.05    78.20   165.04   205.04   222.93
          (Kelvin)            259.84   330.96   405.46   497.35   502.38
                              564.61   793.18   800.47   800.97   890.00
                              982.95   990.45  1344.92  1402.76  1458.80
                             1496.71  1661.18  1740.23  1781.43  1792.66
                             1988.59  2147.32  2332.29  2356.86  3233.31
                             3244.90  4371.08  4458.80

 Zero-point correction=                           0.071779 (Hartree/Particle)
 Thermal correction to Energy=                    0.082113
 Thermal correction to Enthalpy=                  0.083057
 Thermal correction to Gibbs Free Energy=         0.033514
 Sum of electronic and zero-point Energies=           -586.487723
 Sum of electronic and thermal Energies=              -586.477389
 Sum of electronic and thermal Enthalpies=            -586.476445
 Sum of electronic and thermal Free Energies=         -586.525987

                     E (Thermal)             CV                S
                      KCal/Mol        Cal/Mol-Kelvin    Cal/Mol-Kelvin
 Total                   51.526             34.421            104.272
 Electronic               0.000              0.000              0.000
 Translational            0.889              2.981             41.006
 Rotational               0.889              2.981             31.161
 Vibrational             49.749             28.460             32.105
 Vibration     1          0.593              1.986              6.548
 Vibration     2          0.596              1.976              4.652
 Vibration     3          0.608              1.937              3.188
 Vibration     4          0.616              1.911              2.770
 Vibration     5          0.620              1.897              2.611
 Vibration     6          0.630              1.866              2.322
 Vibration     7          0.652              1.795              1.879
 Vibration     8          0.681              1.707              1.523
 Vibration     9          0.724              1.584              1.186
 Vibration    10          0.726              1.577              1.170
 Vibration    11          0.760              1.486              0.991
 Vibration    12          0.907              1.137              0.542
 Vibration    13          0.912              1.126              0.531
 Vibration    14          0.912              1.125              0.530
 Vibration    15          0.978              0.993              0.419

 Optimization completed.
    -- Stationary point found.

 1\1\GINC-NODE104\Freq\RB3LYP\6-31G(d)\C1H2N10\VSC10255\08-Dec-2020\0\\
 #N Geom=AllCheck Guess=TCheck SCRF=Check GenChk RB3LYP/6-31G(d) Freq\\
 CID_150743852_JID_1277_neutraal\\0,1\C,1.0095903743,-0.0116899613,-0.0
 551773001\N,0.2236644027,-1.0539367337,-0.7244233668\N,0.941334369,-2.
 0366259269,-0.9673876694\N,0.1683114878,-3.0236397633,-1.6408608439\N,
 0.8839389767,-4.0269090978,-1.8831466835\N,1.3899885184,-5.0004899001,
 -2.1746239841\N,0.2556870964,0.4187870138,1.1272417737\N,0.9946661505,
 0.4218586364,2.1240585753\N,0.2527969348,0.8686852627,3.2533849516\N,0

 Normal termination of Gaussian 16 at Tue Dec  8 19:36:39 2020.

 ----------------------------------------------------------------------
 # B3LYP/6-311++G(d,p) empiricaldispersion=gd3bj scf=xqc pop=npa geom=c
 heck
 ----------------------------------------------------------------------

 ---------------------------------------
 CID_150743852_JID_1277_Energie_neutraal
 ---------------------------------------
 Structure from the checkpoint file:  "JID_1277.chk"
 Charge =  0 Multiplicity = 1

 SCF Done:  E(RB3LYP) =  -586.725210627     A.U. after   15 cycles
 Normal termination of Gaussian 16 at Tue Dec  8 19:37:17 2020.

 ----------------------------------------------------------------------
 # B3LYP/6-311++G(d,p) empiricaldispersion=gd3bj scf=xqc pop=npa geom=c
 heck
 ----------------------------------------------------------------------

 -------------------------------------
 CID_150743852_JID_1277_Energie_kation
 -------------------------------------
 Structure from the checkpoint file:  "JID_1277.chk"
 Charge =  1 Multiplicity = 2

 SCF Done:  E(UB3LYP) =  -586.376594663     A.U. after   29 cycles
 Normal termination of Gaussian 16 at Tue Dec  8 19:39:10 2020.
 Gaussian 16:  ES64L-G16RevA.03 25-Dec-2016

 ------------------------------------
 CID_150743852_JID_1277_Energie_anion
 ------------------------------------
 Structure from the checkpoint file:  "JID_1277.chk"
 Charge = -1 Multiplicity = 2

                         Standard orientation:
 ---------------------------------------------------------------------
 Center     Atomic      Atomic             Coordinates (Angstroms)
 Number     Number       Type             X           Y           Z
 ---------------------------------------------------------------------
      1          6           0        0.000024    1.181128    0.615115
      2          7           0        1.183056    1.046690   -0.241746
      3          7           0        1.975109    0.229709    0.253184
      4          7           0        3.126899    0.134808   -0.577298
      5          7           0        3.931257   -0.697255   -0.089389
      6          7           0        4.758465   -1.411883    0.217105
      7          7           0       -1.183081    1.046798   -0.241631
      8          7           0       -1.975085    0.229707    0.253179
      9          7           0       -3.126977    0.134904   -0.577218
     10          7           0       -3.931235   -0.697292   -0.089366
     11          7           0       -4.758455   -1.411940    0.217027
     12          1           0        0.000118    2.212501    0.991149
     13          1           0        0.000055    0.471014    1.451230
 ---------------------------------------------------------------------

 SCF Done:  E(UB3LYP) =  -586.762767049     A.U. after   29 cycles

 The electronic state is 2-A.
 Alpha  occ. eigenvalues --  -14.35285 -14.35285 -14.26614 -14.26614 -14.25651
 Alpha  occ. eigenvalues --  -14.25651 -14.24654 -14.24654 -14.20106 -14.20106
 Alpha  occ. eigenvalues --  -10.09175  -1.02688  -1.02675  -0.93407  -0.92520
 Alpha  occ. eigenvalues --   -0.84309  -0.83004  -0.66202  -0.57360  -0.48935
 Alpha  occ. eigenvalues --   -0.40870  -0.40150  -0.39656  -0.39523  -0.39286
 Alpha  occ. eigenvalues --   -0.36593  -0.34845  -0.33885  -0.33152  -0.30976
 Alpha  occ. eigenvalues --   -0.28948  -0.27052  -0.25160  -0.21563  -0.19418
 Alpha  occ. eigenvalues --   -0.13830  -0.13699  -0.11805  -0.10899   0.02398
 Alpha virt. eigenvalues --    0.06306   0.06735   0.07282   0.10871   0.12954
 Alpha virt. eigenvalues --    0.13193   0.13516   0.14688   0.14989   0.16962
 Alpha virt. eigenvalues --    0.17162   0.18574   0.18796   0.19796   0.20272

  Beta  occ. eigenvalues --  -14.35077 -14.35077 -14.26368 -14.26368 -14.25767
  Beta  occ. eigenvalues --  -14.25767 -14.24261 -14.24261 -14.19714 -14.19713
  Beta  occ. eigenvalues --  -10.09214  -1.02321  -1.02308  -0.92827  -0.91986
  Beta  occ. eigenvalues --   -0.84021  -0.82669  -0.65677  -0.56649  -0.48596
  Beta  occ. eigenvalues --   -0.40449  -0.39716  -0.39249  -0.38840  -0.38497
  Beta  occ. eigenvalues --   -0.35902  -0.34179  -0.33316  -0.32416  -0.30216
  Beta  occ. eigenvalues --   -0.28326  -0.25523  -0.24006  -0.21279  -0.19113
  Beta  occ. eigenvalues --   -0.12978  -0.12892  -0.11381  -0.10412
  Beta virt. eigenvalues --    0.07350   0.07431   0.08572   0.10054   0.10978
  Beta virt. eigenvalues --    0.13153   0.14049   0.14386   0.15028   0.15107
  Beta virt. eigenvalues --    0.17025   0.17193   0.18604   0.18775   0.19859

 Mulliken charges and spin densities:
               1          2
     1  C   -0.446880  -0.047018
     2  N   -0.149378   0.176305
     3  N   -0.219657   0.171962
     4  N   -0.302723  -0.060804
     5  N    0.402996   0.055880
     6  N   -0.125751   0.153164
     7  N   -0.149263   0.176267
     8  N   -0.219735   0.171943
     9  N   -0.302817  -0.060784
    10  N    0.402958   0.055869
    11  N   -0.125615   0.153178
    12  H    0.121335   0.056180
    13  H    0.114530  -0.002141
 Sum of Mulliken charges =  -1.00000   1.00000

 Dipole moment (field-independent basis, Debye):
    X=             -0.0000    Y=              0.2628    Z=              1.4442  Tot=              1.4679
 Quadrupole moment (field-independent basis, Debye-Ang):
   XX=           -121.6351   YY=            -73.6306   ZZ=            -69.5785
   XY=              0.0005   XZ=             -0.0006   YZ=              5.9081

 Summary of Natural Population Analysis:

                                       Natural Population
                Natural  -----------------------------------------------
    Atom  No    Charge         Core      Valence    Rydberg      Total
 -----------------------------------------------------------------------
      C    1   -0.03057      0.99963     2.01294    0.01799     3.03057
      N    2   -0.05386      0.99972     2.53210    0.02205     3.55386
      N    3   -0.00178      0.99973     2.47846    0.02359     3.50178
      N    4   -0.13950      0.99972     2.62190    0.01788     3.63950
      N    5    0.13294      0.99971     2.34915    0.01819     3.36706
      N    6   -0.01202      0.99982     2.49890    0.01331     3.51202
      N    7   -0.05389      0.99972     2.53211    0.02205     3.55389
      N    8   -0.00177      0.99973     2.47845    0.02359     3.50177
      N    9   -0.13950      0.99972     2.62190    0.01788     3.63950
      N   10    0.13294      0.99971     2.34915    0.01819     3.36706
      N   11   -0.01202      0.99982     2.49889    0.01331     3.51202
      H   12    0.09582      0.00000     0.40198    0.00220     0.40418
      H   13    0.08320      0.00000     0.41285    0.00395     0.41680
 =======================================================================
   * Total *    0.00000     10.99702    27.78880    0.21418    39.00000

 Normal termination of Gaussian 16 at Tue Dec  8 19:40:59 2020.
