 Gaussian 16, Revision A.03,

 -----------------------------------------------------------
 # opt freq B3LYP/6-31G(d) empiricaldispersion=gd3bj scf=xqc
 -----------------------------------------------------------

 -------------------------------
 CID_105494636_JID_7934_neutraal
 -------------------------------
 Symbolic Z-matrix:
 Charge =  0 Multiplicity = 1

 SCF Done:  E(RB3LYP) =  -766.200233186     A.U. after   16 cycles
 SCF Done:  E(RB3LYP) =  -766.208684544     A.U. after   13 cycles
 SCF Done:  E(RB3LYP) =  -766.209867622     A.U. after   12 cycles
 SCF Done:  E(RB3LYP) =  -766.210377611     A.U. after   12 cycles
 SCF Done:  E(RB3LYP) =  -766.210797500     A.U. after   11 cycles
 SCF Done:  E(RB3LYP) =  -766.210932654     A.U. after   12 cycles
 SCF Done:  E(RB3LYP) =  -766.210989011     A.U. after   11 cycles
 SCF Done:  E(RB3LYP) =  -766.211016311     A.U. after   10 cycles
 SCF Done:  E(RB3LYP) =  -766.211023345     A.U. after    9 cycles
 SCF Done:  E(RB3LYP) =  -766.211023707     A.U. after    7 cycles
 SCF Done:  E(RB3LYP) =  -766.211023771     A.U. after    7 cycles
 Optimization completed.
    -- Stationary point found.
 Normal termination of Gaussian 16 at Fri Dec 11 13:04:45 2020.

 --------------------------------------------------------------------
 #N Geom=AllCheck Guess=TCheck SCRF=Check GenChk RB3LYP/6-31G(d) Freq
 --------------------------------------------------------------------

 Structure from the checkpoint file:  "JID_7934.chk"
 -------------------------------
 CID_105494636_JID_7934_neutraal
 -------------------------------
 Charge =  0 Multiplicity = 1

 SCF Done:  E(RB3LYP) =  -766.211023771     A.U. after    1 cycles

  Exact polarizability: 207.279   5.766 154.594 -14.231  12.554 105.465
 Approx polarizability: 272.092  14.625 273.436 -34.084  33.197 166.157

                      1                      2                      3
                      A                      A                      A
 Frequencies --     31.8609                40.8647                48.1515
 Red. masses --      3.1940                 3.7594                 2.7063
 Frc consts  --      0.0019                 0.0037                 0.0037
 IR Inten    --      1.3889                 0.7779                 0.1647

                      4                      5                      6
                      A                      A                      A
 Frequencies --     70.4416               105.1783               153.9973
 Red. masses --      4.2720                 4.6045                 4.0222
 Frc consts  --      0.0125                 0.0300                 0.0562
 IR Inten    --      1.7755                 0.6567                 3.6025

                      7                      8                      9
                      A                      A                      A
 Frequencies --    157.9825               206.5777               218.1406
 Red. masses --      4.7620                 2.4038                 3.6172
 Frc consts  --      0.0700                 0.0604                 0.1014
 IR Inten    --      1.8145                 0.5155                 1.9345

                     10                     11                     12
                      A                      A                      A
 Frequencies --    233.4151               256.4347               260.6760
 Red. masses --      1.1526                 3.3068                 1.2367
 Frc consts  --      0.0370                 0.1281                 0.0495
 IR Inten    --      0.0721                 5.6719                 0.8570

                     13                     14                     15
                      A                      A                      A
 Frequencies --    295.0901               305.3225               318.2058
 Red. masses --      1.4299                 1.4969                 2.4001
 Frc consts  --      0.0734                 0.0822                 0.1432
 IR Inten    --      0.7644                28.9517                 5.4487

                     16                     17                     18
                      A                      A                      A
 Frequencies --    322.4316               345.5241               382.3367
 Red. masses --      3.3810                 2.0825                 2.3885
 Frc consts  --      0.2071                 0.1465                 0.2057
 IR Inten    --      5.6403                18.5290                 2.2871

                     19                     20                     21
                      A                      A                      A
 Frequencies --    419.3470               422.9592               430.1050
 Red. masses --      2.5595                 2.1488                 3.2501
 Frc consts  --      0.2652                 0.2265                 0.3542
 IR Inten    --      0.2769                 0.7392                 0.0373

                     22                     23                     24
                      A                      A                      A
 Frequencies --    466.6237               506.7264               534.8065
 Red. masses --      3.1020                 3.8067                 4.6810
 Frc consts  --      0.3979                 0.5759                 0.7888
 IR Inten    --     21.1546                 5.5494                30.5976

                     25                     26                     27
                      A                      A                      A
 Frequencies --    578.4306               613.1481               617.9467
 Red. masses --      6.3947                 3.8686                 5.2381
 Frc consts  --      1.2606                 0.8569                 1.1785
 IR Inten    --      3.7930                10.8917                 3.1366

                     28                     29                     30
                      A                      A                      A
 Frequencies --    661.3077               694.6951               723.9754
 Red. masses --      6.5768                 6.0900                 3.9134
 Frc consts  --      1.6946                 1.7316                 1.2085
 IR Inten    --      6.6372                 2.1016                 0.5385

                     31                     32                     33
                      A                      A                      A
 Frequencies --    776.6883               778.8815               821.1071
 Red. masses --      6.4245                 6.0314                 2.7504
 Frc consts  --      2.2834                 2.1558                 1.0926
 IR Inten    --     13.1835                 6.4033                 6.1506

                     34                     35                     36
                      A                      A                      A
 Frequencies --    832.9413               864.0699               902.0503
 Red. masses --      1.5028                 3.7631                 1.7601
 Frc consts  --      0.6143                 1.6554                 0.8438
 IR Inten    --     30.7374                25.8035                 0.9208

                     37                     38                     39
                      A                      A                      A
 Frequencies --    905.1965               925.5518               938.8604
 Red. masses --      2.4331                 1.3741                 1.3323
 Frc consts  --      1.1746                 0.6936                 0.6919
 IR Inten    --    117.6460                 9.0218                33.4362

                     40                     41                     42
                      A                      A                      A
 Frequencies --    947.1405               951.4655               970.9491
 Red. masses --      1.2672                 2.1419                 2.4927
 Frc consts  --      0.6698                 1.1425                 1.3846
 IR Inten    --      5.8998                 4.8921                12.8043

                     43                     44                     45
                      A                      A                      A
 Frequencies --    980.3214               983.9827              1027.5193
 Red. masses --      1.3358                 1.5558                 1.5085
 Frc consts  --      0.7564                 0.8875                 0.9384
 IR Inten    --      0.2314                 1.0678                 2.1090

                     46                     47                     48
                      A                      A                      A
 Frequencies --   1054.2606              1095.1421              1107.0523
 Red. masses --      3.2396                 2.6782                 3.4531
 Frc consts  --      2.1215                 1.8925                 2.4934
 IR Inten    --     45.0699                14.1630                13.2568

                     49                     50                     51
                      A                      A                      A
 Frequencies --   1136.0671              1156.6320              1180.2211
 Red. masses --      2.2473                 2.2559                 1.4549
 Frc consts  --      1.7089                 1.7781                 1.1940
 IR Inten    --      3.7701                 0.7680                62.7561

                     52                     53                     54
                      A                      A                      A
 Frequencies --   1185.8291              1201.5234              1209.8396
 Red. masses --      1.9927                 1.9026                 1.8525
 Frc consts  --      1.6510                 1.6183                 1.5976
 IR Inten    --     12.2822                31.4895                 2.2765

                     55                     56                     57
                      A                      A                      A
 Frequencies --   1229.6193              1255.5549              1289.7609
 Red. masses --      1.6437                 3.2200                 1.5558
 Frc consts  --      1.4642                 2.9907                 1.5249
 IR Inten    --     23.6410                14.3526                12.9439

                     58                     59                     60
                      A                      A                      A
 Frequencies --   1307.9774              1347.7410              1372.6531
 Red. masses --      1.3608                 1.2851                 1.8521
 Frc consts  --      1.3716                 1.3753                 2.0561
 IR Inten    --     20.8162                 8.8506                 8.2835

                     61                     62                     63
                      A                      A                      A
 Frequencies --   1383.8314              1395.7320              1409.4118
 Red. masses --      1.7075                 3.3468                 1.4811
 Frc consts  --      1.9265                 3.8414                 1.7334
 IR Inten    --     15.2647                46.0859                 9.5302

                     64                     65                     66
                      A                      A                      A
 Frequencies --   1420.2435              1423.1065              1434.3292
 Red. masses --      1.3477                 1.5780                 1.2634
 Frc consts  --      1.6016                 1.8829                 1.5314
 IR Inten    --     33.2932                16.5826                 7.9899

                     67                     68                     69
                      A                      A                      A
 Frequencies --   1434.5907              1455.3404              1482.8897
 Red. masses --      1.3147                 1.2386                 3.6511
 Frc consts  --      1.5941                 1.5457                 4.7303
 IR Inten    --      4.6656                 5.6803                 0.6326

                     70                     71                     72
                      A                      A                      A
 Frequencies --   1503.9078              1517.4727              1523.3300
 Red. masses --      1.0905                 1.0534                 1.0635
 Frc consts  --      1.4532                 1.4292                 1.4540
 IR Inten    --      1.9231                 3.5674                 4.3512

                     73                     74                     75
                      A                      A                      A
 Frequencies --   1525.5758              1534.7122              1535.1659
 Red. masses --      1.0489                 1.0627                 1.0814
 Frc consts  --      1.4384                 1.4748                 1.5015
 IR Inten    --      4.1045                 2.0403                12.1848

                     76                     77                     78
                      A                      A                      A
 Frequencies --   1541.5468              1543.2363              1639.8614
 Red. masses --      1.4073                 1.7068                 7.9989
 Frc consts  --      1.9704                 2.3950                12.6735
 IR Inten    --     43.4878                93.3378                 7.7252

                     79                     80                     81
                      A                      A                      A
 Frequencies --   1679.7618              1692.3044              1869.4382
 Red. masses --      4.1698                 1.2153                13.0233
 Frc consts  --      6.9320                 2.0507                26.8160
 IR Inten    --     94.1836                14.5684               540.3051

                     82                     83                     84
                      A                      A                      A
 Frequencies --   3012.2295              3039.7230              3043.8345
 Red. masses --      1.0835                 1.0374                 1.0355
 Frc consts  --      5.7923                 5.6478                 5.6527
 IR Inten    --     25.7892                27.3347                17.0632

                     85                     86                     87
                      A                      A                      A
 Frequencies --   3047.4350              3060.5222              3069.3613
 Red. masses --      1.0423                 1.0755                 1.0644
 Frc consts  --      5.7031                 5.9356                 5.9080
 IR Inten    --     15.7096                 7.1089                30.8562

                     88                     89                     90
                      A                      A                      A
 Frequencies --   3102.5673              3107.9861              3114.4333
 Red. masses --      1.1013                 1.1023                 1.1026
 Frc consts  --      6.2462                 6.2737                 6.3011
 IR Inten    --      9.5896                12.1154                39.7341

                     91                     92                     93
                      A                      A                      A
 Frequencies --   3115.5816              3116.0300              3120.3025
 Red. masses --      1.1032                 1.1022                 1.1016
 Frc consts  --      6.3092                 6.3053                 6.3191
 IR Inten    --     61.0650                27.6595                39.1894

                     94                     95                     96
                      A                      A                      A
 Frequencies --   3141.6963              3208.3652              3225.1108
 Red. masses --      1.0988                 1.0883                 1.0935
 Frc consts  --      6.3902                 6.6005                 6.7010
 IR Inten    --     24.7383                 6.3437                 5.3702

                     97                     98                     99
                      A                      A                      A
 Frequencies --   3230.4514              3449.2253              3538.6397
 Red. masses --      1.0903                 1.0493                 1.0925
 Frc consts  --      6.7039                 7.3552                 8.0599
 IR Inten    --      2.2909                 4.7769                 2.1097

 - Thermochemistry -
 -------------------
 Temperature   298.150 Kelvin.  Pressure   1.00000 Atm.
 Atom     1 has atomic number  6 and mass  12.00000

 Molecular mass:   234.13683 amu.
 Principal axes and moments of inertia in atomic units:
                           1         2         3
     Eigenvalues --  2092.368456708.275207795.42770
           X            0.99977  -0.02112   0.00235
           Y            0.02111   0.99978   0.00195
           Z           -0.00239  -0.00190   1.00000
 This molecule is an asymmetric top.
 Rotational symmetry number  1.
 Warning -- assumption of classical behavior for rotation
           may cause significant error
 Rotational temperatures (Kelvin)      0.04140     0.01291     0.01111
 Rotational constants (GHZ):           0.86254     0.26903     0.23151
 Zero-point vibrational energy     782648.3 (Joules/Mol)
                                  187.05744 (Kcal/Mol)
 Warning -- explicit consideration of  27 degrees of freedom as
           vibrations may cause significant error
 Vibrational temperatures:     45.84    58.80    69.28   101.35   151.33
          (Kelvin)            221.57   227.30   297.22   313.86   335.83
                              368.95   375.05   424.57   439.29   457.83
                              463.91   497.13   550.10   603.35   608.54
                              618.83   671.37   729.07   769.47   832.23
                              882.18   889.09   951.47   999.51  1041.64
                             1117.48  1120.64  1181.39  1198.42  1243.20
                             1297.85  1302.38  1331.66  1350.81  1362.72
                             1368.95  1396.98  1410.46  1415.73  1478.37
                             1516.85  1575.67  1592.80  1634.55  1664.14
                             1698.07  1706.14  1728.72  1740.69  1769.15
                             1806.46  1855.68  1881.89  1939.10  1974.94
                             1991.02  2008.15  2027.83  2043.41  2047.53
                             2063.68  2064.06  2093.91  2133.55  2163.79
                             2183.30  2191.73  2194.96  2208.11  2208.76
                             2217.94  2220.37  2359.39  2416.80  2434.85
                             2689.70  4333.93  4373.48  4379.40  4384.58
                             4403.41  4416.13  4463.90  4471.70  4480.97
                             4482.63  4483.27  4489.42  4520.20  4616.12
                             4640.22  4647.90  4962.67  5091.31

 Zero-point correction=                           0.298095 (Hartree/Particle)
 Thermal correction to Energy=                    0.314676
 Thermal correction to Enthalpy=                  0.315620
 Thermal correction to Gibbs Free Energy=         0.253554
 Sum of electronic and zero-point Energies=           -765.912929
 Sum of electronic and thermal Energies=              -765.896348
 Sum of electronic and thermal Enthalpies=            -765.895404
 Sum of electronic and thermal Free Energies=         -765.957470

                     E (Thermal)             CV                S
                      KCal/Mol        Cal/Mol-Kelvin    Cal/Mol-Kelvin
 Total                  197.462             63.967            130.630
 Electronic               0.000              0.000              0.000
 Translational            0.889              2.981             42.254
 Rotational               0.889              2.981             33.059
 Vibrational            195.685             58.006             55.317
 Vibration     1          0.594              1.983              5.710
 Vibration     2          0.594              1.981              5.217
 Vibration     3          0.595              1.978              4.892
 Vibration     4          0.598              1.968              4.141
 Vibration     5          0.605              1.945              3.356
 Vibration     6          0.620              1.898              2.622
 Vibration     7          0.621              1.894              2.574
 Vibration     8          0.641              1.831              2.074
 Vibration     9          0.646              1.813              1.974
 Vibration    10          0.654              1.790              1.853
 Vibration    11          0.666              1.752              1.686
 Vibration    12          0.669              1.745              1.657
 Vibration    13          0.689              1.683              1.445
 Vibration    14          0.696              1.664              1.388
 Vibration    15          0.705              1.639              1.319
 Vibration    16          0.707              1.631              1.298
 Vibration    17          0.724              1.584              1.187
 Vibration    18          0.752              1.508              1.030
 Vibration    19          0.782              1.428              0.894
 Vibration    20          0.785              1.420              0.882
 Vibration    21          0.791              1.405              0.858
 Vibration    22          0.824              1.324              0.747
 Vibration    23          0.862              1.235              0.642
 Vibration    24          0.890              1.173              0.577
 Vibration    25          0.935              1.078              0.488
 Vibration    26          0.972              1.004              0.428
 Vibration    27          0.978              0.994              0.420

 Optimization completed.
    -- Stationary point found.
 Normal termination of Gaussian 16 at Fri Dec 11 13:17:19 2020.

 ----------------------------------------------------------------------
 # B3LYP/6-311++G(d,p) empiricaldispersion=gd3bj scf=xqc pop=npa geom=c
 heck
 ----------------------------------------------------------------------

 ---------------------------------------
 CID_105494636_JID_7934_Energie_neutraal
 ---------------------------------------
 Structure from the checkpoint file:  "JID_7934.chk"
 Charge =  0 Multiplicity = 1

 SCF Done:  E(RB3LYP) =  -766.425941857     A.U. after   17 cycles
 Normal termination of Gaussian 16 at Fri Dec 11 13:23:25 2020.

 ----------------------------------------------------------------------
 # B3LYP/6-311++G(d,p) empiricaldispersion=gd3bj scf=xqc pop=npa geom=c
 heck
 ----------------------------------------------------------------------

 -------------------------------------
 CID_105494636_JID_7934_Energie_kation
 -------------------------------------
 Structure from the checkpoint file:  "JID_7934.chk"
 Charge =  1 Multiplicity = 2

 SCF Done:  E(UB3LYP) =  -766.140480941     A.U. after   24 cycles
 Normal termination of Gaussian 16 at Fri Dec 11 13:35:03 2020.
 Gaussian 16:  ES64L-G16RevA.03 25-Dec-2016

 ----------------------------------------------------------------------
 # B3LYP/6-311++G(d,p) empiricaldispersion=gd3bj scf=xqc pop=npa geom=c
 heck
 ----------------------------------------------------------------------

 ------------------------------------
 CID_105494636_JID_7934_Energie_anion
 ------------------------------------
 Structure from the checkpoint file:  "JID_7934.chk"
 Charge = -1 Multiplicity = 2

                         Standard orientation:
 ---------------------------------------------------------------------
 Center     Atomic      Atomic             Coordinates (Angstroms)
 Number     Number       Type             X           Y           Z
 ---------------------------------------------------------------------
      1          6           0        2.378937   -1.045973    1.589481
      2          6           0        3.397005   -0.505779    0.579226
      3          6           0        4.701479   -1.312049    0.623129
      4          6           0        2.868321   -0.505502   -0.865492
      5          7           0        1.658095    0.271863   -1.119744
      6          6           0        0.388597   -0.133807   -0.734240
      7          6           0       -0.309686    0.943979   -0.190304
      8          6           0       -1.640038    0.826648    0.219755
      9          6           0       -2.277396   -0.402750    0.086184
     10          6           0       -1.551325   -1.487510   -0.465274
     11          6           0       -0.231513   -1.381807   -0.880761
     12          6           0       -3.719613   -0.644119    0.515970
     13          6           0       -4.462268    0.629973    0.938682
     14          7           0       -4.402318   -1.403380   -0.547847
     15          6           0        0.603577    2.077468   -0.131631
     16          8           0        0.481809    3.214965    0.252545
     17          8           0        1.818207    1.619569   -0.660840
     18          1           0        2.061571   -2.063191    1.327197
     19          1           0        1.483529   -0.421535    1.645158
     20          1           0        2.822186   -1.082046    2.590889
     21          1           0        3.624395    0.534955    0.839545
     22          1           0        4.521575   -2.365988    0.374023
     23          1           0        5.442663   -0.921070   -0.083592
     24          1           0        5.143109   -1.279317    1.624705
     25          1           0        3.640260   -0.124955   -1.542148
     26          1           0        2.629172   -1.525747   -1.188280
     27          1           0       -2.138927    1.694664    0.635250
     28          1           0       -2.071610   -2.432799   -0.578322
     29          1           0        0.291047   -2.233230   -1.303715
     30          1           0       -3.695187   -1.316652    1.386555
     31          1           0       -4.501173    1.354131    0.115865
     32          1           0       -5.491588    0.381002    1.219499
     33          1           0       -3.993408    1.116971    1.801068
     34          1           0       -5.356971   -1.608605   -0.254325
     35          1           0       -4.477674   -0.814875   -1.378218
 ---------------------------------------------------------------------

 SCF Done:  E(UB3LYP) =  -766.426540152     A.U. after   33 cycles
 SCF Done:  E(UB3LYP) =  -766.426540152     a.u. after    1 cycles

 The electronic state is 2-A.
 Alpha  occ. eigenvalues --  -19.05658 -18.96071 -14.26948 -14.18797 -10.14530
 Alpha  occ. eigenvalues --  -10.11057 -10.09572 -10.09115 -10.08301 -10.07640
 Alpha  occ. eigenvalues --  -10.06014 -10.05606 -10.05028 -10.04445 -10.03807
 Alpha  occ. eigenvalues --  -10.03799 -10.03637  -0.99963  -0.89897  -0.78609
 Alpha  occ. eigenvalues --   -0.77856  -0.73273  -0.70033  -0.65416  -0.63411
 Alpha  occ. eigenvalues --   -0.61203  -0.59513  -0.57296  -0.53266  -0.49849
 Alpha  occ. eigenvalues --   -0.48510  -0.47066  -0.44358  -0.40421  -0.39765
 Alpha  occ. eigenvalues --   -0.37692  -0.37287  -0.36247  -0.34537  -0.33944
 Alpha  occ. eigenvalues --   -0.32731  -0.32129  -0.31568  -0.30706  -0.30344
 Alpha  occ. eigenvalues --   -0.30012  -0.29427  -0.29094  -0.27490  -0.26743
 Alpha  occ. eigenvalues --   -0.26454  -0.25547  -0.25156  -0.23709  -0.23647
 Alpha  occ. eigenvalues --   -0.22982  -0.22263  -0.21850  -0.15956  -0.14366
 Alpha  occ. eigenvalues --   -0.14143  -0.13417  -0.09123   0.04430
 Alpha virt. eigenvalues --    0.05968   0.06350   0.08314   0.08644   0.09105
 Alpha virt. eigenvalues --    0.09449   0.09728   0.10510   0.10974   0.11517
 Alpha virt. eigenvalues --    0.12051   0.12285   0.12763   0.12940   0.13548

  Beta  occ. eigenvalues --  -19.05562 -18.95881 -14.26939 -14.18776 -10.14343
  Beta  occ. eigenvalues --  -10.11048 -10.09566 -10.09117 -10.08299 -10.07627
  Beta  occ. eigenvalues --  -10.06006 -10.05587 -10.05135 -10.04340 -10.03728
  Beta  occ. eigenvalues --  -10.03537 -10.03319  -0.99789  -0.89578  -0.78566
  Beta  occ. eigenvalues --   -0.77766  -0.73065  -0.69938  -0.65270  -0.63039
  Beta  occ. eigenvalues --   -0.60986  -0.59490  -0.57203  -0.52970  -0.49410
  Beta  occ. eigenvalues --   -0.48440  -0.46991  -0.44147  -0.40347  -0.39652
  Beta  occ. eigenvalues --   -0.37609  -0.37115  -0.36093  -0.34400  -0.33853
  Beta  occ. eigenvalues --   -0.32587  -0.32019  -0.31269  -0.30599  -0.30248
  Beta  occ. eigenvalues --   -0.29933  -0.29313  -0.28998  -0.27358  -0.26537
  Beta  occ. eigenvalues --   -0.26309  -0.25422  -0.25025  -0.23656  -0.23225
  Beta  occ. eigenvalues --   -0.22818  -0.22001  -0.21329  -0.15363  -0.14151
  Beta  occ. eigenvalues --   -0.13823  -0.12105  -0.08528
  Beta virt. eigenvalues --    0.06106   0.06858   0.08318   0.08622   0.09254
  Beta virt. eigenvalues --    0.09358   0.09420   0.09737   0.10707   0.10874
  Beta virt. eigenvalues --    0.11519   0.12027   0.12473   0.12716   0.12847

 Mulliken charges and spin densities:
               1          2
     1  C   -0.491647  -0.139567
     2  C    0.070462   0.388251
     3  C   -0.127091  -0.538039
     4  C   -0.514521  -0.134271
     5  N   -0.156059   0.007962
     6  C    0.198397   0.129270
     7  C   -0.491797  -0.087956
     8  C   -0.200993   0.006650
     9  C    0.920708  -0.462075
    10  C   -0.333843   0.198030
    11  C   -0.007834   0.189347
    12  C   -0.926419   0.356325
    13  C   -0.032896  -0.497864
    14  N   -0.264886   0.011455
    15  C    0.242002   0.079590
    16  O   -0.380496   0.065271
    17  O    0.123555   0.012977
    18  H    0.118586   0.027513
    19  H    0.153214   0.017113
    20  H    0.072665   0.059724
    21  H    0.198187   0.014726
    22  H   -0.001704   0.127851
    23  H    0.017878   0.105896
    24  H   -0.006156   0.136664
    25  H    0.140902   0.029155
    26  H    0.150102   0.008596
    27  H    0.158527  -0.013651
    28  H    0.203037  -0.018788
    29  H    0.062445   0.033117
    30  H    0.128583   0.028348
    31  H    0.149456  -0.005202
    32  H   -0.331542   0.475575
    33  H    0.057367   0.086294
    34  H   -0.027177   0.243844
    35  H    0.128989   0.057868
 Sum of Mulliken charges =  -1.00000   1.00000

 Dipole moment (field-independent basis, Debye):
    X=              3.5645    Y=             -3.5850    Z=             -0.4027  Tot=              5.0715
 Quadrupole moment (field-independent basis, Debye-Ang):
   XX=           -166.7265   YY=           -143.2256   ZZ=           -118.9640
   XY=             -9.1245   XZ=             -0.3859   YZ=             -1.4461

 Summary of Natural Population Analysis:

                                       Natural Population
                Natural  -----------------------------------------------
    Atom  No    Charge         Core      Valence    Rydberg      Total
 -----------------------------------------------------------------------
      C    1   -0.28783      0.99965     2.28291    0.00527     3.28783
      C    2   -0.12858      0.99961     2.11774    0.01123     3.12858
      C    3   -0.28294      0.99965     2.27869    0.00460     3.28294
      C    4   -0.08135      0.99958     2.07093    0.01084     3.08135
      N    5   -0.08557      0.99961     2.57245    0.01350     3.58557
      C    6    0.09386      0.99945     1.89503    0.01166     2.90614
      C    7   -0.09501      0.99941     2.08562    0.00998     3.09501
      C    8   -0.01878      0.99949     2.01154    0.00776     3.01878
      C    9   -0.05985      0.99951     2.05095    0.00939     3.05985
      C   10   -0.02942      0.99954     2.02143    0.00845     3.02942
      C   11   -0.11774      0.99952     2.11047    0.00776     3.11774
      C   12   -0.01822      0.99958     2.00655    0.01210     3.01822
      C   13   -0.29462      0.99966     2.28855    0.00642     3.29462
      N   14   -0.41935      0.99978     2.90905    0.01052     3.91935
      C   15    0.40881      0.99962     1.56653    0.02505     2.59119
      O   16   -0.29471      0.99987     3.28897    0.00587     4.29471
      O   17   -0.20202      0.99988     3.19439    0.00775     4.20202
      H   18    0.09698      0.00000     0.40199    0.00103     0.40302
      H   19    0.11154      0.00000     0.38741    0.00105     0.38846
      H   20    0.09519      0.00000     0.40397    0.00084     0.40481
      H   21    0.10315      0.00000     0.39528    0.00157     0.39685
      H   22    0.09441      0.00000     0.40456    0.00103     0.40559
      H   23    0.09680      0.00000     0.40220    0.00100     0.40320
      H   24    0.09917      0.00000     0.39982    0.00102     0.40083
      H   25    0.09693      0.00000     0.40177    0.00130     0.40307
      H   26    0.09934      0.00000     0.39949    0.00117     0.40066
      H   27    0.10079      0.00000     0.39790    0.00131     0.39921
      H   28    0.10122      0.00000     0.39770    0.00109     0.39878
      H   29    0.09411      0.00000     0.40425    0.00164     0.40589
      H   30    0.08706      0.00000     0.41110    0.00183     0.41294
      H   31    0.09757      0.00000     0.40134    0.00109     0.40243
      H   32    0.09601      0.00000     0.40249    0.00151     0.40399
      H   33    0.10181      0.00000     0.39730    0.00090     0.39819
      H   34    0.17052      0.00000     0.32728    0.00220     0.32948
      H   35    0.17073      0.00000     0.32777    0.00150     0.32927
 =======================================================================
   * Total *    0.00000     16.99341    45.81538    0.19122    63.00000

 Normal termination of Gaussian 16 at Fri Dec 11 13:51:20 2020.
