 Gaussian 16, Revision A.03,

 -----------------------------------------------------------
 # opt freq B3LYP/6-31G(d) empiricaldispersion=gd3bj scf=xqc
 -----------------------------------------------------------

 ------------------------------
 CID_29071253_JID_2834_neutraal
 ------------------------------
 Symbolic Z-matrix:
 Charge =  0 Multiplicity = 1

 SCF Done:  E(RB3LYP) =  -927.132272211     A.U. after   15 cycles
 SCF Done:  E(RB3LYP) =  -927.140662895     A.U. after   13 cycles
 SCF Done:  E(RB3LYP) =  -927.142157204     A.U. after   13 cycles
 SCF Done:  E(RB3LYP) =  -927.143910559     A.U. after   15 cycles
 SCF Done:  E(RB3LYP) =  -927.143104168     A.U. after   15 cycles
 SCF Done:  E(RB3LYP) =  -927.145010052     A.U. after   13 cycles
 SCF Done:  E(RB3LYP) =  -927.145808973     A.U. after   12 cycles
 SCF Done:  E(RB3LYP) =  -927.146350665     A.U. after   12 cycles
 SCF Done:  E(RB3LYP) =  -927.146737414     A.U. after   13 cycles
 SCF Done:  E(RB3LYP) =  -927.147168169     A.U. after   12 cycles
 SCF Done:  E(RB3LYP) =  -927.147667712     A.U. after    8 cycles
 SCF Done:  E(RB3LYP) =  -927.147669680     A.U. after    9 cycles
 SCF Done:  E(RB3LYP) =  -927.147670128     A.U. after    8 cycles
 SCF Done:  E(RB3LYP) =  -927.147670195     A.U. after    7 cycles
 SCF Done:  E(RB3LYP) =  -927.147670240     A.U. after    7 cycles
 Optimization completed.
    -- Stationary point found.
 Normal termination of Gaussian 16 at Wed Dec  9 18:24:37 2020.

 --------------------------------------------------------------------
 #N Geom=AllCheck Guess=TCheck SCRF=Check GenChk RB3LYP/6-31G(d) Freq
 --------------------------------------------------------------------

 Structure from the checkpoint file:  "JID_2834.chk"
 ------------------------------
 CID_29071253_JID_2834_neutraal
 ------------------------------
 Charge =  0 Multiplicity = 1

 SCF Done:  E(RB3LYP) =  -927.147670240     A.U. after    1 cycles

  Exact polarizability: 142.283 -10.779 105.042   1.272  -4.833  70.262
 Approx polarizability: 221.005 -17.903 161.094  -1.879 -14.091 109.507

                      1                      2                      3
                      A                      A                      A
 Frequencies --     46.7263                63.8863                83.7263
 Red. masses --      5.4436                 3.3630                 7.4911
 Frc consts  --      0.0070                 0.0081                 0.0309
 IR Inten    --      3.2555                 2.5168                 2.8915

                      4                      5                      6
                      A                      A                      A
 Frequencies --    108.2933               141.5659               174.1459
 Red. masses --      3.0907                 3.4626                 3.7789
 Frc consts  --      0.0214                 0.0409                 0.0675
 IR Inten    --      7.0188                 2.0926                 1.3816

                      7                      8                      9
                      A                      A                      A
 Frequencies --    224.0624               226.9289               296.7666
 Red. masses --      1.3573                 5.2726                 6.0012
 Frc consts  --      0.0401                 0.1600                 0.3114
 IR Inten    --      0.2965                 4.6596                 4.0539

                     10                     11                     12
                      A                      A                      A
 Frequencies --    317.8108               327.5821               435.3739
 Red. masses --      3.8324                 3.6929                 2.2406
 Frc consts  --      0.2281                 0.2335                 0.2502
 IR Inten    --      3.8195                 1.9763                 6.9367

                     13                     14                     15
                      A                      A                      A
 Frequencies --    454.6670               488.4617               522.9610
 Red. masses --      4.1295                 1.3521                 1.3997
 Frc consts  --      0.5030                 0.1901                 0.2255
 IR Inten    --      3.7903               237.1322                69.4511

                     16                     17                     18
                      A                      A                      A
 Frequencies --    543.1367               576.1022               620.9284
 Red. masses --      3.0070                 3.1984                 2.0268
 Frc consts  --      0.5226                 0.6254                 0.4604
 IR Inten    --     56.6716                14.3721                12.0049

                     19                     20                     21
                      A                      A                      A
 Frequencies --    669.0180               683.8528               687.8988
 Red. masses --      3.1722                 4.5036                 2.5490
 Frc consts  --      0.8365                 1.2409                 0.7107
 IR Inten    --     19.4837                 1.7618                 4.5459

                     22                     23                     24
                      A                      A                      A
 Frequencies --    728.3613               818.9533               832.4293
 Red. masses --      2.8208                 1.3397                 3.5022
 Frc consts  --      0.8817                 0.5294                 1.4298
 IR Inten    --      3.2847                 4.9375                 4.2353

                     25                     26                     27
                      A                      A                      A
 Frequencies --    883.9611               953.7183               995.9759
 Red. masses --      4.6178                 2.7296                 2.2609
 Frc consts  --      2.1259                 1.4628                 1.3214
 IR Inten    --      1.3639                 2.5948                 5.0053

                     28                     29                     30
                      A                      A                      A
 Frequencies --   1040.6340              1088.0866              1126.3898
 Red. masses --      2.3299                 2.3726                 2.0861
 Frc consts  --      1.4866                 1.6550                 1.5594
 IR Inten    --     20.0340                 5.5325                10.3402

                     31                     32                     33
                      A                      A                      A
 Frequencies --   1137.2290              1160.3797              1201.0177
 Red. masses --      2.0089                 1.9098                 4.0329
 Frc consts  --      1.5308                 1.5151                 3.4274
 IR Inten    --     19.4763                 4.6028                32.2214

                     34                     35                     36
                      A                      A                      A
 Frequencies --   1246.6562              1280.7292              1311.6131
 Red. masses --      1.7758                 2.4008                 1.1523
 Frc consts  --      1.6260                 2.3202                 1.1679
 IR Inten    --     46.0617                54.3432                 3.2367

                     37                     38                     39
                      A                      A                      A
 Frequencies --   1354.5897              1368.4600              1383.4570
 Red. masses --      2.1236                 1.6777                 2.5992
 Frc consts  --      2.2958                 1.8511                 2.9311
 IR Inten    --     30.6417                12.7549                24.9320

                     40                     41                     42
                      A                      A                      A
 Frequencies --   1414.7193              1444.8786              1467.7570
 Red. masses --      2.2915                 1.2428                 2.6254
 Frc consts  --      2.7022                 1.5287                 3.3323
 IR Inten    --     41.4816                 9.1690                20.3427

                     43                     44                     45
                      A                      A                      A
 Frequencies --   1495.3249              1515.5430              1517.9526
 Red. masses --      1.3238                 1.1432                 2.0340
 Frc consts  --      1.7440                 1.5471                 2.7613
 IR Inten    --    104.8674                15.8284               199.6408

                     46                     47                     48
                      A                      A                      A
 Frequencies --   1524.7890              1535.2362              1636.3341
 Red. masses --      1.0384                 1.0913                 6.9400
 Frc consts  --      1.4224                 1.5155                10.9485
 IR Inten    --      6.7939                 2.5433                46.4647

                     49                     50                     51
                      A                      A                      A
 Frequencies --   1658.1762              1809.8316              3032.9823
 Red. masses --      1.2412                 8.6917                 1.0680
 Frc consts  --      2.0107                16.7738                 5.7882
 IR Inten    --     92.4801               325.9603                12.3602

                     52                     53                     54
                      A                      A                      A
 Frequencies --   3072.0881              3085.0075              3105.9487
 Red. masses --      1.0352                 1.0937                 1.0618
 Frc consts  --      5.7565                 6.1330                 6.0352
 IR Inten    --     21.8759                 0.7430                 8.4755

                     55                     56                     57
                      A                      A                      A
 Frequencies --   3144.4840              3146.9048              3177.7979
 Red. masses --      1.1037                 1.1033                 1.1054
 Frc consts  --      6.4301                 6.4372                 6.5769
 IR Inten    --     21.9431                16.7944                 1.7393

                     58                     59                     60
                      A                      A                      A
 Frequencies --   3483.2457              3662.6128              3679.0342
 Red. masses --      1.0559                 1.0963                 1.0823
 Frc consts  --      7.5482                 8.6649                 8.6314
 IR Inten    --    136.0693                83.9655               101.6628

 - Thermochemistry -
 -------------------
 Temperature   298.150 Kelvin.  Pressure   1.00000 Atm.
 Atom     1 has atomic number  6 and mass  12.00000

 Molecular mass:   186.05753 amu.
 Principal axes and moments of inertia in atomic units:
                           1         2         3
     Eigenvalues --  1827.712382422.602653915.71131
           X            0.99918   0.04027   0.00438
           Y           -0.04024   0.99917  -0.00628
           Z           -0.00463   0.00610   0.99997
 This molecule is an asymmetric top.
 Rotational symmetry number  1.
 Warning -- assumption of classical behavior for rotation
           may cause significant error
 Rotational temperatures (Kelvin)      0.04739     0.03575     0.02212
 Rotational constants (GHZ):           0.98743     0.74496     0.46090
 Zero-point vibrational energy     461861.3 (Joules/Mol)
                                  110.38751 (Kcal/Mol)
 Warning -- explicit consideration of  17 degrees of freedom as
           vibrations may cause significant error
 Vibrational temperatures:     67.23    91.92   120.46   155.81   203.68
          (Kelvin)            250.56   322.38   326.50   426.98   457.26
                              471.32   626.41   654.16   702.79   752.42
                              781.45   828.88   893.38   962.57   983.91
                              989.73  1047.95  1178.29  1197.68  1271.82
                             1372.19  1432.99  1497.24  1565.51  1620.62
                             1636.22  1669.53  1728.00  1793.66  1842.68
                             1887.12  1948.95  1968.91  1990.49  2035.47
                             2078.86  2111.77  2151.44  2180.53  2184.00
                             2193.83  2208.86  2354.32  2385.75  2603.94
                             4363.78  4420.05  4438.64  4468.77  4524.21
                             4527.69  4572.14  5011.61  5269.68  5293.31

 Zero-point correction=                           0.175914 (Hartree/Particle)
 Thermal correction to Energy=                    0.187880
 Thermal correction to Enthalpy=                  0.188824
 Thermal correction to Gibbs Free Energy=         0.136939
 Sum of electronic and zero-point Energies=           -926.971757
 Sum of electronic and thermal Energies=              -926.959790
 Sum of electronic and thermal Enthalpies=            -926.958846
 Sum of electronic and thermal Free Energies=         -927.010731

                     E (Thermal)             CV                S
                      KCal/Mol        Cal/Mol-Kelvin    Cal/Mol-Kelvin
 Total                  117.897             43.662            109.201
 Electronic               0.000              0.000              0.000
 Translational            0.889              2.981             41.569
 Rotational               0.889              2.981             31.228
 Vibrational            116.119             37.700             36.404
 Vibration     1          0.595              1.979              4.951
 Vibration     2          0.597              1.972              4.333
 Vibration     3          0.601              1.960              3.802
 Vibration     4          0.606              1.943              3.299
 Vibration     5          0.615              1.912              2.783
 Vibration     6          0.627              1.874              2.390
 Vibration     7          0.649              1.804              1.926
 Vibration     8          0.651              1.800              1.903
 Vibration     9          0.690              1.680              1.435
 Vibration    10          0.704              1.640              1.321
 Vibration    11          0.711              1.620              1.272
 Vibration    12          0.796              1.393              0.841
 Vibration    13          0.813              1.351              0.782
 Vibration    14          0.844              1.276              0.688
 Vibration    15          0.878              1.199              0.603
 Vibration    16          0.898              1.155              0.559
 Vibration    17          0.933              1.083              0.493

 Optimization completed.
    -- Stationary point found.
 Normal termination of Gaussian 16 at Wed Dec  9 18:29:53 2020.

 ----------------------------------------------------------------------
 # B3LYP/6-311++G(d,p) empiricaldispersion=gd3bj scf=xqc pop=npa geom=c
 heck
 ----------------------------------------------------------------------

 --------------------------------------
 CID_29071253_JID_2834_Energie_neutraal
 --------------------------------------
 Structure from the checkpoint file:  "JID_2834.chk"
 Charge =  0 Multiplicity = 1

 SCF Done:  E(RB3LYP) =  -927.330684318     A.U. after   15 cycles
 Normal termination of Gaussian 16 at Wed Dec  9 18:32:08 2020.

 ----------------------------------------------------------------------
 # B3LYP/6-311++G(d,p) empiricaldispersion=gd3bj scf=xqc pop=npa geom=c
 heck
 ----------------------------------------------------------------------

 ------------------------------------
 CID_29071253_JID_2834_Energie_kation
 ------------------------------------
 Structure from the checkpoint file:  "JID_2834.chk"
 Charge =  1 Multiplicity = 2

 SCF Done:  E(UB3LYP) =  -927.030047682     A.U. after   24 cycles
 Normal termination of Gaussian 16 at Wed Dec  9 18:37:05 2020.
 Gaussian 16:  ES64L-G16RevA.03 25-Dec-2016

 ----------------------------------------------------------------------
 # B3LYP/6-311++G(d,p) empiricaldispersion=gd3bj scf=xqc pop=npa geom=c
 heck
 ----------------------------------------------------------------------

 -----------------------------------
 CID_29071253_JID_2834_Energie_anion
 -----------------------------------
 Structure from the checkpoint file:  "JID_2834.chk"
 Charge = -1 Multiplicity = 2

                         Standard orientation:
 ---------------------------------------------------------------------
 Center     Atomic      Atomic             Coordinates (Angstroms)
 Number     Number       Type             X           Y           Z
 ---------------------------------------------------------------------
      1          6           0       -3.742090   -0.174535    0.228604
      2          6           0       -2.442291    0.351775   -0.383273
      3          6           0       -1.276321   -0.546043   -0.122709
      4          7           0       -1.325893   -1.723357    0.439340
      5          7           0       -0.015351   -2.133292    0.471610
      6          6           0        0.862063   -1.240406   -0.044700
      7         16           0        2.536182   -1.334259   -0.146175
      8          7           0        0.028344   -0.217031   -0.454748
      9          6           0        0.493646    1.032442   -1.039887
     10          6           0        0.708162    2.082805    0.063756
     11          8           0       -0.142479    2.927019    0.312250
     12          7           0        1.887023    1.952198    0.721147
     13          1           0       -3.994381   -1.161604   -0.168648
     14          1           0       -4.563091    0.512550    0.004815
     15          1           0       -3.652416   -0.265788    1.314817
     16          1           0       -2.556693    0.469166   -1.470637
     17          1           0       -2.198866    1.349167    0.002613
     18          1           0        0.233756   -3.018428    0.886601
     19          1           0        1.418272    0.809601   -1.577961
     20          1           0       -0.261691    1.406980   -1.729894
     21          1           0        2.467602    1.128440    0.578685
     22          1           0        2.030561    2.516066    1.548225
 ---------------------------------------------------------------------

 SCF Done:  E(UB3LYP) =  -927.318199348     A.U. after   33 cycles
 SCF Done:  E(UB3LYP) =  -927.318199348     a.u. after    1 cycles

 The electronic state is 2-A.
 Alpha  occ. eigenvalues --  -88.70509 -19.00460 -14.30220 -14.29907 -14.25782
 Alpha  occ. eigenvalues --  -14.24109 -10.19524 -10.19001 -10.16352 -10.13598
 Alpha  occ. eigenvalues --  -10.09245 -10.06866  -7.79249  -5.75707  -5.75004
 Alpha  occ. eigenvalues --   -5.74807  -1.00410  -0.95299  -0.86527  -0.81797
 Alpha  occ. eigenvalues --   -0.78069  -0.68535  -0.67526  -0.62720  -0.57896
 Alpha  occ. eigenvalues --   -0.54359  -0.50422  -0.49619  -0.46551  -0.45208
 Alpha  occ. eigenvalues --   -0.41815  -0.39974  -0.38209  -0.35887  -0.35317
 Alpha  occ. eigenvalues --   -0.33354  -0.32798  -0.31004  -0.30548  -0.28257
 Alpha  occ. eigenvalues --   -0.27341  -0.26825  -0.24115  -0.23324  -0.21324
 Alpha  occ. eigenvalues --   -0.18826  -0.17070  -0.13394  -0.12186   0.04438
 Alpha virt. eigenvalues --    0.06608   0.06853   0.07590   0.08055   0.09202
 Alpha virt. eigenvalues --    0.09675   0.10070   0.10470   0.10803   0.11507
 Alpha virt. eigenvalues --    0.12596   0.13093   0.13776   0.14498   0.15080

  Beta  occ. eigenvalues --  -88.70506 -19.00442 -14.30176 -14.29905 -14.25756
  Beta  occ. eigenvalues --  -14.24067 -10.19510 -10.18989 -10.16354 -10.13571
  Beta  occ. eigenvalues --  -10.09210 -10.06836  -7.79244  -5.75702  -5.75002
  Beta  occ. eigenvalues --   -5.74805  -1.00378  -0.95266  -0.86496  -0.81733
  Beta  occ. eigenvalues --   -0.78016  -0.68487  -0.67466  -0.62681  -0.57841
  Beta  occ. eigenvalues --   -0.54305  -0.50356  -0.49550  -0.46493  -0.45163
  Beta  occ. eigenvalues --   -0.41752  -0.39918  -0.38158  -0.35838  -0.35268
  Beta  occ. eigenvalues --   -0.33303  -0.32766  -0.30940  -0.30499  -0.28201
  Beta  occ. eigenvalues --   -0.27291  -0.26785  -0.24055  -0.23273  -0.21258
  Beta  occ. eigenvalues --   -0.18761  -0.17037  -0.13380  -0.12147
  Beta virt. eigenvalues --    0.06873   0.07563   0.07905   0.08064   0.08720
  Beta virt. eigenvalues --    0.09472   0.10005   0.10393   0.10852   0.11140
  Beta virt. eigenvalues --    0.11766   0.12854   0.13299   0.13910   0.14765

 Mulliken charges and spin densities:
               1          2
     1  C    1.351513  -2.111982
     2  C   -1.666354   1.539076
     3  C    0.680982  -0.640912
     4  N    0.000611  -0.056779
     5  N   -0.110685   0.097208
     6  C    0.302278   0.117021
     7  S   -0.236545  -0.572413
     8  N    0.148175   0.006583
     9  C    0.990666  -1.581716
    10  C    0.024738   0.184792
    11  O   -0.323703   0.008916
    12  N   -0.225094  -0.019936
    13  H   -0.194487   0.364690
    14  H   -0.341705   0.488265
    15  H   -0.097921   0.265436
    16  H   -0.623960   0.821293
    17  H    0.225634  -0.033509
    18  H   -0.235758   0.610862
    19  H   -0.311796   0.495265
    20  H   -0.205405   0.396049
    21  H    0.053023   0.127506
    22  H   -0.204204   0.494284
 Sum of Mulliken charges =  -1.00000   1.00000

 Dipole moment (field-independent basis, Debye):
    X=              2.0744    Y=             -0.3431    Z=              1.0660  Tot=              2.3574
 Quadrupole moment (field-independent basis, Debye-Ang):
   XX=           -138.4024   YY=           -126.9104   ZZ=           -111.7083
   XY=              1.8455   XZ=             -7.1221   YZ=              0.2471

 Summary of Natural Population Analysis:

                                       Natural Population
                Natural  -----------------------------------------------
    Atom  No    Charge         Core      Valence    Rydberg      Total
 -----------------------------------------------------------------------
      C    1   -0.27939      0.99967     2.27515    0.00457     3.27939
      C    2   -0.22107      0.99960     2.21296    0.00851     3.22107
      C    3    0.21557      0.99960     1.76786    0.01697     2.78443
      N    4   -0.14976      0.99967     2.63781    0.01228     3.64976
      N    5   -0.18693      0.99962     2.67387    0.01343     3.68693
      C    6    0.12755      0.99959     1.85094    0.02192     2.87245
      S    7   -0.15282      4.99961     3.14020    0.01301     8.15282
      N    8   -0.22756      0.99958     2.71400    0.01398     3.72756
      C    9   -0.12790      0.99957     2.11605    0.01228     3.12790
      C   10    0.33187      0.99970     1.64641    0.02202     2.66813
      O   11   -0.31730      0.99988     3.31094    0.00648     4.31730
      N   12   -0.40195      0.99970     2.89441    0.00784     3.90195
      H   13    0.10379      0.00000     0.39454    0.00167     0.39621
      H   14    0.10116      0.00000     0.39771    0.00113     0.39884
      H   15    0.10065      0.00000     0.39804    0.00131     0.39935
      H   16    0.11387      0.00000     0.38189    0.00424     0.38613
      H   17    0.11983      0.00000     0.37834    0.00183     0.38017
      H   18    0.20912      0.00000     0.28626    0.00462     0.29088
      H   19    0.12054      0.00000     0.37770    0.00176     0.37946
      H   20    0.11728      0.00000     0.38080    0.00192     0.38272
      H   21    0.20707      0.00000     0.28987    0.00306     0.29293
      H   22    0.19638      0.00000     0.30038    0.00324     0.30362
 =======================================================================
   * Total *    0.00000     15.99577    32.82616    0.17807    49.00000

 Normal termination of Gaussian 16 at Wed Dec  9 18:43:53 2020.
